default_name
130501
  93.5674019  57.2375173  61.4806509  92.5964206  57.4954205  61.3768137
  94.1383370  58.0583549  61.3379658  93.6698271  56.6915213  62.3241538
  93.9153112  56.3310089  60.3895365  94.7142553  56.7822815  59.8011994
  94.3894479  54.9571214  60.8895200  95.1383390  55.1218395  61.6642002
  93.5323786  54.4375930  61.3180319  94.9970732  54.1013370  59.7621609
  95.5894211  54.7048407  58.8424233  94.8913621  52.8429481  59.7781511
  92.6905287  56.1629056  59.4563125  91.5132057  56.3486164  59.8638856
  92.9919848  55.7915509  58.1984568  93.9605257  55.6066192  57.9797602
  92.0106099  55.6617214  57.1381033  91.0122808  55.9279587  57.4853150
  92.3718881  56.5635698  55.9308136  91.7354287  56.2966043  55.0871613
  92.1640576  58.0390868  56.2792860  92.8005764  58.3069289  57.1226152
  92.4230592  58.6561238  55.4188892  91.1202915  58.2066909  56.5449206
  93.7358279  56.3377140  55.5169510  93.9413358  56.9039407  54.7694525
  91.8764144  54.2471244  56.6234141  91.0342419  54.0159005  55.7400235
  92.7025326  53.3128427  57.0832755  93.5259126  53.5113303  57.6335004
  92.4268410  51.9280205  56.7284029  92.2136727  51.8587699  55.6616963
  93.6254263  51.0375312  57.0450984  94.5175040  51.4825793  56.6043843
  93.7439499  50.9829856  58.1272615  93.4418978  49.7302729  56.5230168
  94.2072134  49.1907845  56.7347811  91.1927389  51.4123412  57.4618227
  90.4568611  50.5644239  56.9370568  90.9337328  51.9250076  58.6544786
  91.3960930  52.7634051  58.9760560  89.9994458  51.2686495  59.5491354
  90.2408493  50.2097405  59.6415218  90.0907316  51.9134572  60.9334638
  90.2045450  52.9739561  60.7087688  89.1694433  51.7583921  61.4949642
  91.2774109  51.4403968  61.7644271  92.1589479  52.0511761  61.5696401
  90.8700273  51.5901034  63.2182024  89.9887674  50.9792101  63.4138786
  91.6877707  51.2636087  63.8606957  90.6404465  52.6352002  63.4259660
  91.7138079  50.0408344  61.4031008  92.0057180  50.0103343  60.3533591
  92.5619486  49.7524462  62.0240603  90.8892424  49.3479332  61.5706678
  88.5438285  51.3140593  59.0974915  87.7796914  50.3682263  59.3704392
  88.0954895  52.4108919  58.4723240  88.6075098  53.7666906  58.3627751
  89.2735672  53.8150620  57.5013066  89.1683412  53.9977060  59.2684236
  87.3858400  54.6428072  58.2020621  87.6381424  55.5691246  57.6859434
  86.9461156  54.8759580  59.1717963  86.4368713  53.7755217  57.3647388
  86.6862056  53.8111294  56.3042373  85.3805316  54.0094330  57.4971454
  86.7351201  52.3923082  57.9193802  86.0226964  52.2065022  58.7231381
  86.6152222  51.2984446  56.8755987  85.6563024  50.5105677  56.8809766
  87.6385767  51.1827669  56.0297345  88.3660661  51.8833792  56.0307238
  87.7081465  50.1146708  55.0380108  86.8277938  50.0699799  54.3968547
  88.9414140  50.3954352  54.1611605  89.7348345  50.8038184  54.7871055
  89.4206440  49.1355821  53.5064408  88.6278658  48.7268337  52.8799210
  90.2930802  49.3545924  52.8908202  89.6900656  48.4076152  54.2716707
  88.5888944  51.3819443  53.1746657  89.3505814  51.5664476  52.6202365
  87.7553473  48.7282847  55.6641351  87.5472642  47.7272103  54.9704886
  88.0152326  48.6326936  56.9425443  88.2409840  49.4460624  57.4971314
  88.0816250  47.3259237  57.5766653  88.4061713  46.5694442  56.8621671
  89.0966226  47.3817143  58.7269841  88.8114421  48.1800321  59.4121557
  89.0851444  46.4285436  59.2555992  90.4049213  47.6307998  58.2275655
  91.0259580  47.6624727  58.9589410  86.7234147  46.8162792  58.0601517
  86.5952519  45.6034946  58.3067458  85.7247991  47.6922387  58.1535110
  85.9026236  48.6679081  57.9623383  84.4015790  47.3134536  58.6847626
  83.8618042  48.2096067  58.9907887  83.5708808  46.5789550  57.6234958
  83.9494881  45.5653317  57.4918765  82.5207700  46.5392835  57.9129670
  83.6194640  47.2290712  56.2846625  84.4930382  46.8245673  55.2995850
  84.3176776  47.5604450  54.2263457  84.9188276  47.3980799  53.3317199
  83.3476884  48.4365601  54.4798003  82.9894010  49.1334946  53.8426093
  82.9056103  48.2420851  55.7576600  82.1077780  48.8667576  56.1593430
  84.6978174  46.5632833  59.9756032  84.2859557  45.4035853  60.0999077
  85.4590889  47.1964272  60.8682843  85.8102902  48.1120979  60.6268217
  85.8649416  46.6080782  62.1668450  86.2295844  45.5872599  62.0525433
  86.9703847  47.4539669  62.8048997  86.6012668  48.4759622  62.8907947
  87.3780817  46.9492961  64.1705466  87.7477686  45.9274458  64.0853807
  88.1643608  47.5871170  64.5743397  86.5164567  46.9689698  64.8378664
  88.0800905  47.4413339  61.9044808  88.7965071  47.9639390  62.2722192
  84.6413061  46.5110582  63.0642186  84.5751173  45.5586430  63.8480390
  83.7495221  47.4913027  63.0011310  83.9267908  48.2722977  62.3857270
  82.4993067  47.4933306  63.7964995  82.7439782  47.6888302  64.8405373
  81.5113892  48.5607666  63.3172497  80.6154674  48.4654910  63.9307199
  81.9888708  49.5196554  63.5188524  81.1329522  48.4849898  61.8613735
  81.8731857  49.1291939  60.8909177  82.7510002  49.6972928  61.1988215
  81.5246021  49.0663971  59.5560469  82.1123108  49.6047454  58.8124869
  80.4330652  48.3223843  59.1644895  80.1068762  48.2516419  57.8469781
  80.7014918  48.7547413  57.2857982  79.6882903  47.6608430  60.1173727
  78.8244118  47.0666648  59.8194351  80.0375124  47.7513968  61.4504720
  79.4433402  47.2368849  62.2056785  81.8277810  46.1310255  63.6754737
  81.1787171  45.7164688  64.6530154  81.9336376  45.4827573  62.5213712
  82.4560003  45.9000641  61.7643431  81.2585812  44.1878504  62.2781405
  80.2134576  44.2262977  62.5852848  81.3164190  43.9045056  60.7788612
  80.8254576  44.7785690  60.3509952  82.3644030  43.8940847  60.4793266
  80.6317583  42.6400623  60.2745123  79.9470086  42.2637454  61.0345151
  79.8499262  42.9716986  59.0043588  80.5341205  43.3476667  58.2436848
  79.3562394  42.0725199  58.6357780  79.1008747  43.7318326  59.2262112
  81.6478914  41.5220080  60.0385268  82.1597793  41.2923551  60.9730479
  81.1321817  40.6315637  59.6790080  82.3770639  41.8440001  59.2950703
  82.0110043  43.1914596  63.1489527  81.4078884  42.6943246  64.0989516
  83.3157675  43.0104977  62.9108418  83.7391339  43.5194270  62.1480501
  84.1671592  42.1057551  63.7054907  84.6529291  42.6738194  64.4988569
  83.5481360  41.3240454  64.1457629  85.2288485  41.4635504  62.8385363
  84.9071540  41.1503214  61.6757895  86.4439290  41.2579179  63.3585371
  86.6551186  41.6207183  64.2771634  87.5157435  40.5543968  62.6183178
  87.7178725  41.0104622  61.6491700  88.7940858  40.5349321  63.4176777
  88.6097796  40.0727741  64.3874927  89.5502951  39.9622850  62.8807205
  89.1476092  41.5556459  63.5634992  86.9891143  39.1455072  62.3361092
  87.2070486  38.6583589  61.2118049  86.3273632  38.5210002  63.3166420
  86.3043649  38.9385746  64.2359907  85.6722297  37.2033701  63.1259064
  85.3189682  36.8341083  64.0886895  84.4842105  37.3020791  62.1765362
  84.8522844  37.6527219  61.2123420  84.0704175  36.2999436  62.0642867
  83.4060563  38.2397179  62.6759180  82.9802154  38.1953159  63.8487518
  82.9287491  39.0882116  61.8985281  86.7040829  36.1946770  62.6023483
  87.7569099  36.0689709  63.2560899  86.4272262  35.4998933  61.4925501
  85.5190096  35.6333501  61.0713243  87.3126717  34.4432949  60.9378328
  88.3457334  34.7872639  60.9885093  87.1975604  33.1163216  61.7098712
  87.9583657  32.4576016  61.2911081  87.4480325  33.3478288  62.7451336
  85.8483047  32.4262321  61.6588182  85.1008547  33.1111033  62.0592815
  85.6178937  32.2069482  60.6162601  85.8169372  30.9042557  62.6012055
  86.8057495  29.8176761  61.5513060  87.8062609  30.2346269  61.4362926
  86.8742377  28.8315437  62.0106021  86.3344753  29.7300318  60.5723677
  87.0434748  34.3129430  59.4401338  86.0364508  34.8857405  59.0207728
  87.9286693  33.6771777  58.6680378  88.8260199  33.4764176  59.0858376
  87.7374684  33.3697715  57.2167975  88.4753446  32.6300623  56.9062041
  86.3315989  32.8100584  56.9358274  85.6212626  33.5446771  57.3151122
  86.2349082  32.7375314  55.8525496  86.0400424  31.4464260  57.5660483
  86.3246371  31.4962169  58.6170609  84.9652347  31.2824552  57.4885813
  86.7783887  30.2961570  56.8945037  86.7436759  29.1528857  57.4172336
  87.3910502  30.5289097  55.8308218  88.0535580  34.5535398  56.2886084
  87.3071708  35.5505065  56.3333454  89.1164651  34.4417161  55.4835209
  89.6984535  33.6353453  55.6600285  89.5585421  35.4186014  54.4514540
  88.7112010  36.0626115  54.2161601  90.7433861  36.3019518  54.8803721
  90.4450123  36.7971430  55.8044165  91.5771202  35.6294021  55.0820263
  91.1729628  37.3530178  53.8545471  91.5343427  36.8274712  52.9706318
  90.2846973  37.9294479  53.5960669  92.2574334  38.2933531  54.3645510
  92.0215040  39.5261570  54.4307987  93.3505121  37.7992657  54.7103640
  89.8451589  34.5619309  53.2182044  90.5620340  33.5646353  53.4100132
  89.3011339  34.9117716  52.0480577  88.7366774  35.7487013  52.0158559
  89.4468380  34.1134466  50.8060680  89.9534055  33.1738337  51.0265585
  88.0747529  33.8006125  50.2124744  87.5076012  34.7138725  50.0324897
  88.2219412  33.2732423  49.2699691  87.2105293  32.9198104  51.0669569
  86.3559668  33.4612074  52.0209245  86.3265324  34.5425833  52.1545646
  85.5429741  32.6395891  52.8017273  84.8863399  33.0825250  53.5505531
  85.5680279  31.2619907  52.6278134  84.9311943  30.6186394  53.2349724
  86.4150560  30.7017492  51.6688338  86.4487189  29.6219200  51.5241418
  87.2227133  31.5359780  50.8923333  87.8778682  31.1080035  50.1335778
  90.3040193  34.8951751  49.8209072  89.7769047  35.8668128  49.2328022
  91.5646079  34.4926012  49.6406559  91.9013721  33.7248648  50.2039232
  92.5163221  35.1587242  48.7190001  92.2110648  36.1974226  48.5924190
  93.9554951  35.1318048  49.2359793  94.2396422  34.1058382  49.4699711
  94.6280628  35.5302986  48.4764034  94.1879069  35.9329405  50.4754111
  94.2197565  37.3128308  50.4568004  94.4360098  37.7588910  51.6814587
  94.4957198  38.8290285  51.8798005  94.5460096  36.7183889  52.4915139
  94.7133178  36.7532374  53.4869501  94.3950823  35.5665410  51.7574871
  94.4547673  34.5954055  52.2488473  92.4374988  34.5196403  47.3289337
  93.4071382  34.7345832  46.5721240  91.3601456  33.7850871  46.9704722
  90.6161910  33.6001128  47.6280552  91.2453901  33.2488216  45.6458830
  92.1935722  32.7901684  45.3653705  90.4598352  32.4932418  45.6357839
  90.9087027  34.3125189  44.6552268  90.4820916  35.3979726  45.0366021
  91.1199145  33.9899555  43.3892871  91.5561226  33.1259157  43.1007443
  90.7553669  34.9323444  42.3828491  90.1442663  35.7230235  42.8181442
  92.0372546  35.5784097  41.7553585  92.6258078  36.0614084  42.5353692
  92.6384248  34.8087081  41.2713608  91.6135302  36.6175600  40.7212743
  91.0091340  36.1072258  39.9713643  91.0036557  37.3614178  41.2339446
  92.7797026  37.3008434  40.0475907  93.4073468  37.8315756  40.7634714
  93.3901446  36.5971431  39.4816703  92.1985413  38.2799999  39.1124174
  91.1912130  38.3046716  39.0432777  92.8965290  39.1302165  38.3961744
  92.2470519  39.9714670  37.5736283  91.2391437  39.9397483  37.5169272
  92.7698078  40.6315886  37.0158959  94.2033015  39.2112212  38.4751541
  94.7066611  38.6037779  39.1058219  94.7000894  39.8806626  37.9049360
  89.9451604  34.1886389  41.3760738  90.4035506  33.1985826  40.8091117
  88.7360479  34.6751152  41.1469150  88.4642001  35.5180517  41.6323594
  87.7646785  34.0433778  40.2615054  88.1927858  33.2284356  39.6778166
  86.5784013  33.4940819  41.0781580  86.2205380  34.2718259  41.7528049
  85.4372460  33.0635770  40.1414916  85.7942475  32.2854691  39.4668082
  84.6068797  32.6779549  40.7330038  85.1006194  33.9217350  39.5598147
  87.0308485  32.4111539  41.9040512  86.2933372  32.0675783  42.4135934
  87.2996082  35.0812045  39.2476640  86.5418584  35.9915461  39.6126399
  87.7217601  34.9264545  37.9776044  88.2331041  34.0909639  37.7314700
  87.5109354  35.9439075  36.9410893  86.6839592  36.5988369  37.2154558
  88.7819709  36.7934188  36.7946372  89.5366526  36.1240552  37.2075624
  88.9523198  36.9164961  35.7250890  88.8749909  38.1456547  37.4807956
  89.8404781  38.6116986  37.2839751  87.7430853  39.0330929  36.8947647
  86.7771962  38.5678965  37.0916135  87.7736678  40.0174100  37.3619747
  87.8828765  39.1376722  35.8188363  88.7983789  38.1235463  38.9967460
  89.6174372  37.5238518  39.3937465  88.8749318  39.1411436  39.3798083
  87.8476801  37.6897460  39.3067269  87.1412610  35.3307945  35.5923168
  87.9059791  34.5571429  35.0091911  85.9941591  35.7374417  35.0694848
  85.4508283  36.4305138  35.5639967  85.4423782  35.1717690  33.8446300
  85.7414393  34.1256520  33.7790488  83.9153451  35.2480448  33.7899220
  83.6004122  35.5260450  32.7841226  83.4878138  34.2795141  34.0492776
  83.3072263  36.2459593  34.7190243  82.4885709  35.8690946  35.7637005
  82.0973070  36.9436673  36.4225594  81.4416151  36.8569830  37.2889617
  82.6322536  38.0062642  35.8406377  82.5088355  38.9671126  36.1263616
  83.3913220  37.5932241  34.7736728  83.9164877  38.3267973  34.1619763
  86.0581242  35.8767331  32.6365293  87.0288396  36.6237513  32.7606598
  85.4905079  35.6815540  31.4498934  84.6044361  35.1986443  31.4077703
  86.1162208  36.0916918  30.1948554  86.9951240  36.7013093  30.4046044
  86.5529883  34.8645612  29.3787784  86.5938269  34.0166180  30.0624625
  85.7934777  34.6815163  28.6186876  87.9015758  35.0406681  28.7122972
  87.9867373  35.7810160  27.7098688  88.8770465  34.4273256  29.1962607
  85.1789489  36.9575030  29.3536560  84.0188268  37.1529235  29.6655429
  85.6823078  37.4125852  28.2219042  86.5369769  37.0124701  27.8619764
  85.0687474  38.5125151  27.4840988  84.6416556  39.2444878  28.1695970
  86.1416978  39.1987254  26.6448523  86.9407042  38.4762393  26.4784137
  85.7023543  39.4806533  25.6879855  86.7054955  40.4251905  27.3200543
  86.5204305  40.5883512  28.5482560  87.3253976  41.2248383  26.6012701
  83.9329271  38.0217064  26.5985499  84.1248458  37.1467471  25.7440228
  82.7626163  38.6302969  26.7743202  82.7258384  39.4134041  27.4111010
  81.5185575  38.1855158  26.1509732  80.7153141  38.8801729  26.3966372
  81.6667318  38.1287013  24.6350397  82.5029313  37.4692503  24.4026734
  80.7470871  37.7041244  24.2324379  81.9086810  39.4874827  24.0142309
  81.1898396  40.4739066  24.2762766  82.8580130  39.6338539  23.2205494
  81.0580156  36.8320865  26.6786230  80.2849206  36.1502808  25.9980533
  81.5328037  36.4319902  27.8746469  82.1648466  37.0298708  28.3876380
  81.1697519  35.1485479  28.4586838  81.0688443  34.4126658  27.6609405
  82.2187986  34.6488094  29.4553926  83.1643366  34.5059614  28.9322753
  82.3468359  35.3957524  30.2388354  81.8103212  33.4229569  30.0346412
  82.4783951  33.1243391  30.6560143  79.8528514  35.2489978  29.1887515
  79.6497081  36.1436122  30.0135853  78.9855529  34.2732969  28.9429568
  79.2493722  33.5541519  28.2846793  77.6377662  34.2362693  29.5061024
  77.3481185  35.2374959  29.8250831  76.5904527  33.6920867  28.4918531
  76.8942054  32.6948268  28.1735650  75.2118248  33.6230420  29.1247749
  74.9071727  34.6200734  29.4429197  74.4962500  33.2398806  28.3972856
  75.2410729  32.9595431  29.9890740  76.5420379  34.5790176  27.2418409
  76.1338765  35.5409119  27.5521060  77.5712078  34.7121469  26.9083960
  75.7007312  34.0145115  26.0900919  74.6712588  33.8815371  26.4226642
  75.7236743  34.7075236  25.2490764  76.1085892  33.0527704  25.7789557
  77.7014913  33.4109308  30.7800512  78.0661302  32.2341945  30.7293055
  77.4143913  34.0415542  31.9124172  77.2338778  35.0352700  31.9058392
  77.4378706  33.3565545  33.1878853  77.7519045  32.3219471  33.0497933
  78.4227175  34.0440366  34.1353425  78.1256049  35.0890235  34.2238046
  78.3415954  33.5601336  35.1086653  79.8538779  33.9663036  33.6516944
  79.8560341  34.2994091  32.6138424  80.5089301  34.6086412  34.2402614
  80.3873474  32.5517239  33.7064984  81.2405438  32.2118026  34.5711085
  79.9363543  31.7153823  32.7426691  80.2531328  30.7565770  32.7215722
  79.2850609  32.0538501  32.0488694  76.0433292  33.2617653  33.8198175
  75.0380630  33.8031525  33.2950416  75.9812262  32.4634176  34.9023041
  76.7903960  31.9110023  35.1476220  74.7802262  32.3359068  35.7246647
  74.0691241  33.1364136  35.5206502  74.0544593  30.9932325  35.6003950
  73.3503295  30.8723101  36.4236071  73.2913268  30.9746804  34.2674364
  73.9948950  31.0950964  33.4436689  72.7675047  30.0247134  34.1612594
  72.5692863  31.7910508  34.2501585  75.0457881  29.8646189  35.7590412
  75.5188872  29.9309164  36.7387779  74.5274378  28.9098741  35.6703004
  75.8074095  29.9374947  34.9826890  75.1752292  32.5384065  37.1703972
  75.9638161  31.7572135  37.7495535  74.5862731  33.5631913  37.7653501
  73.7603422  33.9440884  37.3261978  75.0777721  34.1986015  38.9790353
  75.7166160  33.5275512  39.5532035  75.8530389  35.4837335  38.6462769
  75.1578794  36.2689336  38.3490993  76.6296172  35.9328941  39.8996460
  77.3253586  35.1483423  40.1971742  77.1843090  36.8443486  39.6767821
  75.9291419  36.1240765  40.7125930  76.7768763  35.2411114  37.4384756
  76.2409050  34.5645407  36.7728273  76.9029878  36.2069881  36.9493156
  78.1774695  34.6406959  37.7718744  78.0521711  33.6745295  38.2606715
  78.7460531  34.5104397  36.8510893  78.7142532  35.3169764  38.4371621
  73.7922341  34.4207290  39.7539467  72.8135788  34.9643175  39.1936600
  73.7280074  33.9976328  41.0083396  74.5702198  33.1146773  41.7667937
  75.5923380  33.4847235  41.6865406  74.5055072  32.1261295  41.3121678
  74.0571877  33.1298095  43.1890395  74.5230911  33.9324328  43.7607290
  74.2491735  32.1758408  43.6801468  72.5508386  33.3646862  43.0188890
  72.1236279  33.8814556  43.8782722  71.9750101  32.4618611  42.8153502
  72.5299508  34.2778769  41.8041428  71.6437005  34.0221436  41.2234026
  72.4863010  35.7462915  42.1699437  73.5162175  36.3810781  42.3994037
  71.2682230  36.2772156  42.2089361  70.5012913  35.7346458  41.8380814
  70.9882204  37.6101989  42.7129858  71.8617193  38.2594174  42.7731033
  69.9210915  38.3021165  41.8538933  68.9887979  37.7461151  41.9528394
  69.6997292  39.7361108  42.2784693  70.6315373  40.2928966  42.1793521
  68.9370748  40.1894564  41.6452739  69.3707503  39.7613390  43.3173332
  70.3418887  38.1428665  40.3942872  70.4042911  37.0830854  40.1471597
  69.6062930  38.6231721  39.7490701  71.3158112  38.6085308  40.2435137
  70.5381884  37.4666681  44.1596248  69.6995615  36.5794406  44.4908018
  71.1249694  38.3200741  45.0333405  71.8886096  38.9037338  44.7230271
  70.6572909  38.4575083  46.4441285  70.3865407  37.4793653  46.8416580
  71.7486697  39.0412712  47.3035726  72.0336642  39.9869492  46.8425189
  71.3179262  39.2321108  48.2864970  72.9879466  38.1523677  47.4531733
  73.3433749  37.8823801  46.4587497  74.0757314  38.8570694  48.1961060
  73.7211777  39.1269821  49.1908610  74.9405329  38.1995862  48.2851844
  74.3602804  39.7595360  47.6551011  72.5875331  36.8609755  48.2294130
  71.8151614  36.3279334  47.6749696  73.4611232  36.2190499  48.3428735
  72.2059658  37.1317783  49.2138780  69.4835450  39.3971057  46.4926485
  69.6213782  40.5861131  46.1513225  68.3435456  38.9744837  46.9974902
  68.1351904  37.7876707  47.6881796  68.9030750  37.6988113  48.4566569
  68.2285578  36.9603992  46.9846149  66.7432616  37.8968032  48.2681394
  66.7687961  38.3656520  49.2518202  66.2782811  36.9140810  48.3465707
  66.0033276  38.7729784  47.2489419  65.1469034  39.3521640  47.5941676
  65.6993010  38.1354702  46.4187306  67.1150892  39.7097510  46.8035294
  67.0241369  39.8260070  45.7235708  66.9756571  41.0738583  47.4750552
  66.0336211  41.8273411  47.1447694  67.7693171  41.3829063  48.4629875
  68.5427916  40.8047982  48.7590069  67.4889842  42.5978445  49.2138454
  66.4976755  42.9703539  48.9556923  67.5311650  42.3203856  50.7241938
  68.5243110  41.9386876  50.9609781  67.3752600  43.2692339  51.2374974
  66.4686697  41.3068026  51.1862192  65.4749033  41.6815288  50.9410468
  66.6435157  40.3695261  50.6579734  66.5327275  41.0388531  52.6925716
  65.6938559  41.5389891  53.4510697  67.5066999  40.2394051  53.1321107
  67.5835292  40.0375701  54.1187521  68.1625404  39.8398535  52.4761129
  68.4713884  43.7076904  48.8612407  68.2905123  44.8616573  49.2937846
  69.5723516  43.3818250  48.1640508  69.7508783  42.4145928  47.9345091
  70.6087449  44.3979276  47.8066120  70.8046557  45.1076073  48.6103985
  71.9511811  43.7735384  47.3606598  72.6801303  44.5765926  47.2518653
  72.4686160  42.7512225  48.3637611  71.7403593  41.9475653  48.4727483
  73.4132725  42.3391595  48.0088968  72.6231025  43.2341670  49.3286446
  71.9159024  43.1672330  45.9596647  71.6635503  43.9409871  45.2345956
  72.8936033  42.7496522  45.7191927  71.1653309  42.3776444  45.9237062
  69.9805947  45.2991741  46.7395938  69.4171279  44.7279689  45.7879475
  69.9768198  46.6263188  46.9299587  70.2980750  46.9884745  47.8163771
  69.4418448  47.5585135  45.9614625  69.2815195  47.0435693  45.0142416
  68.1214181  48.1401441  46.4261574  67.7389980  48.7702705  45.6231662
  67.4363774  47.3087935  46.5925167  68.2379195  48.9395466  47.6677777
  68.9387111  48.4146560  48.3169940  68.6588061  49.9042012  47.3842320
  66.7263711  49.1996826  48.5367826  66.9610119  47.9352904  49.7211450
  67.8696987  48.1333232  50.2896257  66.1076771  47.9085937  50.3987936
  67.0521603  46.9745170  49.2144817  70.4466910  48.6554047  45.6425851
  70.0624356  49.7042791  45.1375147  71.7433950  48.3479802  45.8146636
  71.9854015  47.4027151  46.0754435  72.8412008  49.3335204  45.6406326
  72.4432381  50.3476577  45.6052703  73.8011839  49.2250966  46.8314612
  73.2197635  49.4403798  47.7279558  74.1500389  48.1929568  46.8644409
  74.9989221  50.1636067  46.7660382  75.4989643  50.0089965  45.8099240
  74.6304250  51.1879400  46.8212935  76.1819162  49.8830500  48.1090061
  77.5028801  49.0580081  47.2209041  77.8792708  49.7144676  46.4363724
  78.3110781  48.8177463  47.9116942  77.1225329  48.1394976  46.7739413
  73.6358741  49.0899525  44.3528205  74.1144827  47.9571827  44.1853107
  73.7856504  50.1016964  43.4906278  73.2397172  50.9387833  43.6367163
  74.6640008  50.0425897  42.3256171  74.4320711  49.1725739  41.7113042
  74.5145771  51.3210982  41.4812294  74.5410549  52.1752160  42.1578992
  75.6337832  51.4674834  40.4221505  75.6076409  50.6139040  39.7447884
  75.4802125  52.3855573  39.8550023  76.6027894  51.5062220  40.9197705
  73.1676530  51.3695339  40.7622325  73.2417720  50.6863045  39.9161801
  72.4250909  50.9951900  41.4669080  72.7450583  52.7554014  40.2636274
  73.4869529  53.1302254  39.5585038  71.7769025  52.6841319  39.7679519
  72.6702741  53.4391118  41.1092321  76.0960643  49.8647065  42.7997780
  76.6089069  50.6416932  43.6128704  76.7771579  48.8928065  42.2182372
  76.2792542  48.4120366  41.4826751  78.1369034  48.4756868  42.5164494
  78.5569045  49.1186435  43.2899511  78.1626528  47.0271609  43.0163973
  77.4188663  46.9967877  43.8126123  77.8641442  46.3512350  42.2150754
  79.5114694  46.5950542  43.5669603  80.2913055  46.8448803  42.8475554
  79.7867976  47.3125200  44.8842800  79.0075762  47.0627999  45.6043860
  80.7551229  46.9986592  45.2740727  79.7947535  48.3896133  44.7172258
  79.5554356  45.0740273  43.7350984  79.3969854  44.5963505  42.7682386
  80.5276813  44.7795949  44.1302554  78.7729876  44.7616423  44.4266833
  79.0013814  48.5494401  41.2588278  78.5128726  48.4820475  40.1402110
  80.3107333  48.5971411  41.4553583  80.6477459  48.2866399  42.3554199
  81.2905600  49.0545118  40.4668657  81.0211163  48.8497585  39.4307309
  81.5679614  50.5735901  40.6160557  81.6758423  50.7937222  41.6781304
  82.8190288  51.0068859  39.8815687  82.7117023  50.7874818  38.8192864
  82.9682160  52.0780321  40.0175449  83.6791172  50.4675227  40.2783520
  80.3350623  51.3505228  40.2028798  79.4968496  51.0686179  40.8400856
  80.5263915  52.4185891  40.3064518  80.0934807  51.1242385  39.1643546
  82.5528115  48.2519389  40.7547458  82.9655339  48.1220088  41.9430848
  83.2571661  47.7002742  39.7347769  83.0748106  47.8755881  38.3227923
  83.3520216  48.8964910  38.0600918  82.0237863  47.7122914  38.0845045
  83.9782498  46.8451953  37.6822001  84.2668113  47.1539560  36.6774623
  83.4857402  45.8739127  37.6358762  85.1879472  46.8011372  38.6235497
  85.9124898  47.5979523  38.4555533  85.6951530  45.8368678  38.5915124
  84.5165055  46.9895098  39.9749422  84.2710316  45.9973450  40.3536900
  85.4296792  47.7102889  40.9813677  85.7378496  48.8630370  40.7328021
  85.8393671  47.0432918  42.0684697  85.5230276  46.0902981  42.1772423
  86.7204095  47.6133570  43.1116500  87.3156798  46.8018996  43.5303256
  87.3799985  48.3391355  42.6359534  85.9573852  48.2999793  44.2369343
  86.6351153  48.8093686  45.1502702  84.6185476  48.3042500  44.2073604
  84.1632829  47.9067392  43.3981517  83.7691702  48.9355155  45.2571808
  84.3452123  49.6934844  45.7879894  82.5382965  49.6036884  44.6325618
  82.8970533  50.2991372  43.8737840  81.9501277  48.8191014  44.1565569
  81.6692299  50.3514500  45.6361004  81.2640333  49.6338674  46.3495369
  82.2999380  51.0686615  46.1613784  80.5216301  51.0960395  44.9958300
  80.3671239  51.1211338  43.7769813  79.6917406  51.7107425  45.8236371
  78.9048007  52.2254872  45.4550385  79.8492320  51.6622307  46.8201031
  83.4030918  47.8568534  46.2799362  82.8760890  46.8382325  45.8721085
  83.6409853  48.0726353  47.5723189  83.9978634  48.9757773  47.8499370
  83.4247111  47.0585384  48.6141542  83.7215894  46.0822442  48.2309937
  84.2485080  47.3622306  49.8762053  83.9921368  48.3662854  50.2142113
  83.9737974  46.3509307  51.0119308  84.2303862  45.3466365  50.6748033
  84.5787538  46.6073225  51.8816378  82.9182086  46.3844990  51.2815713
  85.6505976  47.3076946  49.5778942  86.1544501  47.4987202  50.3724016
  81.9443182  46.9913366  49.0106411  81.2220083  47.9987220  49.0105369
  81.4871672  45.7892777  49.3575134  82.0165953  44.9334254  49.2719448
  80.1017685  45.7044779  49.8190266  79.7546991  46.6790432  50.1623404
  79.2146389  45.2501901  48.6639333  79.1466377  46.1585600  48.0653189
  79.8061157  44.5068592  48.1294107  77.8128193  44.7002059  48.9145250
  77.8703440  43.9109789  49.6641332  76.8949004  45.7951208  49.4059151
  76.8365026  46.5845479  48.6565866  75.8999184  45.3852200  49.5793883
  77.2851387  46.2066070  50.3367715  77.2009569  44.0562036  47.6650793
  77.8308330  43.2296387  47.3362238  76.2044233  43.6819720  47.8995421
  77.1319602  44.7984612  46.8698484  79.9714487  44.7753592  51.0158960
  80.3094973  43.5939092  50.8969466  79.5224703  45.2922728  52.2133962
  80.0085791  46.5586154  52.6437549  79.4343258  47.3259326  52.1245653
  81.0557158  46.6274750  52.3490313  79.8271966  46.6130007  54.1435231
  78.8405338  46.9984249  54.4005128  80.5921878  47.2387609  54.6032120
  79.9861379  45.1491605  54.5734538  79.4390440  44.9060034  55.4843116
  81.0287769  44.8520228  54.6862050  79.3657786  44.4254353  53.3893232
  79.9472830  43.5181046  53.2259167  77.9086985  44.0567709  53.6312307
  77.0118357  44.9090990  53.5044515  77.6639545  42.8132427  54.0230201
  78.3817725  42.1200969  54.1791786  76.2785396  42.4275981  54.2262264
  75.6498021  43.3150921  54.2979390  75.7882220  41.5681955  53.0325171
  76.4093841  40.6742774  52.9762380  74.7566115  41.2809473  53.2359088
  75.8546378  42.3156144  51.7090520  76.7228319  42.9731636  51.6646791
  75.9771202  41.2644049  50.6690676  75.1090030  40.6066942  50.7125193
  76.0303433  41.7304362  49.6851556  76.8821193  40.6827567  50.8444599
  74.6284945  43.1321473  51.4666397  74.5152548  43.8646375  52.2658482
  74.7184227  43.6487632  50.5110654  73.7553312  42.4800359  51.4457702
  76.0325451  41.6252495  55.4828765  76.8486917  40.7627798  55.8365654
  74.8524556  41.8618159  56.1054358  74.3279040  42.6833574  55.8408332
  74.3243875  41.0133384  57.1997758  75.0460642  40.2343272  57.4455875
  74.0706817  41.8510332  58.4439241  74.2388999  42.8862241  58.1469699
  73.0180680  41.7105382  58.6896180  74.8936333  41.5394927  59.6204007
  74.7508993  40.5164596  59.9684395  75.9307084  41.6772860  59.3144753
  74.5947601  42.4925679  60.7729724  75.1267774  43.6269295  60.8115104
  73.6832681  42.0810632  61.6834158  73.4507842  42.6764957  62.4654087
  73.2391613  41.1801771  61.5772330  73.0393141  40.2961986  56.7395347
  71.9497494  40.8860681  56.6849388  73.1658527  39.0099730  56.4420171
  74.0776407  38.5761015  56.4643236  72.0262597  38.2028797  56.0218860
  71.2547989  38.8398476  55.5891976  72.4665284  37.1945023  54.9750261
  73.1074368  36.4565210  55.4574360  71.6057178  36.6933986  54.5323071
  73.2521331  37.9137269  53.8839453  73.7831006  38.7661975  54.3075822
  74.2332414  36.9584981  53.3008934  73.7029548  36.1059215  52.8766196
  74.8047440  37.4566226  52.5177220  74.9115991  36.6123561  54.0807118
  72.3300316  38.4314773  52.8307965  71.6235710  39.1310161  53.2776280
  72.9077965  38.9418461  52.0602041  71.7843268  37.6002385  52.3843134
  71.4126248  37.5130330  57.2322242  72.0302239  36.6353306  57.8412989
  70.1895413  37.9190086  57.5605863  69.7950462  38.6436601  56.9780460
  69.4087538  37.4393507  58.6848274  70.0516499  36.9944654  59.4443410
  68.6690235  38.6474627  59.3087668  68.6566190  39.5043233  58.6351681
  67.6455542  38.3411554  59.5250686  69.2618848  39.1324011  60.6162010
  70.5117629  39.7085701  60.6533907  71.0859264  39.8150854  59.7330154
  71.0396385  40.1517290  61.8534689  72.0314037  40.6038150  61.8644545
  70.3139964  40.0245987  63.0462100  70.7479803  40.3567625  63.9893033
  69.0611212  39.4833219  63.0245945  68.4720452  39.3857036  63.9364938
  68.5376595  39.0516118  61.8073570  67.5316149  38.6343627  61.7640271
  68.3968577  36.3558940  58.2836133  67.5934306  35.9556544  59.1165450
  68.2361191  36.0457078  56.9877766  68.8974944  36.4139298  56.3191253
  67.1052234  35.2079250  56.4794156  66.3573052  35.0608454  57.2585723
  66.4478205  35.9243673  55.3004526  65.9056236  36.7934072  55.6731340
  67.2068313  36.2482397  54.5883365  65.4649839  35.1047172  54.5334630
  64.3647772  34.5144650  55.1255150  63.6786845  33.8555075  54.2178737
  62.7736113  33.3113091  54.4876688  64.2907913  34.0044502  53.0465554
  63.9953276  33.6123309  52.1639210  65.3987233  34.7826698  53.2263911
  66.0362022  35.0279160  52.3769347  67.5251427  33.8151208  56.0334500
  68.2041891  33.7979294  55.0892629  66.9860755  32.6712625  56.5260599
  65.8341181  32.6028623  57.2643387  64.9857685  32.8091288  56.6117612
  65.8766992  33.3545100  58.0525719  65.8162698  31.1935120  57.8120204
  64.7959389  30.8716393  58.0203999  66.4115788  31.1244770  58.7224833
  66.4444535  30.3674426  56.6834923  65.8368425  29.9988845  55.8570101
  66.9262311  29.5267387  57.1826985  67.4965593  31.3326680  56.1611213
  68.3762588  31.2238591  56.7954616  67.8636505  30.9705844  54.7080860
  68.8734194  30.3531778  54.5310608  67.0291283  31.3017166  53.7243457
  66.1460035  31.7386955  53.9462455  67.3383527  31.0195374  52.2933041
  67.5729206  29.9613507  52.1779006  66.1571737  31.3595226  51.3859816
  65.2800176  31.4751275  52.0226384  66.3815366  32.3097510  50.9013917
  65.8788779  30.3037646  50.3267057  66.8295043  29.9783478  49.9041963
  65.3726685  29.4515535  50.7801266  65.0149474  30.8408354  49.2128291
  64.9344110  32.0457184  48.9890434  64.3455754  29.9442292  48.5113733
  63.7501004  30.2432766  47.7523729  64.4322128  28.9636054  48.7371438
  68.5579859  31.8098007  51.8197885  69.3828383  31.2349775  51.1036023
  68.6455680  33.0875778  52.1891247  67.9156866  33.5087400  52.7458965
  69.8234415  33.9140863  51.8332503  69.9455635  33.9264115  50.7501835
  69.6541378  35.3513943  52.3217397  69.2408615  35.2928376  53.3286523
  70.6524401  35.7869419  52.3640584  68.7629998  36.2175112  51.4613162
  69.1812168  36.2623553  50.4557395  67.7821248  35.7434849  51.4255075
  68.6249135  37.6237521  52.0144995  68.5550835  37.7625546  53.2480483
  68.6038588  38.5754240  51.2129871  71.0230650  33.2974841  52.5433905
  72.0761057  33.1792752  51.9225959  70.8398466  32.9142216  53.8049423
  69.9717639  33.0799324  54.2938920  71.9509363  32.3187648  54.5469205
  72.8412401  32.9311743  54.4040462  71.6428720  32.2447378  56.0465539
  70.7254084  31.6727721  56.1851720  72.7668727  31.5827248  56.8036841
  73.6846346  32.1544180  56.6659128  72.5185530  31.5452192  57.8643590
  72.9108824  30.5694303  56.4287215  71.4558095  33.6337195  56.6418852
  70.6269712  34.1351533  56.1421919  71.2386661  33.5470495  57.7065151
  72.3676973  34.2146389  56.5037043  72.3019257  30.9326660  53.9830325
  73.4377226  30.4807839  54.1486376  71.4599812  30.3190861  53.1612112
  70.5230898  30.6496692  52.9794182  71.8869783  29.0320384  52.5442034
  72.5544993  28.5101562  53.2298810  70.7099491  28.1391527  52.2447379
  69.9381707  28.7323984  51.7543128  71.0370306  27.3441031  51.5746529
  70.1844749  27.5694944  53.4327056  69.4378824  27.0067665  53.2146763
  72.7097855  29.2884862  51.2772401  73.7776167  28.6795046  51.1498515
  72.2206717  30.1493864  50.3851563  71.3616909  30.6301241  50.6113035
  72.8782626  30.4537058  49.0856068  72.9499848  29.5626622  48.4619110
  72.0179523  31.4874095  48.3625854  71.1450972  30.9489345  47.9934404
  71.7070930  32.2055700  49.1213423  72.6770137  32.2167378  47.2216275
  73.6220639  32.6515448  47.5470872  72.8585508  31.5339100  46.3916320
  71.5742708  33.5362257  46.6740109  70.3129684  33.4655071  47.9445258
  70.7665085  33.6508861  48.9181966  69.5548543  34.2234147  47.7471945
  69.8491116  32.4791335  47.9422283  74.2675615  31.0302004  49.3238008
  75.2101352  30.6190189  48.6467825  74.3742598  31.9399332  50.2770582
  73.5519927  32.2820544  50.7534292  75.6817837  32.5696346  50.5895682
  76.2295974  32.8829367  49.7008381  75.4912653  33.7900861  51.5049161
  74.9253868  33.4685915  52.3792856  76.8108782  34.3961491  51.9509816
  77.3771553  34.7183245  51.0771200  76.6179880  35.2542129  52.5948918
  77.3857031  33.6513953  52.5014539  74.6249027  34.8324761  50.8209833
  73.6492073  34.4027036  50.5942324  74.4988056  35.6906844  51.4810421
  75.1037987  35.1534945  49.8959391  76.6139009  31.5080980  51.1750138
  77.8183716  31.5627849  50.8928000  76.0671666  30.5428628  51.9115826
  75.0945723  30.5501083  52.1838089  76.9436972  29.4353816  52.4277157
  77.8386653  29.8622703  52.8803715  76.2132136  28.5946334  53.4838298
  75.4807837  29.2457365  53.9610200  75.6965698  27.7939756  52.9545601
  77.1245281  27.9958058  54.5429900  77.6871644  27.1740823  54.0999192
  77.8160323  28.7644183  54.8881839  76.3169280  27.4795940  55.7164846
  75.4355298  26.9644257  55.3345972  76.9307009  26.7781898  56.2816521
  75.8820959  28.5502666  56.6135254  76.3687420  29.4287831  56.5063631
  74.9141918  28.4645885  57.5335454  74.2338916  27.3438398  57.7226010
  74.4435342  26.5290658  57.1637689  73.5086711  27.3092360  58.4247103
  74.6321538  29.5201546  58.2794413  75.1474948  30.3789668  58.1491905
  73.9027927  29.4623495  58.9757097  77.4318663  28.5490341  51.2678281
  78.6458431  28.2966753  51.2093789  76.5345673  28.0138279  50.4330671
  75.5682048  28.0437655  50.7252084  76.8692767  27.2750544  49.2083871
  77.5294331  26.4328953  49.4158982  75.5436987  26.7329146  48.6372886
  74.9757721  26.2816329  49.4508631  74.9900944  27.5815426  48.2354766
  75.7156162  25.7116185  47.5469916  76.6809219  24.9378087  47.4943371
  74.7433648  25.6901175  46.6462304  74.7829820  25.0327074  45.8805006
  73.9674290  26.3312438  46.7297853  77.6910563  28.1182959  48.2361052
  78.3298653  27.5402224  47.3545066  77.7653501  29.4474692  48.3864805
  77.1954485  29.9653843  49.0399907  78.6776040  30.1926068  47.5201562
  78.5821578  29.8349975  46.4949222  78.3611953  31.6692698  47.5476887
  77.9089708  31.8218555  48.5276427  79.3152982  32.1943983  47.5026600
  77.4293231  32.2136958  46.4669910  76.4042546  31.8724427  46.6114962
  77.4866316  33.7449087  46.6202883  78.5113798  34.0869780  46.4754488
  76.8403530  34.2095712  45.8756317  77.1487845  34.0235456  47.6184472
  77.7539301  31.8291151  45.0576589  77.7238397  30.7438696  44.9605191
  77.0238688  32.2742703  44.3816792  78.7508524  32.1886894  44.8028033
  80.1369481  29.9693760  47.9218923  80.9761535  29.6278798  47.0700170
  80.4170764  30.0929634  49.2328596  79.6977296  30.4498596  49.8454480
  81.7878291  29.8979856  49.7896386  82.5009700  30.5899531  49.3416317
  81.8307414  30.0395043  51.3333225  80.8314682  29.8323575  51.7162635
  82.8294600  29.0903968  51.9821238  83.8291039  29.2972596  51.5999975
  82.8174836  29.2326730  53.0627323  82.5576399  28.0609717  51.7486783
  82.1223078  31.4852118  51.7588349  82.2044683  31.4800006  52.8457219
  83.0857567  31.7503200  51.3234231  81.0849113  32.4972032  51.3379692
  80.1212244  32.2330004  51.7734048  81.3806457  33.4872650  51.6849822
  81.0025112  32.5033180  50.2511055  82.3296854  28.5760395  49.2379258
  83.5181383  28.5371747  48.8913884  81.4788797  27.5697353  49.0774155
  80.5280923  27.6792398  49.4000786  81.8856988  26.2576642  48.5233734
  82.8255906  25.9445246  48.9779568  80.8251430  25.1913691  48.8087644
  79.9323672  25.4947501  48.2619459  81.2079451  24.2604451  48.3905023
  80.4732241  24.9811487  50.2822421  80.3218869  25.9682400  50.7191043
  79.5487467  24.4079250  50.3519426  81.5465090  24.2642485  51.0687883
  81.4354373  23.0778941  51.3664934  82.5888029  24.9884279  51.4383508
  83.3358282  24.5601198  51.9661831  82.6333349  25.9667035  51.1911765
  82.1701854  26.3870688  47.0141789  83.1560112  25.7759910  46.5957564
  81.3716265  27.1371431  46.2368051  80.5220965  27.4843143  46.6585517
  81.5490472  27.3015271  44.7612310  82.0886121  26.4527644  44.3410277
  80.1639853  27.3753019  44.1054515  79.5386454  26.5900270  44.5301778
  79.7277731  28.3483697  44.3311902  80.2055333  27.2004320  42.5997037
  80.2962178  26.0797845  42.1080306  80.1395241  28.2943193  41.8629824
  80.1639448  28.2233744  40.8557732  80.0649194  29.1968784  42.3101089
  82.5352261  28.4356489  44.3974715  83.7376012  28.1899103  44.6180879
  82.1097336  29.6158533  43.8895780  81.1093429  29.7437495  43.8351685
  82.9969450  30.6984763  43.3436775  84.0364389  30.3706509  43.3527358
  82.5965628  31.0232001  41.8944092  83.2877130  31.8096950  41.5913641
  82.7968683  30.1214173  41.3158199  81.1670648  31.4799043  41.6426044
  80.3168712  31.3511756  42.5435487  80.9077330  31.9505094  40.5164095
  82.9978975  31.9919962  44.1791076  83.8224985  32.8626877  43.8276369
  82.1463756  32.1433008  45.2031439  81.5123062  31.3661808  45.3220548
  82.0121120  33.2868333  46.0952782  81.2604851  33.0582535  46.8508624
  83.3266192  33.6319457  46.8013123  84.1290818  33.3481843  46.1204067
  83.3317839  34.7133904  46.9375131  83.5398120  32.9443198  48.1582108
  83.2000495  33.5996453  48.9602150  82.9780280  32.0107807  48.1899214
  85.0433528  32.6460550  48.3400684  85.2177493  32.3547352  49.3758375
  85.3172362  31.8225853  47.6805345  85.8927857  33.8018055  48.0271297
  85.8841991  34.5514949  48.7038803  86.6551114  33.9359156  46.9349649
  86.7300832  32.9840934  46.0075233  86.2010106  32.1311090  46.1197721
  87.3157007  33.1192132  45.1958001  87.3682782  35.0527415  46.7691126
  87.3265989  35.7829881  47.4656059  87.9460618  35.1620431  45.9479440
  81.5132921  34.5309065  45.3627007  81.6438710  35.6664607  45.8747287
  80.9116039  34.3331072  44.2040154  80.6838742  33.3867837  43.9343667
  80.5912621  35.4046595  43.2847533  80.7975065  36.3955557  43.6893358
  81.3978388  35.2252651  41.9923518  81.0892251  34.3122095  41.4832473
  81.1343688  36.4166844  41.0953722  81.4431815  37.3301325  41.6036505
  81.6998533  36.3075085  40.1699496  80.0701684  36.4711540  40.8660009
  82.7790269  35.0660866  42.3483610  83.3035234  34.9519950  41.5524421
  79.1121605  35.4217990  42.9761034  78.5611889  34.4224823  42.4980058
  78.4878608  36.5658250  43.2251324  78.9880848  37.3221952  43.6698563
  77.1016045  36.7690541  42.8868953  76.7559059  35.9351975  42.2759331
  76.2294284  36.8575827  44.1239423  75.2046548  37.1409801  43.8838917
  76.2305900  35.8877499  44.6214591  76.7231961  37.8482852  45.1204678
  77.8732765  37.6381265  45.8374040  78.4338720  36.7171700  45.6771797
  78.3398187  38.6034725  46.7824434  79.2651784  38.4264356  47.3305929
  77.6197127  39.7582222  47.0006964  77.9494951  40.5092551  47.7185357
  76.4573464  39.9518182  46.2856921  75.8483980  40.8346753  46.4802310
  76.0546804  39.0200445  45.3105409  75.1874283  39.2275424  44.6837089
  76.9892250  38.0542026  42.1057107  77.9608272  38.7942902  41.9674519
  75.7655615  38.3244374  41.6346473  75.0106977  37.7106904  41.9059305
  75.4681498  39.4262382  40.7369779  76.4074480  39.7896688  40.3201610
  74.5514029  38.9803685  39.5744048  73.6032315  38.6223113  39.9754859
  74.3685922  39.8253567  38.9105709  75.0352091  38.1786769  39.0164431
  74.7932929  40.5740166  41.4668997  73.7671565  40.3627110  42.1129987
  75.2922411  41.8051254  41.2735921  76.1627295  41.9233718  40.7752276
  74.6644641  42.9814456  41.8529588  73.8205466  42.6909643  42.4786768
  75.6292846  43.8280202  42.6932456  76.3975724  44.2535167  42.0476561
  74.8275534  44.9950344  43.3977135  74.0593335  44.5702797  44.0438735
  75.5117822  45.5974922  43.9951882  74.3581679  45.6228329  42.6403180
  76.3208855  42.9924642  43.6896397  76.8879013  42.2131796  43.1804142
  77.0004029  43.6117640  44.2751511  75.5869090  42.5331995  44.3517993
  74.0263907  43.8018060  40.7478361  74.7107450  44.4657039  39.9625171
  72.7104510  43.7798345  40.7336255  72.2172767  43.2878444  41.4649423
  71.9445972  44.4054349  39.7027036  72.3549572  44.1531860  38.7249131
  70.5020594  43.9211974  39.7647100  70.2649688  44.1520684  40.8032599
  69.9017061  44.5498775  39.1071105  70.1912423  42.4494247  39.4860922
  70.8397566  41.8632507  40.1371914  68.7598844  42.0505474  39.7143414
  68.1107587  42.6360101  39.0632131  68.6374360  40.9907534  39.4908601
  68.4921623  42.2352585  40.7546812  70.6376854  42.1114192  38.0748365
  71.7095400  42.2856904  37.9807270  70.4206666  41.0639307  37.8656190
  70.1038134  42.7416332  37.3635630  71.9888122  45.9086069  39.8522230
  71.8451709  46.4358490  40.9609055  72.0770105  46.6048582  38.7001709
  72.2759088  46.1180999  37.8378455  71.9756472  48.0573725  38.6656203
  72.2009563  48.4329978  39.6637388  72.9809401  48.6539231  37.6807901
  72.7626191  48.2941727  36.6752974  72.9084680  49.7413276  37.7007778
  73.9896345  48.3522786  37.9630053  70.5633797  48.4978534  38.3283993
  70.2438801  48.9491062  37.2261489  69.7376144  48.5160283  39.3418007
  70.0444244  48.3980526  40.2968131  68.3181444  48.6954956  39.0917578
  67.9932026  47.9865911  38.3302024  67.4943197  48.4630864  40.3590545
  67.8700287  49.1965834  41.0724437  66.4564156  48.6913264  40.1166466
  67.5757867  47.1082330  40.9547730  66.8914593  46.0082886  40.3845000
  66.3039047  46.1667456  39.4801934  66.9585391  44.7472736  40.9550913
  66.4540025  43.9049026  40.4818518  67.6817863  44.5552036  42.1335329
  67.7489531  43.3004874  42.7571272  67.2556685  42.6224144  42.2897013
  68.3646848  45.6615234  42.7286718  68.9244828  45.5277495  43.6543236
  68.3122971  46.9220658  42.1170205  68.8515984  47.7626008  42.5537756
  68.0121541  50.0895274  38.5852935  68.3869386  51.0786201  39.2088680
  67.2174000  50.1467415  37.5237820  67.0249784  49.2951368  37.0159999
  66.6650688  51.3909593  37.0163567  67.3970974  52.1951769  37.0902982
  66.2946605  51.2002506  35.5423917  65.6231876  50.3470130  35.4464276
  65.7956239  52.0976100  35.1765931  67.4702732  50.9664363  34.7767472
  67.2329190  50.8476134  33.8541726  65.4637560  51.8495466  37.8348556
  65.4203037  53.0050520  38.2699155  64.4704060  50.9711171  38.0313428
  64.5224583  50.0463838  37.6285298  63.2581540  51.3423112  38.7619112
  63.1743145  52.4283140  38.8027533  62.0078010  50.7793823  38.0716951
  62.1014437  50.8847963  36.9908536  61.9325720  49.7226192  38.3280004
  60.7307599  51.4820363  38.5211252  59.6434627  50.9184844  38.4303233
  60.8633279  52.7004600  39.0300374  60.0463038  53.2059126  39.3416285
  61.7806362  53.1167061  39.1034234  63.2739630  50.8982705  40.2199523
  62.6967933  51.5960208  41.0531352  63.9292488  49.7733649  40.5374171
  64.2705668  49.2702404  39.7309017  64.1291925  49.1689553  41.8826745
  64.7448991  48.2765642  41.7702342  64.8113504  50.1136356  42.8881525
  64.2442807  51.0427765  42.9449715  64.8659026  49.4837255  44.2336035
  65.4332483  48.5546982  44.1776740  65.3509459  50.1634413  44.9341890
  63.8535669  49.2705194  44.5768544  66.2025615  50.4294388  42.4563820
  66.1795213  50.9130247  41.4797982  66.6656218  51.0984616  43.1816980
  66.7813720  49.5081014  42.3914466  62.8428379  48.6528454  42.5176897
  62.8181498  47.5235359  43.0121606  61.8062115  49.4947564  42.6074599
  61.9246811  50.4725822  42.3840297  60.4940108  49.0372666  43.0102431
  60.5646682  48.5886728  44.0011369  59.4792694  50.1706833  43.0606753
  58.7967844  50.0023856  43.8937355  60.0047098  51.1143883  43.2070764
  58.6831399  50.2271545  41.7516269  59.3567764  50.5568950  40.9606870
  58.3066576  49.2317452  41.5159930  57.5084055  51.1866144  41.8197302
  57.6611793  52.3476410  42.2155879  56.3285743  50.7006103  41.4491628
  55.5112758  51.2934937  41.4739401  56.2544790  49.7405389  41.1444101
  59.9289015  48.0142472  42.0625028  58.8769375  47.4565553  42.3827912
  60.5668117  47.7861496  40.9114789  61.3575323  48.3572088  40.6492735
  60.1170984  46.7547077  39.9783607  59.4293309  46.0838186  40.4931256
  59.4041238  47.3507374  38.7724235  60.1488452  47.9119606  38.2080496
  59.0458373  46.5158687  38.1701568  58.2416264  48.2598241  39.1174777
  58.1488634  48.2795174  40.2033451  58.4533177  49.2650806  38.7531355
  56.9461543  47.7654376  38.5095247  56.9540242  47.3403660  37.3253417
  55.9144974  47.8256906  39.2290909  61.2926837  45.9200947  39.5195727
  61.3005094  45.4029712  38.4036278  62.3156290  45.7830953  40.3564687
  62.3633432  46.3089527  41.2174546  63.4557606  44.8966055  40.0085582
  64.3330961  45.1787944  40.5905815  63.1148474  43.4382023  40.3147075
  62.4607829  43.0869585  39.5166306  64.0495956  42.8780516  40.2906892
  62.4326821  43.2283693  41.6582731  61.5343975  43.8446202  41.6959621
  62.1563281  42.1781094  41.7514646  63.3534034  43.6098595  42.7957564
  64.3466650  43.2069587  42.5977629  63.4084384  44.6967130  42.8575637
  62.8878444  43.0942307  44.0711998  62.0089125  43.4481497  44.4209417
  63.5411357  42.1986015  44.7949814  64.6933148  41.7143738  44.3614377
  65.0703592  42.0301092  43.4792536  65.1906330  41.0311676  44.9146134
  63.0423803  41.7884845  45.9470786  62.1618306  42.1601378  46.2735844
  63.5438204  41.1050982  46.4962962  63.8182768  45.0849364  38.5380041
  64.1712049  44.0908831  37.8924115  63.7223055  46.3160456  38.0438779
  63.4639893  47.0873979  38.6425329  64.0869081  46.6090287  36.6405961
  63.7122667  45.8237880  35.9839836  63.4700775  47.9404529  36.2113044
  62.3963001  47.8675940  36.3839108  63.8897863  48.7119847  36.8568144
  63.7256033  48.3022672  34.7582882  64.8068897  48.3666099  34.6367129
  63.3428534  47.4705507  34.1668075  63.0849876  49.5969739  34.2853262
  62.4424220  50.2758708  35.1145175  63.2354155  49.9272806  33.0916085
  65.5921130  46.7860021  36.6504337  66.0259366  47.4632632  37.5320887
  66.3192799  46.1223127  35.7597903  65.8656412  45.4630144  35.1436433
  67.7813646  46.2762184  35.6635970  68.0549563  47.3309033  35.6933698
  68.4835069  45.5677158  36.7815654  68.2266111  44.5086541  36.7593632
  69.5611835  45.6821659  36.6648833  68.1742627  45.9961558  37.7349312
  68.2271042  45.7338834  34.3155469  67.5188541  44.8699880  33.7823899
  69.3275424  46.2442776  33.7712090  69.7671792  47.0229653  34.2407452
  69.8543760  45.8301747  32.4921030  69.5147510  44.8152566  32.2854744
  69.3998963  46.7448503  31.3407748  69.6903211  47.7590360  31.6149646
  69.9572809  46.4342127  30.4570741  67.9009562  46.7085881  31.0366735
  67.6362492  45.6818918  30.7838382  67.3825043  47.0027096  31.9492519
  67.4893270  47.6337133  29.8985606  66.2788088  47.6981275  29.5654758
  68.3767977  48.3092972  29.3373938  71.3636191  45.7097435  32.5598041
  71.9434772  44.9866555  31.7200813  72.0004373  46.2375797  33.6288928
  71.4767672  46.8250295  34.2619581  73.4214716  46.0442382  33.8822611
  73.7825443  45.2088341  33.2824063  74.2401374  47.3006111  33.5209643
  73.6902306  48.1272166  33.9708810  75.2703733  47.3139453  33.8766834
  74.2917616  47.5719182  32.0445685  73.3103475  48.3249158  31.4011962
  72.5141116  48.7923567  31.9805126  73.3475848  48.4787810  30.0252664
  72.6009738  49.0896559  29.5178173  74.3395163  47.8518986  29.2953524
  74.3609047  47.9695776  28.2119346  75.3016645  47.0790982  29.9280160
  76.0829477  46.5881484  29.3477875  75.2669503  46.9362569  31.2726711
  76.0094130  46.3154691  31.7741406  73.6205214  45.6814654  35.3249291
  72.6796254  45.6842606  36.1151145  74.8679339  45.3885174  35.6705091
  75.6044168  45.4431032  34.9815152  75.2179042  44.9863733  37.0231610
  75.0025419  45.7900756  37.7272780  74.6627402  44.0935421  37.3108148
  76.6998978  44.6795006  37.0640660  77.3995030  44.7585449  36.0585435
  77.1589782  44.2704403  38.2375973  76.5324706  44.1964309  39.0263370
  78.5661068  43.9204257  38.4341398  79.0239926  43.7544903  37.4589962
  79.3041876  45.0445691  39.1303095  78.8459951  45.1638950  40.1121044
  80.8244239  44.8107153  39.2960894  81.2834137  44.6917538  38.3146231
  81.2707785  45.6655457  39.8041560  80.9917279  43.9098415  39.8864592
  79.1311732  46.2110972  38.3094562  79.5843240  46.9556150  38.7118838
  78.5729912  42.6706112  39.2821623  77.7662758  42.5328095  40.2141119
  79.4653771  41.7482153  38.9614334  80.0379971  41.7907405  38.1305319
  79.5985909  40.5920086  39.8314433  78.6095263  40.1867701  40.0450600
  80.4591651  39.4838041  39.2144507  80.4085673  38.5891018  39.8349729
  79.9429934  39.1729620  37.8530334  79.9937126  40.0671302  37.2317521
  80.5488661  38.3852180  37.4052872  78.9079546  38.8386373  37.9239015
  81.8315748  39.9071235  39.1345549  82.3606466  39.2060260  38.7470687
  80.2083027  41.0706851  41.1348962  80.9454557  42.0560896  41.1657444
  79.8804240  40.3637602  42.2111237  79.1339472  39.6899106  42.1173234
  80.5153037  40.5171336  43.5188750  81.2844178  41.2893618  43.5038371
  79.5060670  40.8598332  44.5958923  78.7343262  40.0908085  44.6293166
  80.0083492  40.9120092  45.5618584  79.0484921  41.8235545  44.3723623
  81.1983405  39.2085020  43.8295825  80.7037931  38.1653656  43.4557640
  82.3633930  39.2690488  44.4531197  82.7344297  40.1856016  44.6589407
  83.1516625  38.0978301  44.8413759  82.5723302  37.1958735  44.6440245
  84.4779639  38.0132924  44.0574991  84.2771452  37.3881183  43.1874828
  84.7027208  39.0285475  43.7306330  85.6784741  37.4466818  44.8281461
  85.9680764  38.2378894  45.5196819  85.3613433  36.5697096  45.3924571
  86.8749291  37.0790470  43.9427365  86.6536655  36.6875125  42.7696035
  88.0295709  37.1326480  44.4384443  83.3914619  38.2730495  46.3286971
  83.8035188  39.3537504  46.7567118  83.1118164  37.2949264  47.0849245
  82.7610421  36.4219530  46.7175361  83.2422169  37.4347258  48.5366744
  82.9561672  38.4371363  48.8551833  82.3961734  36.3964957  49.2917290
  82.6375506  35.3945831  48.9367521  82.7090221  36.4968918  50.7879544
  82.4674494  37.4984559  51.1437810  82.1142721  35.7646062  51.3339680
  83.7682677  36.2991531  50.9522629  80.9182510  36.5938110  49.0191526
  80.5224170  37.3079241  49.7412736  80.7993134  36.9927608  48.0117836
  80.1749781  35.3074738  49.1345612  80.2930729  34.9081204  50.1418697
  79.1174241  35.4790643  48.9339734  80.5699712  34.5929560  48.4123807
  84.7128073  37.3022969  48.9105079  85.4268830  36.4545290  48.3637433
  85.1829062  38.1337168  49.8345911  84.6112563  38.8661496  50.2306442
  86.5782620  38.0513568  50.2410108  87.0179704  37.1224032  49.8779667
  87.3701765  39.2318430  49.6547705  88.4177304  38.9321837  49.6242019
  87.0168607  39.4198653  48.6409088  87.2313340  40.4856363  50.4744162
  88.0523628  40.7456021  51.5634518  88.8310853  40.0283746  51.8228268
  87.8908599  41.9106301  52.3253288  88.5302944  42.1148601  53.1841160
  86.9054317  42.8083466  51.9700872  86.6844571  43.9776012  52.6446587
  87.2838078  44.1031451  53.3839943  86.0889518  42.5552603  50.9058101
  85.3046299  43.2655795  50.6443026  86.2538984  41.4048128  50.1619483
  85.6040986  41.2095392  49.3088783  86.7800160  38.0000608  51.7505210
  87.9209812  37.8012277  52.1809914  85.7315713  38.1942049  52.5551600
  84.9088338  38.6209571  52.1538062  85.7202736  37.8758749  53.9697608
  86.5489345  37.2048769  54.1959951  85.8322562  39.1068597  54.8628336
  85.0040957  39.7841939  54.6543424  85.7971293  38.8019910  55.9087406
  86.7756998  39.6155323  54.6646780  84.4221683  37.1173682  54.2656598
  83.6057001  36.8350074  53.3625130  84.1996885  36.8186017  55.5448745
  84.7648859  37.1871329  56.2964303  83.1468119  35.8573750  55.8755937
  82.1800730  36.2183896  55.5246186  83.4496540  34.5077466  55.1867027
  83.4420947  34.6926378  54.1125252  84.4532070  34.2176452  55.4978657
  82.4915838  33.4083779  55.5090240  81.2706971  33.3290302  54.8739077
  81.0102876  34.0858185  54.1339363  80.3831010  32.3111552  55.1623736
  79.4221897  32.2511688  54.6513423  80.7241865  31.3580611  56.1162385
  79.8649918  30.3285683  56.4412063  79.0425851  30.3561380  55.9467502
  81.9396608  31.4274088  56.7569857  82.2117146  30.6815347  57.5038184
  82.8129848  32.4441732  56.4510536  83.7788539  32.5024673  56.9528491
  83.0217109  35.7105867  57.3849323  83.8964786  36.1323704  58.1464972
  81.8982281  35.1213781  57.8037384  81.2021275  34.8272506  57.1336397
  81.6138579  34.9359293  59.2239945  82.4025671  34.3486063  59.6941952
  81.5421856  36.3328106  59.9288142  82.4777923  36.8708249  59.7762366
  80.7181355  36.9130402  59.5136334  81.3140601  36.1231644  61.4237364
  81.1143609  37.0991218  61.8661482  80.4360775  35.4871498  61.5365814
  82.4912415  35.4847918  62.1233693  82.6754202  34.4718881  61.7653144
  83.3987049  36.0787209  62.0144753  82.1360168  35.4231933  63.5517957
  81.2866860  35.8921768  63.8324928  82.8275361  34.7809110  64.4638854
  82.3998965  34.8030549  65.7371851  81.5589239  35.3090843  65.9755110
  82.9213000  34.3135754  66.4503806  83.9046286  34.0911546  64.1749583
  84.2278928  34.0420259  63.2193503  84.4059832  33.6122059  64.9093631
  80.3086175  34.1578226  59.3846385  79.4462541  34.1526037  58.4941010
  80.1790511  33.4945504  60.5491025  80.9112940  33.5718167  61.2404415
  79.0221199  32.6384279  60.8515595  78.1794731  32.9302854  60.2247702
  79.3430756  31.1640247  60.5850287  80.2817676  30.9626698  61.1011805
  78.5416977  30.5925346  61.0533155  79.4682121  30.7618939  59.1454886
  79.2099451  31.6179326  58.5221132  80.4998999  30.4691680  58.9504730
  78.5497940  29.6102929  58.8228568  77.3717268  29.6774326  59.2469936
  78.9876014  28.6407167  58.1561606  78.6229278  32.8150759  62.3104400
  79.2599782  32.2388125  63.1822847  77.5459749  33.5303842  62.5781049
  77.0380816  33.9142089  61.7939988  77.1215530  33.8988471  63.9241425
  77.8576316  33.5292422  64.6380611  76.9849930  35.4213010  64.1023256
  76.2263531  35.7515277  63.3927377  76.6270700  35.5854690  65.1187114
  78.2718126  36.2182834  63.8802456  78.7746398  35.8042112  63.0062834
  77.9779025  37.2478195  63.6758653  79.2195232  36.1882750  65.0726240
  79.5155786  37.2643032  65.6514889  79.6661455  35.0814180  65.4435661
  75.8348468  33.1621489  64.3050677  75.3559941  32.2714598  63.6024263
  75.3227111  33.4900068  65.4946875  75.8249311  34.1219553  66.1017423
  74.0686399  32.9192065  65.9753468  73.3529307  32.8976916  65.1535216
  74.2432171  31.5053215  66.5044037  75.2469497  31.4153220  66.9197591
  73.5083626  31.3400507  67.2922962  74.0531571  30.4664248  65.4075096
  73.6830060  30.9853949  64.5233382  75.0068675  29.9917133  65.1768854
  73.0670762  29.4017790  65.7862376  73.2870655  28.2122479  65.5387514
  71.9596773  29.8257706  66.3623868  71.2532959  29.1605529  66.6427656
  71.8228036  30.8138462  66.5207327  73.5028303  33.8174209  67.0594839
  74.1836754  34.1375628  68.0400191  72.2484987  34.1987829  66.8926806
  71.7197138  33.7795951  66.1411706  71.5922876  35.1988737  67.7250803
  72.0082669  35.1620481  68.7319091  71.7942591  36.6005723  67.1662142
  72.8583902  36.7798455  67.0126392  71.2811697  36.6165042  66.2046606
  71.2196638  37.6909386  68.0674266  71.4689623  37.7021713  69.3138575
  70.5355550  38.5796648  67.4953375  70.1381448  34.7454973  67.6771235
  69.5495063  34.7066907  66.5943661  69.6055248  34.2842699  68.8087291
  70.1862983  34.2093737  69.6316459  68.2264332  33.8008765  68.8865113
  67.9711993  33.5322289  69.9115886  67.2944192  34.9042837  68.4287992
  67.4573412  35.2736338  67.4163091  66.2807946  34.5124730  68.5133537
  67.3693977  36.0646271  69.3142909  66.6242309  36.0929407  70.4664982
  65.9006800  35.3076504  70.6853432  66.7945784  37.0956023  71.3204429
  66.2287152  37.0421480  72.2505194  67.6411797  38.1775035  71.0805266
  67.7210924  39.0149397  71.7736460  68.3820720  38.1662226  69.9379430
  69.0563881  38.9905450  69.7057995  68.2734647  37.0991698  69.0710787
  68.8994905  37.0550924  68.1798723  67.9929170  32.5330137  68.0949205
  66.9116537  32.3230724  67.5418080  68.9943953  31.6731800  68.0503543
  69.8472365  31.8368445  68.5660821  68.8936279  30.4694024  67.2574012
  69.7749156  29.8556205  67.4436883  68.0007037  29.9247452  67.5642142
  68.8035359  30.7700048  65.7587954  68.7327536  29.8800498  64.9048399
  68.7839906  32.0613621  65.4250538  68.6963474  32.7691123  66.1402514
  68.8800554  32.4932644  64.0288343  68.2861700  31.8341415  63.3956231
  68.4102990  33.9413733  63.8415711  69.0739787  34.6043693  64.3966081
  68.4309311  34.3220416  62.3639085  67.7670826  33.6597324  61.8082537
  68.0948068  35.3525263  62.2489191  69.4456609  34.2261495  61.9776089
  67.0214755  34.1888514  64.3871238  66.3094807  33.6440263  63.7671804
  66.9823368  33.8056176  65.4067803  66.6601526  35.6884909  64.3876046
  66.6986271  36.0723505  63.3681580  65.6546670  35.8203638  64.7872388
  67.3714851  36.2339423  65.0077566  70.3385626  32.3630972  63.6479520
  71.2123681  32.9800466  64.2851045  70.6181205  31.5881161  62.6099946
  69.9556476  30.9292529  62.2264216  71.9584718  31.6322615  62.0388459
  72.7055381  31.6299645  62.8325624  72.1825249  30.4097112  61.1552000
  71.4649540  30.4644256  60.3365440  73.1944304  30.4782797  60.7558936
  72.0145136  29.0796558  61.8920520  72.7429953  29.0493625  62.7022973
  71.0076770  29.0394531  62.3076996  72.2294936  27.8943972  60.9764059
  71.3922529  27.6701353  60.0650116  73.2326539  27.1851594  61.1735483
  72.1870743  32.9307184  61.2487095  71.3853420  33.3223504  60.4000196
  73.2543308  33.6399934  61.5783255  73.8610728  33.3189509  62.3192002
  73.5629668  34.9016028  60.9357117  72.7401016  35.1746878  60.2750934
  73.8060164  36.0306194  61.9413232  74.5549655  35.7135357  62.6670184
  74.2954801  37.2574748  61.2190004  73.5468090  37.5754495  60.4934080
  74.4672992  38.0586331  61.9378358  75.2272154  37.0278705  60.7020379
  72.5278950  36.3376690  62.6896596  71.8449575  36.8047961  61.9800898
  72.1126878  35.3854343  63.0197376  72.7109750  37.2344252  63.8667930
  73.1257449  38.1870947  63.5374197  71.7477297  37.4049192  64.3476147
  73.3934775  36.7677334  64.5770668  74.7866463  34.6911158  60.0685613
  75.5274442  33.7184297  60.2176728  74.9844354  35.6127919  59.1282626
  74.2993429  36.3412859  58.9866854  76.1451804  35.5739534  58.2454583
  76.9877209  35.1033894  58.7522070  75.8700876  34.8126099  56.9401257
  74.8397186  34.9678890  56.6202392  76.8054847  35.3478732  55.8927541
  77.8361219  35.1925247  56.2117442  76.6345030  34.8259337  54.9512420
  76.6252430  36.4139451  55.7545324  76.0650400  33.3363324  57.1559782
  75.3776038  32.9873726  57.9265369  75.8680912  32.8034631  56.2257303
  77.0908539  33.1471980  57.4722610  76.5456513  37.0068074  57.9685857
  75.7156720  37.8034093  57.5228094  77.8097012  37.3296965  58.2574051
  78.3603509  36.6434891  58.7533924  78.4296401  38.6046720  57.9279763
  77.6748424  39.2964142  57.5539811  79.0830578  39.2174107  59.1648625
  79.7334637  38.4546712  59.5929980  79.6862891  40.0585918  58.8233566
  78.1032793  39.6934896  60.2170569  77.9098215  40.7545885  60.0597549
  77.1737013  39.1350138  60.1070955  78.6617464  39.4807894  61.6242076
  78.4979441  38.4371464  61.8926796  79.7322788  39.6831921  61.5911479
  78.0102765  40.3765217  62.6588963  77.5410021  41.2303584  62.1701785
  77.2573415  39.8176087  63.2145980  79.0723092  40.8624978  63.6047033
  79.7698706  41.3807925  63.0900399  78.6537681  41.4617920  64.3016752
  79.5069823  40.0714882  64.0579825  79.4737364  38.3768994  56.8353196
  80.4201118  37.6076459  57.0352158  79.3185181  39.0582976  55.6964124
  78.4792925  39.5997634  55.5460314  80.2977848  38.9875251  54.6186930
  81.2064002  38.5098571  54.9852318  79.7607494  38.1728705  53.4183464
  80.5699269  37.9806464  52.7138034  79.2123100  36.8712679  53.9151903
  78.4027217  37.0626868  54.6194819  78.8319545  36.2918624  53.0739297
  80.0024265  36.3103476  54.4143756  78.6908500  38.9679409  52.7587804
  79.1026676  39.9162248  52.4134313  78.2966328  38.4122469  51.9079593
  77.8879968  39.1588963  53.4708644  80.7495276  40.3703627  54.1303718
  80.0626451  41.3949069  54.2459372  81.9455708  40.3750250  53.5540959
  82.5418657  39.5699996  53.6824151  82.4669049  41.5094494  52.7938023
  81.7034568  42.2858355  52.7440961  83.7296217  42.1027627  53.4395783
  84.5313333  41.3726235  53.3288782  83.9861544  43.0092081  52.8912648
  83.5442880  42.4420240  54.9392327  82.5863474  42.9518829  55.0416754
  83.5135422  41.4989706  55.4849497  84.6756513  43.3414201  55.5207003
  84.8668702  44.1444543  54.8088924  84.3195777  43.7658212  56.4594200
  85.9851861  42.5540535  55.7743014  85.7249756  41.4992683  55.8627279
  86.6302328  42.6971754  54.9073930  86.7173786  43.0024626  57.0303795
  86.1199932  42.8695230  57.8338454  87.5592000  42.4557970  57.1426000
  86.9589630  43.9797169  56.9484640  82.7279056  40.9951247  51.3878995
  83.2963866  39.8925562  51.2247283  82.2359829  41.7432586  50.3875112
  81.6794152  42.5512377  50.6273059  82.4394093  41.4390226  48.9791688
  83.1672834  40.6354036  48.8673879  81.1358009  41.0193716  48.2878047
  80.3999311  41.8177892  48.3833303  81.3289440  40.8283643  47.2321948
  80.7509816  40.1133717  48.7559686  83.0057942  42.6718386  48.3017637
  82.9823629  43.7669920  48.8602205  83.3903792  42.4848142  47.0425253
  83.2207501  41.5711129  46.6469557  84.0677936  43.4839590  46.2154531
  83.7587036  44.4923576  46.4905801  85.6057790  43.3641212  46.3400711
  85.8821995  43.2141293  47.3837159  86.0775985  42.1578221  45.5057072
  85.8019248  42.3073127  44.4617928  87.1604828  42.0619045  45.5848402
  85.6046481  41.2496454  45.8793811  86.2543020  44.6668386  45.8883053
  85.7806346  44.9515337  44.9487902  86.0318855  45.4158337  46.6483295
  87.7681989  44.5771400  45.6890030  87.9913835  43.8286215  44.9287342
  88.1509296  45.5458658  45.3677759  88.2426343  44.2929191  46.6282737
  83.6402614  43.3093062  44.7472393  83.5463903  42.1824042  44.2332927
  83.3978389  44.4276394  44.0640877  83.4591973  45.3331640  44.5072127
  83.0344849  44.3715656  42.6463336  82.2031220  43.6787897  42.5159636
  82.7345349  45.3650781  42.3130735  84.2096913  43.8995896  41.8016967
  85.3611431  44.2252530  42.0747682  83.8989647  43.0947082  40.7852598
  82.9197010  42.9045315  40.6272263  84.8693014  42.5177794  39.8700587
  85.8629757  42.8621902  40.1565752  84.8616334  40.9872520  39.8757971
  83.9572608  40.6628511  40.3905529  84.8287700  40.6526669  38.8389400
  86.0689498  40.3924565  40.5578253  85.9600491  39.3079110  40.5594502
  86.9544468  40.6673222  39.9847233  86.2221506  40.9072316  42.0405003
  86.4465875  41.9738642  42.0358111  85.2940812  40.7341451  42.5853193
  87.3051789  40.2038071  42.7250196  87.2433020  39.1957449  42.7340324
  88.3455242  40.7798708  43.3150249  88.4623331  42.0938899  43.3770610
  87.7489181  42.6810460  42.9691557  89.2645398  42.5055751  43.8321206
  89.2825989  40.0123188  43.8616957  89.1937730  39.0069905  43.8226427
  90.0792924  40.4378352  44.3137067  84.6044441  42.8787608  38.4247117
  85.4639611  43.4472339  37.7416480  83.4569310  42.4610829  37.9204502
  82.7360233  42.0872212  38.5209658  83.2241191  42.4698541  36.4938137
  83.9044482  43.1842281  36.0302178  83.4488188  41.1027010  35.8611870
  83.2723916  40.3177711  36.5966172  82.7734048  40.9669274  35.0165087
  84.8880574  41.0280352  35.3760103  84.9053296  41.5595002  34.4245129
  85.5815970  41.5033230  36.0697007  85.3276827  39.6384101  35.1478487
  85.3218515  38.8258965  36.0557477  85.8003454  39.3581798  33.9400495
  86.1154210  38.4220555  33.7290988  85.8428641  40.0822930  33.2372312
  81.8274358  42.9481462  36.2703312  80.9298944  42.6389221  37.0593578
  81.7000425  43.7742807  35.2365485  82.5129850  44.0934421  34.7292419
  80.4099535  44.2777276  34.8444395  79.7490023  44.2762272  35.7111808
  80.4938661  45.7048256  34.2955214  80.2660804  45.6181181  33.2331210
  79.6942674  46.2523154  34.7945172  81.7923879  46.4437914  34.4709174
  82.0808936  46.3793592  35.5200665  82.5476534  45.9540847  33.8562114
  81.6742989  47.9644927  34.0491049  80.8954420  48.4098336  34.6680979
  82.6309385  48.4355660  34.2750034  81.3524842  48.2081022  32.6442509
  80.4577635  48.6261913  32.4326485  82.1573168  47.8743657  31.6289153
  83.3579596  47.3357806  31.8310936  83.6813524  47.1696566  32.7733887
  83.9398974  47.0957930  31.0412494  81.7647269  48.1226110  30.3846551
  80.8686191  48.5578930  30.2184608  82.3640881  47.8749678  29.6103569
  79.8276201  43.3370279  33.8086094  80.4435885  42.3329616  33.4548910
  78.6646167  43.6145914  33.3032001  78.2485221  44.5157030  33.4901830
  77.9264508  42.6766075  32.5077799  78.4336626  42.5282897  31.5544504
  77.8127733  41.3198276  33.2197391  77.2575323  40.5913481  32.6288717
  78.8195899  40.9453457  33.4046270  77.1211449  41.3994926  34.5760461
  75.7547286  41.6653575  34.6861750  75.1879102  41.8348442  33.7707019
  75.1154312  41.7170056  35.9187140  74.0441634  41.9118714  35.9688462
  75.8705131  41.5124144  37.1342874  75.3907351  41.5868780  38.1101810
  77.2220104  41.2181009  37.0472042  77.8055090  41.0372009  37.9499249
  77.8531576  41.1520692  35.7590892  78.9127788  40.9080410  35.6832406
  76.5475425  43.2576251  32.2474393  75.9550721  43.9151260  33.1015239
  76.0083106  43.0211155  31.0500278  76.5450624  42.6036641  30.3032138
  74.6253883  43.3757189  30.7884700  74.3612892  44.2396883  31.3983124
  74.3810211  43.7245586  29.3092890  75.2435623  44.2793237  28.9400228
  74.2805756  42.7949649  28.7490512  73.0810123  44.5918874  29.1232030
  72.3222678  44.1832714  29.7906164  73.3248997  45.6088271  29.4305376
  72.5422887  44.6073488  27.6843494  73.3516426  44.9087619  27.0193716
  72.2198311  43.5979222  27.4290488  71.3432179  45.5922960  27.5232125
  71.7421820  46.5039773  27.0785042  70.6438300  45.1260693  26.8292467
  70.6260789  45.9314952  28.8081738  71.2738709  46.3639143  29.4511970
  69.8688115  46.5705214  28.6124913  70.2559452  45.0869001  29.2201924
  73.7548154  42.1817600  31.1792818  74.0230655  41.0285709  30.8463079
  72.6789784  42.4869050  31.9114193  72.4946722  43.4203656  32.2502141
  71.7702381  41.4136685  32.3087384  72.3120385  40.4737304  32.4139420
  71.0349155  41.7119731  33.6373231  70.5130866  42.6639705  33.5398819
  70.0353234  40.6191902  33.9699670  70.5565099  39.6669036  34.0680279
  69.5349078  40.8572518  34.9085890  69.2957240  40.5475705  33.1724929
  72.0378276  41.8667221  34.7842974  72.7178268  42.6897553  34.5644804
  71.5021840  42.0760731  35.7102336  72.6083092  40.9446359  34.8956919
  70.7724384  41.1680203  31.1686337  70.2334629  42.1127340  30.6319527
  70.5491393  39.9104264  30.8075173  71.0564146  39.1582476  31.2513619
  69.6205804  39.5773886  29.7219082  69.4301812  40.4591877  29.1101257
  70.2207904  38.4877482  28.8345290  70.3730269  37.6399904  29.5025334
  69.5032049  38.2155005  28.0605444  71.5545843  38.8701526  28.1825914
  72.2012422  39.2899813  28.9530967  72.2432427  37.6723397  27.5390413
  71.5973408  37.2522273  26.7680580  73.1838856  37.9913424  27.0901215
  72.4416838  36.9156347  28.2980663  71.3097641  39.9640777  27.1584581
  70.8796976  40.8353423  27.6524626  72.2539556  40.2418486  26.6900064
  70.6196385  39.6014593  26.3966619  68.2598967  39.1370646  30.2627230
  67.2504737  39.3135111  29.6372745  68.2437971  38.5507086  31.4556507
  69.1037681  38.3377560  31.9406254  67.0017886  38.0775948  32.0233549
  66.2582118  38.8727562  31.9694004  66.4617093  36.8472405  31.2720523
  66.4022996  37.1250351  30.2197215  67.2005088  36.0556482  31.3971801
  65.0947305  36.3481803  31.7454844  64.8586088  35.4427743  31.1863893
  65.1919441  36.1060918  32.8038047  63.9774289  37.3656931  31.5584577
  63.1230545  37.1836115  30.6548894  63.9448298  38.3521132  32.3252365
  67.0929746  37.8132189  33.5108052  68.1599911  37.5053398  34.0434450
  65.9586923  37.9345459  34.1867368  65.1361709  38.3041210  33.7317949
  65.8657508  37.5736357  35.6058336  66.7688397  37.0421206  35.9058692
  65.7183410  38.8087748  36.4755754  64.8315396  39.3224292  36.1043052
  65.5291471  38.4412259  37.4841454  66.8989585  39.7831976  36.5009827
  67.1756584  40.0674203  35.4857215  66.4727817  41.0089351  37.2668711
  66.1963531  40.7255560  38.2824410  67.2967972  41.7216481  37.3006246
  65.6164775  41.4675067  36.7723455  68.1115044  39.1414597  37.1792607
  68.4041410  38.2464327  36.6302708  68.9404993  39.8491291  37.1877880
  67.8547092  38.8711033  38.2034983  64.6793188  36.6510597  35.8166192
  63.5458992  37.0001202  35.4683912  64.9397923  35.4694059  36.3693305
  65.8873481  35.1923563  36.5825927  63.8606669  34.5098175  36.6248079
  62.8888515  34.9974647  36.5481642  63.9325600  33.3660901  35.5564129
  64.9205886  32.9061270  35.5746509  63.1768278  32.6111062  35.7731342
  63.6744581  33.9620542  34.1747095  62.6727003  34.3915898  34.1837182
  64.4070815  34.7533187  34.0157585  63.7775944  32.9495947  33.0592124
  64.7797155  32.5269837  32.9867406  63.0517730  32.1445558  33.1740821
  63.4813260  33.6780047  31.8135214  63.2721630  34.6624688  31.8982598
  63.5025561  33.1429630  30.6147076  63.2089600  33.9150788  29.5552226
  62.9776263  34.8886214  29.6923343  63.2209038  33.5184951  28.6264178
  63.8309798  31.8903135  30.4080143  64.0796913  31.3010626  31.1896959
  63.8336855  31.5206345  29.4681053  63.9419555  33.9432292  38.0423459
  65.0311130  33.8633233  38.6240984  62.7923198  33.5485727  38.5890095
  61.9058956  33.7914893  38.1702698  62.7838076  32.7890339  39.8382771
  63.2062616  33.4743123  40.5731412  61.3382973  32.4476612  40.2562706
  60.8681379  31.8745957  39.4571170  61.3223127  31.6274558  41.5497390
  61.7919231  32.2000954  42.3495199  60.2921210  31.3995481  41.8233486
  61.8715051  30.6982061  41.3981360  60.6553324  33.6525906  40.6170948
  59.7552067  33.4443763  40.8779029  63.6110459  31.5369809  39.6141296
  63.4606321  30.8714018  38.5841393  64.5060556  31.2440989  40.5500766
  64.6223090  31.8491490  41.3503883  65.3703947  30.0903293  40.4313517
  65.7416371  30.0162689  39.4092003  66.5711562  30.2020016  41.3828112
  66.8822763  31.2465392  41.3984506  66.2316460  29.9096431  42.3764708
  67.7620383  29.3181051  40.9668150  67.7532750  29.1777689  39.8859220
  68.6799020  29.8282527  41.2590097  67.7314418  27.9435586  41.6386384
  67.9083481  26.9171326  40.9693531  67.5288371  27.9094933  42.9573787
  67.5017896  27.0217470  43.4382909  67.4034922  28.7716159  43.4683919
  64.5816637  28.8285331  40.7201537  63.5043167  28.8726718  41.3163962
  65.1075349  27.6942146  40.2896898  65.9220908  27.6650895  39.6932422
  64.4276565  26.4518149  40.5829513  63.5146595  26.6630966  41.1396340
  64.0552950  25.6975232  39.2971655  63.3836526  26.3287767  38.7153454
  64.9692649  25.5208474  38.7301165  63.4215725  24.4587812  39.5695404
  63.2061812  24.0209434  38.7427971  65.2314940  25.5673759  41.5261814
  66.1906220  24.9130729  41.1134866  64.8699847  25.6014256  42.8117305
  65.2517326  24.9115534  43.4429548  63.8920132  26.5632120  43.3394728
  63.5842233  27.2310936  42.5349241  62.6410960  25.8709541  43.9097263
  63.0061581  24.9964669  44.4483366  62.1456742  26.5461066  44.6074558
  61.6387558  25.4255544  42.8269691  62.0133987  25.2860938  41.6472597
  60.4393234  25.2515041  43.1645271  64.5184713  27.4556560  44.4259625
  65.4810579  27.0657857  45.0926613  63.9491954  28.6475837  44.6104951
  63.1397049  28.9067646  44.0649222  64.4587864  29.5999946  45.5817544
  63.6171769  30.1461766  46.0077566  64.9718233  29.0507405  46.3711924
  65.4294111  30.5933779  44.9580819  66.3951095  30.1848753  44.3144414
  65.2688036  31.6912045  45.0822065  64.3549960  32.0817972  45.2624629
  66.3976210  32.6272123  44.8189410  66.3414669  33.5353224  45.4191758
  67.7532662  31.9367953  45.0586999  67.8102022  31.0578792  44.4165432
  68.9161487  32.8641241  44.7513181  68.8601485  33.7431162  45.3934532
  69.8556347  32.3418883  44.9322506  68.8684251  33.1738395  43.7073363
  67.8446045  31.3787374  46.4797357  67.0600128  30.6291885  46.5831431
  68.8189540  30.8997709  46.5763466  67.6884136  32.4211330  47.5574434
  66.7140444  32.9002453  47.4617572  67.7651142  31.9471239  48.5359789
  68.4729849  33.1708294  47.4549591  66.2736711  33.2574517  43.4299256
  65.4747411  34.1761166  43.6090281  66.4881502  33.3285114  42.4614287
  66.8497185  32.3866087  42.4146631  66.5719048  34.1810770  41.2371126
  65.8747402  33.7767007  40.5032594  66.2416380  35.6542258  41.4636968
  65.1771755  35.7242503  41.6875616  66.8166698  35.9937374  42.3251899
  66.5659700  36.5306329  40.2593590  67.6334421  36.7500204  40.2811126
  66.3275883  35.9780427  39.3505575  65.8064381  37.8334213  40.2444359
  64.6188615  37.8812269  39.9371160  66.4929373  38.9150094  40.5702026
  66.0364833  39.8159519  40.5775484  67.4707655  38.8355001  40.8102684
  67.9322253  33.9945585  40.5644634  68.9488617  34.1439878  41.2401307
  68.0530077  33.7002489  39.3699328  67.2671834  33.5247532  38.7601945
  69.4008187  33.5464959  38.8251387  70.1231961  33.9714712  39.5220362
  69.7446603  32.0797394  38.6019988  68.9742165  31.6530291  37.9597886
  70.7065121  32.0391836  38.0908272  69.8241150  31.2855443  39.8920309
  69.5305805  31.9011432  40.7423110  69.1510618  30.4318463  39.8126504
  71.2312891  30.7727875  40.1279688  72.1758118  31.2080339  39.4541080
  71.3941588  29.8730200  41.0961650  72.3143095  29.5036852  41.2885601
  70.5967837  29.5640909  41.6336193  69.4595445  34.3357045  37.5304917
  68.5391980  34.2375714  36.7195212  70.4972653  35.1692803  37.3770901
  71.2060746  35.2088697  38.0955060  70.6231232  36.0630931  36.2316852
  69.6697006  36.1200627  35.7064814  71.0366337  37.4679552  36.6420225
  71.9942323  37.4283453  37.1611912  71.1308038  38.0934145  35.7543103
  70.2816512  37.8904043  37.3050741  71.6358565  35.4734967  35.2704510
  72.7072725  35.0197419  35.6985016  71.2612672  35.4262084  33.9947764
  70.2913853  35.6114679  33.7823914  72.1463839  35.0527376  32.9039978
  72.9848611  34.4855791  33.3082087  71.4388679  34.1956675  31.8480579
  70.5584595  34.7446105  31.5139295  72.1263980  34.0689153  31.0117946
  71.0126622  32.8156319  32.3742475  71.9125022  32.2844186  32.6844107
  70.3679489  32.9728738  33.2389565  70.2724473  31.9926491  31.3342715
  69.3626715  32.5198321  31.0470693  70.9114039  31.8688253  30.4599136
  69.9076237  30.6150881  31.8993470  70.8323852  30.1211243  32.1975358
  69.2797542  30.7699224  32.7767896  69.1812328  29.7583909  30.9118805
  69.7630295  29.6144405  30.0989287  68.9660505  28.8664725  31.3341105
  68.3240874  30.2157328  30.6357660  72.6921114  36.3545638  32.3317776
  71.9164752  37.2181643  31.8732334  74.0134475  36.4886192  32.3344517
  74.5973671  35.6892141  32.5346736  74.6578760  37.7686749  32.0883743
  73.9693965  38.4835846  31.6378200  75.2143910  38.3793474  33.4154524
  75.7250542  39.3123382  33.1770188  74.0868778  38.6557649  34.4324501
  73.5760180  37.7231004  34.6717412  74.5129424  39.0797119  35.3417566
  73.3742320  39.3599803  34.0031269  76.2626510  37.4409328  34.0413558
  77.0876185  37.2996796  33.3430878  76.6399407  37.8810084  34.9644406
  75.8034587  36.4769071  34.2602114  75.7842938  37.5560267  31.0862517
  76.4910226  36.5384566  31.1582482  75.9389407  38.5412455  30.1658294
  75.1908745  39.2137677  30.0752194  77.0943812  38.6685744  29.2835497
  77.5133677  37.6785809  29.1033761  76.7248881  39.2985473  27.9322496
  75.8966284  38.7245061  27.5168440  76.3979435  40.3205553  28.1238406
  77.8930043  39.3132353  26.9288899  78.7399787  39.8458715  27.3613641
  78.1784837  38.2808716  26.7268286  77.5168235  39.9848044  25.6054293
  76.3348351  40.2476657  25.3522370  78.5093173  40.2839447  24.7654483
  78.3026388  40.7276580  23.8819870  79.4627750  40.0653147  25.0168857
  78.0944457  39.5301627  30.0517154  77.8630967  40.7439183  30.2275905
  79.1856172  38.9164153  30.5490271  79.2529544  37.9120027  30.6310049
  80.3003429  39.7254655  31.0281140  79.9804617  40.2483609  31.9294217
  81.5228061  38.8616704  31.3466166  81.8691459  38.3809589  30.4317038
  82.6492973  39.7311044  31.9259551  82.3038351  40.2118120  32.8412019
  83.5137533  39.1056320  32.1486674  82.9306293  40.4935680  31.1995938
  81.1978455  37.7830268  32.3675478  80.4424640  37.1370844  31.9200458
  82.1121322  37.2126209  32.5313048  80.6955710  38.3047282  33.6750508
  79.7809820  38.8748940  33.5121470  80.4882715  37.4698589  34.3444680
  81.4506499  38.9504327  34.1234050  80.6406647  40.7619467  29.9566618
  80.7106284  40.4549827  28.7606053  80.8408339  42.0084973  30.3565605
  80.6734664  42.3079995  31.3065004  81.2580986  43.0224956  29.3653099
  80.9550709  42.7206081  28.3627445  80.5903157  44.3584385  29.6963519
  80.8195564  44.5246182  30.7489355  81.0576830  45.1387215  29.0956638
  79.0798207  44.3974120  29.4932659  78.6062766  43.7351385  30.2180077
  78.5580632  45.8083586  29.6821249  79.0308404  46.4711727  28.9573780
  77.4782474  45.8198658  29.5339149  78.7894607  46.1498566  30.6910524
  78.7050747  43.8747879  28.1193527  79.0457964  42.8445223  28.0165851
  77.6224565  43.9126599  27.9985031  79.1773204  44.4911225  27.3543595
  82.7858682  43.0940759  29.3915218  83.3741534  42.7374187  30.4233950
  83.4467516  43.4706911  28.2792889  82.9183822  43.5579380  26.9901237
  82.0499449  44.2154983  27.0292563  82.6034810  42.5584911  26.6900534
  84.0205416  44.1034233  26.1105372  84.0032360  45.1932175  26.0983601
  83.9247440  43.7276348  25.0918580  85.2971790  43.5710361  26.7725453
  86.2049264  44.1538075  26.6161129  85.4685765  42.5412841  26.4589639
  84.9062834  43.6077105  28.2410468  85.3076064  42.7057699  28.7031520
  85.4870150  44.8459254  28.9455776  86.4323969  44.8412794  29.2711455
  84.9155424  45.6557826  29.0767316  95.9531708  59.7939947  29.9152436
  95.4961808  60.4707035  29.3208309  95.2563436  59.1623698  30.2834585
  96.7601736  59.4284647  29.4302345  96.4880715  60.4989674  31.0778763
  96.0301817  60.0935063  31.9801165  98.0161765  60.3513907  31.1927510
  98.2351985  59.2875926  31.1007608  98.4462685  60.8849852  30.3451675
  98.6220982  60.8861182  32.4924734  99.7044640  60.7749062  32.4275348
  98.3689459  61.9447551  32.5499286  98.1129829  60.1745325  33.7385615
  97.6495255  60.8542844  34.6897467  98.1642847  58.9258425  33.7683671
  96.0650095  61.9659319  31.1012837  96.1066583  62.6125542  32.1523646
  95.6432109  62.4925580  29.9661886  95.6725615  61.9572498  29.1102195
  95.1566028  63.8544717  29.9074727  95.8715404  64.6013686  30.2525936
  94.7570101  64.1885768  28.4530696  93.9842348  63.4868028  28.1393313
  94.2316018  65.6112361  28.3262396  95.0040377  66.3136486  28.6393834
  93.9611670  65.8081011  27.2888350  93.3527565  65.7323490  28.9595351
  95.8658704  63.9489867  27.5762461  95.6117422  64.1582265  26.6744491
  93.9615668  64.0395898  30.8345311  93.8813107  65.0174111  31.5899578
  92.9627046  63.1653421  30.7067374  93.0314588  62.3707730  30.0870340
  91.7043877  63.3810199  31.4208835  91.4069362  64.4270224  31.3467181
  90.6040262  62.5166083  30.8111145  91.0250738  61.5142589  30.8893055
  89.7579440  62.6088649  31.4920944  90.1361224  62.7588265  29.3876854
  90.9976431  62.7393810  28.7202240  89.0992809  61.6300246  28.9494505
  88.2372145  61.6491597  29.6162145  88.7710154  61.8147993  27.9266109
  89.5796597  60.6531931  29.0054559  89.4878869  64.1417994  29.2399633
  90.2122595  64.9130207  29.5018822  89.1638689  64.2835057  28.2089285
  88.6264129  64.2126447  29.9039983  91.8741009  63.0836334  32.9155994
  91.2873692  63.7654335  33.7748431  92.7177821  62.0934509  33.2154620
  93.0872716  61.5271566  32.4652037  93.0837571  61.7564010  34.5726531
  92.2208742  61.3743176  35.1181294  94.1612463  60.6726240  34.5419344
  94.7300544  60.7680289  33.6170267  94.8268773  60.8139386  35.3934422
  93.5212956  59.2546550  34.6134613  93.0124871  59.2187247  35.5767493
  92.7827903  59.2333727  33.8120506  94.6034260  57.8200429  34.4607012
  95.3644940  57.6712141  36.1220276  94.5837528  57.5219641  36.8678604
  96.0461149  56.8207306  36.1351191  95.9167308  58.5823425  36.3522032
  93.5528045  62.9896477  35.2945603  92.9406604  63.3866893  36.3077546
  94.6009421  63.6322374  34.7502012  95.0408038  63.2399898  33.9299799
  95.1229600  64.8911608  35.2821694  95.6555187  64.6975914  36.2133038
  96.0902811  65.5561779  34.2929252  95.5587040  65.6854388  33.3501545
  96.3576614  66.5331481  34.6955877  97.3187618  64.7656609  34.0614950
  97.6171191  63.8891636  34.8961449  97.9829311  65.0250327  33.0473548
  94.0164848  65.9002528  35.5462889  93.9062353  66.4969052  36.6233298
  93.2148686  66.1329099  34.5166156  93.3414656  65.6996947  33.6130687
  92.1612053  67.1140935  34.6656133  92.5591237  68.0342000  35.0935903
  91.5642693  67.4307150  33.2996634  92.3804538  67.5448768  32.5862846
  90.9333684  66.5944784  32.9983788  90.7540910  68.6769592  33.3288616
  89.7025245  68.4419970  33.1642365  90.8683704  69.1734764  34.2924553
  91.2386428  69.5826187  32.2409666  90.5953726  70.4600448  32.1744396
  92.2614158  69.8974424  32.4481401  91.2142244  68.8833631  30.9522582
  91.9541601  68.2232470  30.7603172  90.2804115  69.0721485  30.0308775
  89.3298077  69.9726890  30.1930819  89.3070293  70.5327419  31.0332734
  88.6293258  70.0978040  29.4763036  90.2983378  68.3367978  28.9183794
  91.0209927  67.6436416  28.7864530  89.5891782  68.4764426  28.2129074
  91.0737925  66.6614587  35.6471917  90.2972085  67.5023124  36.1088098
  90.9766895  65.3711309  35.9736441  91.4190409  64.6397044  35.4356480
  90.1253015  64.9865104  37.0966875  89.3517118  65.7458068  37.2112619
  89.4657923  63.6093226  36.8856611  90.2510886  62.9030588  36.6162141
  88.7049037  63.0864417  38.1696389  87.9190974  63.7920020  38.4394422
  88.2618589  62.1131055  37.9588578  89.4085687  62.9933128  38.9968522
  88.4693937  63.7192052  35.7604510  87.5397265  64.1345370  36.1494487
  88.8709963  64.3830306  34.9948462  88.2066166  62.3933295  35.1721120
  87.8045311  61.7290410  35.9370617  87.4849437  62.4916585  34.3611750
  89.1358021  61.9775335  34.7824611  90.9031402  65.0054314  38.4119377
  90.4331879  65.5762020  39.4025550  92.0920706  64.3692336  38.4538394
  92.4708525  63.8700883  37.6617046  92.8231499  64.3174141  39.7208781
  92.1713707  63.9221300  40.5000017  94.0581105  63.4166476  39.6119103
  94.4480285  63.2686200  40.6189610  93.7329791  62.4594024  39.2043918
  95.1609636  64.0062188  38.7171596  94.7940508  64.0050275  37.6907706
  95.3377020  65.0328011  39.0380869  96.4603126  63.2219950  38.7910933
  97.2706342  63.8411161  38.4061689  96.6616641  62.9665046  39.8314209
  96.3599436  61.9379729  37.9602633  97.2467594  61.3380666  38.1646419
  95.4723788  61.3968478  38.2881530  96.2665467  62.2047829  36.4915263
  97.0890905  62.7058179  36.1874122  96.2028494  61.3283934  35.9935463
  95.4446360  62.7602971  36.3018795  93.1970803  65.7284627  40.1732408
  93.5801410  65.9173873  41.3376032  93.0376150  66.7185359  39.2969430
  92.8795232  66.5140260  38.3205813  93.1617961  68.1170724  39.7003183
  93.9422094  68.2159967  40.4548170  93.5333779  68.9986385  38.4871583
  94.3306673  68.4858595  37.9491187  92.6494605  69.0614770  37.8524606
  93.9959859  70.4124193  38.8601874  94.2480849  70.3971392  39.9205239
  94.8931510  70.6197374  38.2769070  92.9617943  71.4962668  38.6010883
  92.6333847  71.4257846  37.5641320  92.1111452  71.3335765  39.2629249
  93.5539524  72.9006078  38.8593541  92.8283682  73.5970050  38.4390458
  93.5723243  73.0065301  39.9440393  94.9320394  73.2055093  38.2977571
  94.9151229  73.1078356  37.2926335  95.1926208  74.1508124  38.5398304
  95.6046043  72.5605953  38.6874254  91.8699927  68.6034667  40.3613490
  91.8469373  68.9092377  41.5556214  90.7921922  68.7139401  39.5869371
  90.8322113  68.4633788  38.6093294  89.5363865  69.2335042  40.1168231
  89.6724619  70.2562800  40.4682665  88.4741262  69.2311299  39.0260604
  88.9304285  69.6568566  38.1323914  88.2094088  68.1906646  38.8377610
  87.2330780  70.0092124  39.3748125  86.8124612  69.6068343  40.2963732
  87.4863980  71.0594012  39.5198456  86.1792132  69.9087247  38.2722064
  85.0625397  70.4176336  38.4143222  86.5305930  69.2414783  37.1751232
  85.8730750  69.1440880  36.4146715  87.4530815  68.8357097  37.1082794
  89.0329028  68.4336415  41.2992836  88.0679716  68.8670008  41.9347051
  89.6373196  67.2722191  41.5749288  90.2045278  66.8137209  40.8762488
  89.4764072  66.6257718  42.8613246  88.4337897  66.6851959  43.1736012
  89.8770608  65.1629820  42.7834797  90.9091106  65.2149091  42.4366715
  89.8571180  64.7952377  43.8093776  89.0912213  64.2184821  41.8924836
  89.0776605  64.5624906  40.8582809  89.8225705  62.8872014  41.9740995
  89.8361387  62.5423029  43.0080046  89.3105821  62.1521271  41.3531047
  90.8458016  63.0118592  41.6197565  87.6934951  64.0710813  42.2679145
  87.1995495  65.0415494  42.2198640  87.2034084  63.3801696  41.5819427
  87.6287680  63.6809259  43.2836350  90.3165830  67.3134450  43.9323667
  89.8839510  67.4281811  45.0831113  91.5338578  67.7291438  43.5806087
  91.9510258  67.4486686  42.7045928  92.3204917  68.5524890  44.4871900
  92.5913145  67.9869569  45.3787771  93.6339257  69.0018669  43.7612928
  94.2075266  68.1247145  43.4618184  93.3837355  69.5904621  42.8786486
  94.4655314  69.8503653  44.7191854  93.8896972  70.7469436  44.9486699
  94.6116798  69.2699744  45.6301679  95.8087858  70.2461940  44.1539905
  96.4573997  69.3826580  44.0066655  95.7094122  70.7898056  43.2144636
  96.4274650  71.1364690  45.1511898  95.8951456  71.3252128  45.9885136
  97.6221842  71.6676207  45.0355268  98.0737724  72.4685333  46.0151498
  97.4939314  72.6508732  46.8217702  98.9910413  72.8846414  45.9405086
  98.4061411  71.4212475  44.0132016  98.0938907  70.8019247  43.2790088
  99.3184015  71.8520040  43.9649471  91.5202151  69.7537049  44.9676978
  91.5447430  70.1061312  46.1616304  90.7773407  70.3886523  44.0678086
  90.7334176  70.0792359  43.1073756  90.0311421  71.5890216  44.4444663
  90.6480501  72.2009265  45.1025668  89.6404273  72.4263677  43.2204731
  88.6640809  72.0590248  42.9043936  89.5443086  73.4521116  43.5764375
  90.5989347  72.3869142  42.0468259  91.5860155  72.7047763  42.3825879
  90.6527745  71.3613208  41.6816429  90.1292382  73.2952500  40.9312363
  88.9706869  73.8035512  41.0673613  90.9046875  73.4967439  39.9546578
  88.7459491  71.2815416  45.2294689  87.9055121  72.1670495  45.4380123
  88.5161421  70.0338336  45.6322771  89.1142971  69.2872735  45.3083048
  87.3765496  69.6904008  46.4754424  86.7530790  70.5685845  46.6433030
  86.5326479  68.6161581  45.7846476  87.1659766  67.7772092  45.4962750
  85.7333624  68.2606389  46.4349159  85.8594831  69.1232084  44.4960736
  85.9122120  70.3801405  43.9825979  86.4826799  71.1181141  44.5465670
  85.2054934  70.4428701  42.8190848  85.1061743  71.2640122  42.2394634
  84.6547846  69.2176943  42.5617034  83.8686438  68.7948527  41.5140596
  83.6125669  69.5003863  40.7236510  83.4564520  67.4949127  41.5390562
  82.8109534  67.1362856  40.7372967  83.8351500  66.6025590  42.5623537
  83.5111384  65.5618305  42.5624204  84.6231897  67.0254066  43.5853725
  84.9393114  66.2911935  44.3263845  85.0369258  68.3616782  43.6119959
  87.7924486  69.2281554  47.8635797  87.2764374  69.6446702  48.8998667
  88.8474861  68.2577480  47.8415938  89.1560791  67.8799577  46.9572046
  89.5370939  67.8133758  49.0732988  89.2099768  68.4490328  49.8961194
  89.2558916  66.3616760  49.4382671  88.1819843  66.2384754  49.5784247
  89.5859189  65.7443482  48.6027503  89.9830802  65.9345218  50.7009757
  90.1205250  66.7791849  51.6076544  90.3919149  64.7643601  50.7759540
  91.0199701  67.9543582  48.7516201  91.4419373  67.6372405  47.6402070
  91.7984773  68.3871902  49.6075716  91.3798592  68.5374423  50.5143696
  93.2065105  68.8025937  49.4063197  93.3319071  69.1177818  48.3704475
  93.6241006  69.9623885  50.3271239  93.4364784  69.6327583  51.3490050
  94.6950036  70.1054409  50.1828918  92.8948591  71.2840897  50.0758413
  91.8345653  71.1210024  50.2689227  93.2870039  72.0067257  50.7914660
  93.0764703  71.8205321  48.6617564  92.0625492  72.0963798  47.9732036
  94.2410807  71.9763059  48.2369609  94.1190971  67.5935576  49.5533518
  95.3191893  67.8614982  49.5627090  93.8477015  66.3101437  49.6712802
  92.8625989  66.1456287  49.8216367  94.7570444  65.1526699  49.6750091
  95.6034323  65.3622732  50.3290680  94.0498396  63.8782136  50.1775661
  93.1830742  63.6806786  49.5468546  94.7789675  63.0775657  50.0533267
  93.5974367  63.9036007  51.6333219  93.2887148  64.9527529  52.2233724
  93.5001172  62.7262082  52.2356015  93.2051444  62.6787924  53.2004033
  93.7214141  61.8822905  51.7267485  95.3233944  64.9465784  48.2756710
  94.5952636  65.1036758  47.2943261  96.6291256  64.6252637  48.1960978
  97.1496151  64.5942400  49.0610993  97.3587535  64.4499492  46.9415808
  96.9782633  65.1561930  46.2036471  98.8697922  64.6935115  47.1230513
  99.0569844  64.4482460  48.1684714  99.4024424  63.9891205  46.4841326
  99.3633897  66.1188036  46.8357743  98.7984121  66.5152186  45.9921178
  99.1795044  67.0340799  48.0471935  99.7446016  66.6385361  48.8911775
  99.5400802  68.0339903  47.8058117  98.1225900  67.0829539  48.3091928
 100.8169681  66.1117915  46.4234353 100.9365216  65.5110258  45.5218329
 101.1438834  67.1325514  46.2252511 101.4206046  65.6867311  47.2253366
  97.1282951  63.1170902  46.2385346  96.9975852  62.0845025  46.8351882
  97.0832939  63.1914243  44.8840205  97.1140686  64.1393595  44.5367870
  96.9170479  62.0997209  43.9149597  95.9847178  61.5726747  44.1176473
  96.8744581  62.6360780  42.4796880  96.2609864  63.5370459  42.4826382
  97.8944141  62.8925703  42.1933291  96.2980514  61.6272564  41.4726029
  95.5168552  61.0598137  41.9784113  95.8611274  62.1909280  40.6483009
  97.3482049  60.6716191  40.9317480  98.1246986  61.2463139  40.4268894
  97.7875944  60.1198234  41.7627462  96.7166091  59.6859823  39.9412048
  95.9032708  59.1722765  40.4537355  96.3140311  60.2617040  39.1077933
  97.6949077  58.6790836  39.4247661  98.0677425  58.1452097  40.1968234
  97.2290566  58.0573623  38.7793628  98.4484273  59.1548664  38.9494367
  98.0171803  61.0607835  44.0886370  97.7682171  59.8614601  43.9318901
  99.2305105  61.5534636  44.4370177  99.2367431  62.5634034  44.4460807
 100.4868564  60.8470510  44.7171968 101.0233711  60.6454065  43.7900557
 101.3825664  61.7304269  45.6265590 101.5345333  62.6914755  45.1352434
 100.7808279  61.8729628  46.5241637 102.7332944  61.1368201  46.0097181
 103.6079424  61.0128862  45.1163647 102.9364973  60.8519477  47.2113047
 100.2930897  59.4630965  45.3504458 100.8869592  58.4825166  44.8825826
  99.4548516  59.3906134  46.3986400  99.0426097  60.2472006  46.7398352
  99.2095273  58.1649683  47.1398702  99.8024943  57.3459613  46.7327869
  99.6142269  58.3817784  48.6151863 100.6114939  58.8207835  48.6440339
  98.8884319  59.1053104  48.9864316  99.5828790  57.1455641  49.4847106
 100.5625784  56.3615950  49.4406356  98.6063464  56.9872324  50.2539161
  97.7616884  57.6581898  46.9873311  97.5433455  56.6334788  46.3379231
  96.7840204  58.3949515  47.5558137  97.1161416  59.2024746  48.0634565
  95.3533846  58.0748833  47.6169502  95.1922276  57.2458954  48.3060850
  94.5482646  59.2796155  48.1050854  93.4927396  59.0549889  47.9517584
  94.7431812  59.3965956  49.1711169  94.8783312  60.4824342  47.4296329
  94.3441775  61.2009238  47.7761185  94.7158519  57.5050335  46.3296040
  93.9922569  56.5138913  46.4118808  94.9137571  58.0229740  45.1954303
  95.5704196  58.7903670  45.1966794  94.1888658  57.7226403  43.9420626
  93.2248955  57.2631504  44.1605334  93.9476688  59.0232441  43.1771007
  94.8607610  59.6001088  43.3240328  93.8359223  58.7839340  42.1195831
  92.7476399  59.8435882  43.6422847  92.6043802  59.6831541  44.7108531
  92.9709636  61.3208038  43.3785241  93.1138512  61.4820956  42.3100360
  92.1031374  61.8862826  43.7179532  93.8565840  61.6568832  43.9178084
  91.4835233  59.3725472  42.9524914  91.3085299  58.3233334  43.1904559
  90.6379283  59.9684142  43.2960215  91.5934132  59.4865446  41.8740538
  94.8725957  56.6274703  43.0963711  96.1001338  56.5848388  43.0266733
  94.0852287  55.6621386  42.3949368  92.6744481  55.4628396  42.4893088
  92.1941769  56.4296542  42.3386126  92.4587102  55.1034615  43.4954914
  92.2999117  54.4562017  41.4249382  92.0829210  54.9536924  40.4796778
  91.4343268  53.8699692  41.7334759  93.5494787  53.5733556  41.3192128
  93.6706159  53.1327234  40.3296331  93.5887100  52.7875276  42.0735568
  94.6517109  54.5892036  41.5708694  95.4308766  54.0848715  42.1424009
  95.2424551  55.1383516  40.2882752  94.9073861  56.2371740  39.8502786
  96.1661231  54.3610209  39.6336698  96.3318354  53.4195131  39.9595561
  96.9640946  54.8570858  38.5186764  96.8656114  55.9395830  38.4374368
  98.4468669  54.5139997  38.7494393  98.9546384  54.4483211  37.7871744
  98.9079662  55.2979295  39.3502233  98.5574450  53.2648410  39.4317325
  99.4843011  53.0577808  39.5719594  96.5538562  54.3348682  37.1451127
  96.9477039  54.9335879  36.1415194  95.9474621  53.1453305  37.1026128
  95.8284689  52.6054626  37.9478836  95.4871712  52.5587557  35.8253970
  96.3161577  52.5686963  35.1177377  94.9943146  51.1202328  35.9801395
  94.2333886  51.0960994  36.7602089  94.5547271  50.8028460  35.0345558
  96.0959549  50.1527731  36.3496858  96.3982318  49.9650149  37.5252301
  96.7003724  49.5326693  35.3492020  97.4433191  48.8759656  35.5412185
  96.4159910  49.7189048  34.3981266  94.3902013  53.4854151  35.3195110
  93.7309222  54.0789770  36.1586822  94.2437682  53.7482880  34.0087539
  95.0390280  53.3684643  32.8588622  95.3133872  52.3205297  32.9799424
  95.9397669  53.9822575  32.8639977  94.1855210  53.6074600  31.6337581
  93.5816552  52.7293937  31.4047501  94.8055277  53.8560954  30.7724374
  93.3097925  54.7988590  32.0399380  92.3531179  54.7631135  31.5187904
  93.7601454  55.7822056  31.9046187  93.1023997  54.5227356  33.5201992
  93.0602247  55.4872448  34.0262047  91.8159383  53.7300225  33.8194649
  90.8202304  54.3610495  34.0981256  91.8608806  52.3978926  33.7182426
  92.7149396  51.9790585  33.3787420  90.6782406  51.5075484  33.9561710
  89.7606003  51.8946535  33.5132431  90.9211989  50.0637498  33.4585779
  90.1743740  49.4060086  33.9032457  90.8176660  49.9956604  31.9394351
  91.5645431  50.6528363  31.4940193  90.9916335  48.9718157  31.6084093
  89.8226769  50.3135682  31.6279379  92.2391604  49.4552695  33.9592876
  92.9864636  49.6677519  33.1947682  92.4956779  49.9875534  34.8752418
  92.2071381  47.9690850  34.2327620  91.9511248  47.4360658  33.3170941
  93.1868235  47.6420357  34.5811216  91.4603370  47.7558671  34.9975666
  90.2384319  51.5269756  35.4331604  89.0244057  51.3835345  35.6608089
  91.1604976  51.5957990  36.4070173  92.1428837  51.5867803  36.1726340
  90.7838503  51.6113994  37.8247953  89.8940926  51.0024252  37.9847353
  91.9209310  51.0418618  38.6638903  92.7634428  51.7242075  38.5512964
  91.6092168  51.0194831  39.7081286  92.3378574  49.6475503  38.2304854
  91.6282882  48.9975582  37.4176042  93.3781197  49.1859752  38.7313804
  90.4063439  53.0112100  38.3179315  89.4622550  53.1735331  39.1018992
  91.1433259  54.0254162  37.8973637  91.9923577  53.8777375  37.3706425
  90.7846741  55.3880269  38.2598030  90.8480683  55.5338384  39.3381440
  91.7820136  56.3484879  37.5719087  92.7780358  55.9576016  37.7798673
  91.6268829  56.3913749  36.4938571  91.7655375  57.7635942  38.0639745
  90.9019208  58.6898756  37.4906412  90.2275979  58.3579882  36.7011862
  90.8868390  60.0291424  37.9092126  90.1868816  60.7344323  37.4611873
  91.7492318  60.4473268  38.8774969  91.7474030  61.4888421  39.1989662
  92.6365684  59.5389183  39.4583082  93.3180247  59.8781902  40.2384441
  92.6552339  58.2021293  39.0459833  93.3641011  57.5042115  39.4915366
  89.3430789  55.6587530  37.8770714  88.5657761  56.1848362  38.6832878
  88.9465022  55.2550868  36.6657265  89.5649300  54.7558724  36.0424838
  87.6080659  55.5882758  36.1913508  87.4740062  56.6699980  36.1933912
  87.4017612  55.0724706  34.7648444  86.5724693  55.6351420  34.3361543
  88.3137465  55.2902860  34.2090214  87.1195942  53.6765906  34.6865451
  87.0026397  53.4248350  33.7675562  86.5279960  55.0297566  37.1032974
  85.4585716  55.6379613  37.2128574  86.7849717  53.8795397  37.7391981
  87.6508125  53.3967316  37.5460260  85.8332792  53.2544234  38.6496980
  84.8146998  53.3803228  38.2826224  86.1346051  51.7756400  38.7410016
  87.2156921  51.6685158  38.8297390  85.6545795  51.3547962  39.6244980
  85.6566827  51.0436967  37.5133146  84.4471653  51.3292311  36.9331328
  83.8310938  52.1028865  37.3914041  84.0028706  50.6721986  35.8058030
  83.0410255  50.9265221  35.3605220  84.7793119  49.6739910  35.2494761
  84.3650382  49.0236931  34.1301075  83.5169362  49.3364354  33.8068200
  85.9877689  49.3434501  35.8201033  86.6122574  48.5531891  35.4034475
  86.4111073  50.0451530  36.9590259  87.3645833  49.8001842  37.4269723
  85.8849673  53.9321869  40.0145342  84.8450916  54.3386881  40.5611247
  87.0810946  54.1185237  40.5745085  87.9145222  53.6473951  40.2527388
  87.1876273  54.9997822  41.7386289  86.8737502  54.4690236  42.6374479
  88.6080264  55.4489450  41.9183985  89.2731131  54.5887198  41.8424274
  88.9086987  56.2051766  41.1932708  88.8262584  56.0335257  43.2515471
  89.3604884  55.4116198  44.3500098  89.6545257  54.3690035  44.2292078
  89.4092796  56.2757352  45.4042119  89.7977138  56.0739161  46.3144248
  88.8658362  57.4650532  45.0220065  88.6912622  58.6371879  45.7414967
  89.0022724  58.6692908  46.7856905  88.1250828  59.7017271  45.0725138
  87.9711893  60.6400011  45.6054854  87.7360690  59.6122871  43.7086510
  87.3053340  60.4636543  43.1816399  87.8942327  58.4469331  43.0200594
  87.5580701  58.4146705  41.9836933  88.4854442  57.3470051  43.6685478
  86.2828132  56.2126563  41.6325218  85.4072213  56.4455750  42.4634940
  86.4010759  56.9282053  40.5125591  87.0776446  56.6844811  39.8033675
  85.5939614  58.1420694  40.3183112  85.5634246  58.8477018  41.1485218
  86.0952187  58.8841078  39.0571272  86.0987332  58.1854335  38.2205024
  85.2298937  60.0309336  38.7347606  85.2262394  60.7303200  39.5707907
  85.6075097  60.5325428  37.8437528  84.2144214  59.6801363  38.5507531
  87.5607392  59.2111810  39.2571994  88.1234049  58.2884694  39.3990182
  87.9394687  59.7359157  38.3800921  87.6753541  59.8448356  40.1366573
  84.1117356  57.8003772  40.2184699  83.2498819  58.5748211  40.6130299
  83.7929306  56.6497918  39.6249190  84.4952220  56.0078442  39.2861131
  82.3901224  56.3087533  39.4233849  81.8471992  57.1380428  38.9699398
  82.3030098  55.1046828  38.4952821  82.8344117  54.2632944  38.9400040
  81.2574300  54.8353590  38.3458573  82.7547433  55.3522790  37.5346926
  81.7219595  56.0020645  40.7565145  80.5430886  56.3208846  40.9951482
  82.4726665  55.3609233  41.6349960  83.4112067  55.0673871  41.4046088
  81.9574349  55.0345640  42.9334975  80.9459808  54.6421887  42.8281335
  82.8328166  53.9615603  43.5846971  83.8467636  54.3429920  43.7052018
  82.4243047  53.7021290  44.5613821  82.8518021  53.0741750  42.9520154
  81.8960568  56.2496745  43.8421932  81.0667172  56.2720617  44.7509548
  82.7560899  57.2546790  43.6537305  83.4061444  57.2855465  42.8813474
  82.8573285  58.2811788  44.6835493  82.2579759  58.0032207  45.5505065
  84.3072814  58.4311423  45.1224179  84.9616660  58.4024945  44.2511779
  84.4153140  59.3918452  45.6258849  84.7297707  57.3243492  46.0868679
  84.4873158  57.3750593  47.3173581  85.3503296  56.3003807  45.5414992
  85.6575685  55.5327223  46.1215033  85.5165855  56.2867353  44.5453699
  82.2534659  59.6159335  44.3026490  82.2846913  60.5384339  45.1188414
  81.6177589  59.6941808  43.2537725  81.4830578  58.9056119  42.6372386
  81.0001529  60.9664422  42.8946602  81.5974450  61.7986119  43.2672658
  80.9153731  61.0686627  41.3937357  81.1352709  60.0453835  41.0893609
  79.8646782  61.2863637  41.2020419  81.7773287  62.0225976  40.6072786
  81.4825343  63.0502090  40.8199092  83.2088470  61.8199023  41.0091481
  83.5045247  60.7925748  40.7963765  83.8448079  62.5042030  40.4475547
  83.3185016  62.0154869  42.0758359  81.5575613  61.7443433  39.0995483
  80.5074220  61.8971537  38.8506392  82.1727415  62.4245994  38.5105608
  81.8376403  60.7151787  38.8748819  79.5839867  61.0910546  43.4273133
  78.7808237  60.1807854  43.2036171  79.1946909  62.2710811  44.0203193
  79.9653584  63.3426874  44.4588071  80.5969486  63.6595088  43.6288563
  80.5922382  62.9886521  45.2772078  78.9991520  64.4196547  44.8971294
  78.7330044  65.0656529  44.0604988  79.4277219  65.0217056  45.6983560
  77.7874533  63.6244787  45.3981388  76.8196332  64.1242508  45.3575076
  77.9781481  63.2852387  46.4162995  77.7973558  62.4392396  44.4461308
  77.5558512  61.5530507  45.0330234  76.7708060  62.6105587  43.3463465
  76.1961809  63.6849534  43.2216472  76.4383063  61.5543785  42.6199456
  76.7708988  60.6302700  42.8555409  75.6312016  61.7121562  41.4175675
  75.3590994  62.7630839  41.3195338  76.4002839  61.2641135  40.1664735
  75.7063630  61.0069352  39.3662025  77.2711816  62.4158844  39.7260929
  77.9657296  62.6733505  40.5257271  77.8321537  62.1285837  38.8367846
  76.6453739  63.2785194  39.4973468  77.2676219  60.0470312  40.4945823
  78.0120766  60.3508282  41.2305140  76.6243287  59.2794554  40.9248157
  77.9652061  59.4925796  39.2710050  78.6090814  60.2594920  38.8404589
  78.5682519  58.6302952  39.5554352  77.2213329  59.1881211  38.5347594
  74.3335593  60.9470468  41.5221103  74.2057745  60.0105207  42.3040680
  73.3456459  61.3998443  40.7281138  73.3936098  62.3098079  40.2924935
  72.1512711  60.6022331  40.5248768  71.5452201  60.6303086  41.4304226
  71.3131736  61.1199919  39.3615766  71.9632814  61.2094175  38.4912535
  70.5382425  60.3801344  39.1610955  70.6690715  62.4595703  39.6497350
  70.6933377  62.9771994  40.7851699  70.1003224  63.0716523  38.7252979
  72.5846294  59.1584843  40.2897620  73.6025807  58.8863833  39.6379198
  71.8558310  58.2239462  40.8879136  71.2677520  58.4453070  41.6786486
  71.9172608  56.8318964  40.4363146  72.8973668  56.4101261  40.6590279
  70.8359466  55.9873240  41.1654772  70.0059907  56.6735075  41.3340731
  70.5096176  55.1762311  40.5145257  71.2956246  55.4169077  42.4900811
  72.5326828  55.2622099  42.7220843  70.4115263  55.0722073  43.2835468
  71.7128507  56.7361578  38.9082087  72.2745902  55.8362216  38.2596545
  70.9161987  57.6469167  38.3207056  70.3372338  58.2934671  38.8373015
  70.8544345  57.6756446  36.8619846  70.4457533  56.7315884  36.5016559
  69.9753439  58.8084928  36.3596704  69.8409871  58.7126920  35.2822337
  69.0041935  58.7594664  36.8521774  70.5836161  60.0398884  36.6471976
  70.0265110  60.7540118  36.3289813  72.2450600  57.8235312  36.2799155
  72.5899305  57.2058748  35.2767177  73.0827871  58.5917959  36.9227287
  72.8616486  59.0331265  37.8038781  74.3729815  58.8874383  36.3046059
  74.2641160  58.9729102  35.2234297  74.9081507  60.2196026  36.8508852
  74.5895351  60.3150803  37.8888964  75.9971478  60.2199125  36.8041364
  74.3613787  61.4001968  36.0378030  73.2735613  61.3501582  35.9903661
  74.7684747  62.6551073  36.7093344  75.8562493  62.7060827  36.7567364
  74.3894466  63.5083199  36.1467807  74.3599018  62.6762297  37.7196425
  74.9183929  61.3359382  34.6355865  74.6179449  60.3986198  34.1673294
  74.5334613  62.1725456  34.0524768  76.0063829  61.3902022  34.6734299
  75.3318565  57.7356521  36.5592615  76.1233578  57.3529114  35.6891596
  75.3020007  57.2148285  37.7782711  74.8092831  57.6826848  38.5255590
  76.0199524  55.9839003  38.0879130  77.0937237  56.1672017  38.1268342
  75.5564071  55.4632909  39.4706370  74.5714688  55.0174141  39.3321104
  76.2636893  54.6926322  39.7771284  75.4787605  56.5530117  40.5611946
  75.3122339  57.5179266  40.0823326  74.6431518  56.3278283  41.2238805
  76.7910038  56.6047486  41.3842620  77.6272232  56.5591761  40.6865807
  76.8154133  57.5546456  41.9183025  76.9297737  55.5188295  42.3533567
  76.4967717  54.6329567  42.1346377  77.5841105  55.6397392  43.5116974
  78.1112698  56.8019024  43.8943538  78.0187671  57.6144391  43.3016250
  78.6009971  56.8650746  44.7754191  77.7273453  54.5627598  44.3057888
  77.3404882  53.6742568  44.0211768  78.2210511  54.6478551  45.1827792
  75.7969301  54.9141805  37.0042260  76.7243551  54.2100921  36.6230642
  74.5551256  54.7259740  36.5746170  73.7962625  55.2865932  36.9350781
  74.2403622  53.6653900  35.6230249  74.7268223  52.7359668  35.9190458
  72.7187261  53.4642293  35.6093155  72.2351871  54.4390140  35.6732329
  72.2728784  52.7566313  34.3258744  72.7556796  51.7815123  34.2614820
  71.1908765  52.6255558  34.3397251  72.5543910  53.3586251  33.4618991
  72.2199686  52.6168934  36.7947685  72.4799511  51.5815589  36.5743314
  72.7705806  52.9498002  37.6745974  70.7354893  52.7173790  37.0619254
  70.1841782  52.3841780  36.1826456  70.4755659  52.0880998  37.9131285
  70.4748074  53.7524204  37.2829095  74.7925374  54.0389423  34.2559525
  75.4670727  53.2387795  33.5754706  74.5470892  55.2821320  33.8413483
  73.8492465  55.8663740  34.2792709  75.2241471  55.7870513  32.6487695
  74.8327368  55.3079807  31.7513351  74.9786192  57.2804422  32.5473559
  73.8957669  57.4047213  32.5565574  75.4011996  57.7131830  33.4541421
  75.5611423  57.9879946  31.3271914  76.6366199  57.8107083  31.3229180
  75.1209059  57.5698625  30.4219514  75.3138639  59.5023381  31.3383785
  76.1362392  60.3093462  30.8807312  74.1817435  59.8839639  31.8853219
  73.9510903  60.8663350  31.9283034  73.5474321  59.1931630  32.2602149
  76.6968337  55.4266270  32.6651876  77.2503636  55.0532547  31.6291646
  77.3455977  55.4462917  33.8388710  76.9249708  55.5682009  34.7489867
  78.7947537  55.3127912  33.7597228  79.1563612  55.8417398  32.8779333
  79.4757812  55.8886277  34.9821200  79.0893161  55.3945804  35.8735578
  80.5527224  55.7327134  34.9189674  79.1859815  57.3662420  35.0612475
  78.1162117  57.5679432  35.0063840  79.7305856  57.8190232  36.4553890
  80.8004617  57.6180508  36.5108340  79.5548014  58.8868759  36.5853554
  79.2166523  57.2682036  37.2431521  79.8900202  58.0914332  33.9089345
  79.5266905  57.7020362  32.9579030  79.6791781  59.1592084  33.9681199
  80.9655662  57.9294921  33.9801719  79.1964071  53.8715595  33.6152802
  80.2885310  53.5554407  33.1421413  78.3466869  52.9810200  34.1513669
  77.5275091  53.3136702  34.6396199  78.5902346  51.5185547  34.1015698
  79.6284515  51.3022656  34.3534109  77.6812820  50.8047096  35.1122370
  77.6472853  51.4846872  35.9634560  76.6858063  50.7185993  34.6766763
  78.1546410  49.4252064  35.5798344  78.5535694  48.8873082  34.7198213
  79.2313931  49.5375204  36.6524520  78.8330363  50.0749352  37.5130309
  79.5435385  48.5396523  36.9605515  80.0888281  50.0784198  36.2520353
  76.9859768  48.6003559  36.1021854  76.2502774  48.4685440  35.3087930
  77.3463101  47.6247928  36.4285866  76.5236537  49.1164854  36.9435930
  78.3373809  51.0500460  32.6711605  79.0764529  50.1961763  32.2206974
  77.3608867  51.6497567  31.9732271  76.8280138  52.3733852  32.4342126
  77.0134320  51.3043750  30.5666594  76.7479210  50.2494420  30.4979614
  75.8202521  52.1412573  30.0944290  76.0265168  53.1696957  30.3908555
  75.8053134  52.0732499  29.0066552  74.4675800  51.7157014  30.6476825
  74.1019665  50.9056405  30.0166287  74.6360029  51.3412825  31.6574083
  73.4429801  52.8247312  30.6867089  73.6217114  53.4153906  31.5851941
  73.5912116  53.4498175  29.8061444  72.0212267  52.3020583  30.7009688
  71.8422079  51.7763525  29.7630529  71.9232598  51.6041537  31.5324920
  71.0285334  53.3939855  30.8527050  71.1188556  54.0405600  30.0820669
  70.0969611  53.0037922  30.8574053  71.1939740  53.8809719  31.7219418
  78.2042611  51.5705962  29.6430813  78.3174118  50.8536831  28.6285699
  79.0632595  52.5431855  29.9709152  78.8830625  53.0834278  30.8050414
  80.2393355  52.9140479  29.1269962  79.9842440  53.0967711  28.0831381
  80.9765435  54.1496986  29.7021107  81.2166842  53.9601156  30.7482900
  82.2519180  54.4223426  28.9333578  82.0125257  54.6124884  27.8871090
  82.7518396  55.2941554  29.3554024  82.9109577  53.5569656  29.0032749
  80.0960070  55.4048494  29.7862307  79.3633203  55.2195602  30.5716853
  80.7492945  56.2244593  30.0854872  79.3794606  55.7733041  28.5051611
  78.7255879  54.9543066  28.2055054  78.7844137  56.6721533  28.6666805
  80.1115627  55.9592036  27.7193063  81.1465075  51.6774240  29.0481022
  81.2854535  51.0224940  30.0945938  81.7181051  51.3587214  27.8777297
  81.5300022  51.9524729  27.0826348  82.5620790  50.1418029  27.6699066
  82.4805904  49.4892500  28.5391784  82.1126879  49.3677256  26.4358410
  82.0733247  50.0622747  25.5967038  82.8642342  48.6031672  26.2390448
  80.7596266  48.7115236  26.6112635  80.2534919  48.5261001  27.7368970
  80.1235796  48.3503847  25.6040004  84.0414485  50.5146383  27.5521957
  84.8431445  49.5844573  27.3240450  84.4018414  51.7883269  27.7051674
  83.6650349  52.4500766  27.9034170  85.7622186  52.2922031  27.5571554
  86.4772218  51.4713595  27.5016100  85.8388047  53.1151214  26.2230410
  85.4926964  52.4864576  25.4026203  85.1902837  53.9868058  26.3107154
  87.1613356  53.5368641  25.9666697  87.1845562  54.0372276  25.1477088
  86.1447660  53.1458425  28.7775173  85.3450088  53.9630899  29.2537894
  87.3712703  52.9231067  29.2758163  87.9104835  52.1208566  28.9829969
  87.9218798  53.7830530  30.3084089  87.2477101  53.7681324  31.1647802
  89.2944568  53.2654781  30.7561340  89.9831675  53.2830236  29.9114626
  89.6809530  53.9012883  31.5526679  89.1961126  52.2437646  31.1229163
  88.0103033  55.2463121  29.8264463  87.4931251  56.1449496  30.5096647
  88.6603608  55.5246833  28.6561366  89.1132673  54.8039621  28.1125043
  88.8005468  56.9263372  28.2148611  89.3099162  57.5067415  28.9841288
  89.5892788  57.0324651  26.8783508  89.1573859  56.3369705  26.1587285
  89.5200155  58.4452862  26.3214755  89.9521761  59.1413421  27.0403942
  90.0785159  58.4957551  25.3867933  88.4796212  58.7132207  26.1373832
  91.0532156  56.6299246  27.0852306  91.5156579  57.4158688  27.6823400
  91.0478316  55.6990774  27.6523232  91.8527058  56.4347150  25.7897204
  91.8589277  57.3653410  25.2222731  92.8766823  56.1514212  26.0332692
  91.3910996  55.6485506  25.1922549  87.4246747  57.5578352  28.1182993
  87.1331999  58.6234063  28.6839375  86.5376007  56.8584132  27.4542356
  86.7478906  56.0122296  26.9444799  85.1930066  57.3923300  27.3742753
  85.2214971  58.3991354  26.9575855  84.3140805  56.5143932  26.4748989
  84.7741687  56.3966576  25.4937993  84.1690599  55.5335486  26.9276824
  82.9692948  57.2059966  26.3236931  82.5828867  57.4270683  27.3186388
  83.1735012  58.1388958  25.7982400  81.9275566  56.4476086  25.5639531
  82.1072794  55.2774858  25.1589712  80.7776312  57.1163955  25.3879709
  80.0163847  56.6824294  24.8856974  80.6785757  58.0507043  25.7585871
  84.5819338  57.5519890  28.7666204  83.7925314  58.4853455  28.9862986
  84.9334428  56.6702680  29.7231744  85.5633913  55.8996551  29.5516518
  84.3193537  56.7844782  31.0509106  83.2554084  56.9877679  30.9292844
  84.4821652  55.5077170  31.8851637  84.4214172  54.6424056  31.2251295
  85.4568580  55.5243525  32.3728083  83.3692627  55.4167194  32.9591582
  83.6913360  55.9659283  33.8438837  82.4613801  55.8700611  32.5612479
  83.1002906  54.0217355  33.3213473  82.6503172  53.9694092  34.3127528
  82.4289571  53.5657566  32.5936840  84.3426086  53.2782694  33.3359491
  85.0929343  53.6084522  33.9259407  84.5429398  52.1960089  32.6097360
  83.6197130  51.7595831  31.7452230  82.7506901  52.2637866  31.6418882
  83.7960378  50.9279288  31.1999154  85.6815308  51.5271877  32.7506107
  86.3765677  51.8521157  33.4074559  85.8472085  50.6966684  32.2002587
  84.8997615  57.9866422  31.8102706  84.1615827  58.7658318  32.4440124
  86.1950629  58.2428727  31.6077998  86.7397130  57.6095668  31.0400155
  86.8798917  59.4115482  32.2119961  86.6863322  59.4456945  33.2841285
  88.3933487  59.3025035  31.9905232  88.4812873  59.1523940  30.9144966
  88.8568811  60.2504584  32.2636885  89.0990740  58.1600696  32.7238517
  88.4184006  57.3110572  32.7867996  90.3658028  57.7412649  31.9900411
  91.0472078  58.5896897  31.9271011  90.8482348  56.9278898  32.5320569
  90.1100496  57.4059858  30.9849149  89.4169836  58.5410837  34.1615710
  88.4920436  58.7732299  34.6894855  89.9180204  57.7089815  34.6562117
  90.0690432  59.4144859  34.1708367  86.3228482  60.6864980  31.5679716
  86.3830203  61.7246834  32.2478661  85.8344851  60.6442330  30.3147533
  85.8475883  59.7970218  29.7650617  85.3558514  61.8798702  29.6791209
  85.9620804  62.7248116  30.0057088  85.4584040  61.7634501  28.1374419
  86.5089766  61.5749152  27.9164193  84.8668496  60.8913701  27.8588024
  84.9700323  63.0052594  27.3240454  83.8808987  62.9629099  27.3338019
  85.3040754  63.8808398  27.8807108  85.4954873  63.1075459  25.7850198
  84.6142960  63.1907051  25.1488709  86.0868758  64.0198133  25.7067435
  86.3000511  61.9901347  25.3219593  85.7853754  61.1679056  25.0406274
  87.6351088  61.9544684  25.2731430  88.3957514  63.0133575  25.5781850
  87.9599907  63.8804969  25.8579740  89.4017953  62.9401101  25.5270963
  88.2351439  60.8313485  24.8704514  87.6779905  60.0301458  24.6101548
  89.2433350  60.7883160  24.8280518  83.9451369  62.1835182  30.1451517
  83.5284411  63.3439779  30.2387827  83.1633237  61.1609220  30.4519664
  83.3832953  60.1902078  30.2804274  81.8558018  61.4852125  31.0042942
  81.3927138  62.2934042  30.4381891  80.9670448  60.2670615  30.9214151
  81.1150028  59.7792259  29.9579711  81.2294072  59.5757214  31.7222365
  79.1757869  60.5564554  31.0709518  78.8181526  59.2814454  30.9470752
  81.9888341  61.9975521  32.4330684  81.2065775  62.8588877  32.8613201
  82.9921859  61.5034457  33.1662354  83.6092305  60.7972318  32.7912456
  83.1452985  61.8830549  34.5682619  82.2034598  61.7420803  35.0985121
  84.2239379  61.0062671  35.2376191  85.0027566  60.7834918  34.5082963
  84.6567913  61.5538081  36.0748388  83.5943315  59.6609374  35.7601122
  83.2104624  59.8457483  36.7634020  82.7633356  59.4513486  35.0866009
  84.5491362  58.4500672  35.7903184  85.7854506  58.6771630  35.5199014
  84.0953153  57.3269923  36.0973856  83.4263146  63.3640301  34.6653357
  82.6017461  64.1054265  35.2109045  84.5256317  63.8247967  34.0305443
  85.1786161  63.1796501  33.6092408  84.8469683  65.2574885  34.0037312
  85.1144134  65.5990414  35.0036881  86.0192216  65.5090829  33.0762807
  86.6610905  64.6640958  33.3254801  85.6403543  65.3899448  32.0612114
  86.8192904  66.7972953  33.1699216  87.6344658  66.7144799  32.4510812
  86.0115012  68.0833842  32.8860964  85.1963701  68.1671350  33.6048773
  86.6652005  68.9509499  32.9761390  85.6022339  68.0406806  31.8767515
  87.5034309  66.9567011  34.5289855  88.1857755  66.1226534  34.6929053
  88.0627750  67.8920622  34.5472869  86.7498699  66.9691215  35.3164438
  83.6410343  66.1090867  33.5982974  83.3936288  67.1636258  34.2000215
  82.8358646  65.6443268  32.6355109  83.0692042  64.8121121  32.1129491
  81.6162205  66.3740289  32.2728481  81.8349560  67.4378767  32.1807521
  81.0667656  65.8657714  30.9255880  81.7836861  66.0967962  30.1377099
  80.9668395  64.7844342  31.0195275  79.6932748  66.4810512  30.5689833
  79.5877305  67.7246801  30.4386285  78.7182097  65.7138074  30.3871725
  80.5223424  66.2760010  33.3299120  79.5765538  67.0813798  33.3135413
  80.6184924  65.3169137  34.2353654  81.3187288  64.5935205  34.1549246
  79.6706987  65.2437083  35.3462178  78.7330100  65.6394031  34.9560066
  79.4643789  63.7912386  35.7972442  80.4433814  63.3576102  36.0012565
  78.6028722  63.6938837  37.0349878  77.6234802  64.1269234  36.8315948
  78.4856116  62.6470818  37.3152669  79.0772442  64.2373260  37.8521418
  78.6987985  62.9274232  34.7925002  77.6489610  63.2180838  34.8306884
  79.0967619  63.1347562  33.7991535  78.8281848  61.3908393  35.0982261
  78.4299719  61.1826481  36.0912934  78.2666507  60.8236156  34.3559081
  79.8777738  61.0993209  35.0597608  80.1362131  66.0962911  36.5240433
  79.3451607  66.8552488  37.0994494  81.4246446  65.9874347  36.9069019
  82.0601722  65.3189445  36.4954108  81.9332509  66.8756152  37.9501507
  81.3688676  66.6996231  38.8659003  83.4123337  66.6522025  38.2392974
  83.9763999  67.2344381  37.5106478  83.6082761  67.0360848  39.2404672
  83.8514544  65.1536917  38.1609178  83.5224494  64.5917910  39.0350597
  83.4773447  64.6715340  37.2577744  85.7186807  65.1796592  38.1146959
  86.0407614  66.4285050  39.3328869  85.6261780  66.1170733  40.2916517
  87.1168307  66.5711350  39.4320449  85.5774437  67.3656972  39.0244899
  81.7779411  68.3151673  37.5338544  81.6328978  69.1918546  38.3798544
  81.8273479  68.5763646  36.2217111  82.0432526  67.8541239  35.5495111
  81.6249818  69.9396691  35.7334635  82.3442806  70.6017271  36.2155294
  81.8136039  70.0375268  34.1966865  81.3014190  69.2040993  33.7158909
  81.3549099  70.9751090  33.8826173  83.2888399  70.0353704  33.7463031
  84.2081270  69.9755330  34.5761992  83.5029484  70.0661594  32.4379516
  84.4488971  70.0664051  32.0840012  82.7190829  70.0892201  31.8014582
  80.2352988  70.4442556  36.1158857  80.0994704  71.4811491  36.7556915
  79.1775640  69.6948592  35.7927201  79.2969457  68.7952367  35.3494067
  77.7859532  70.2019310  36.0050862  77.7681432  71.2893729  35.9326141
  76.8538245  69.6254257  34.9374169  76.7763974  68.5564907  35.1361180
  75.8811103  70.0937766  35.0876653  77.3051111  69.8428755  33.4978774
  78.2419591  70.3991564  33.5289936  77.4805320  68.8611390  33.0579650
  76.2975131  70.5987734  32.6584975  75.3415713  70.0823322  32.7454608
  76.2071096  71.6019996  33.0749875  76.6896405  70.6920777  31.1982442
  75.8690677  71.1613780  30.6555491  77.5785614  71.3185780  31.1246505
  76.9732468  69.3619894  30.6104530  76.1495439  68.7814470  30.6781577
  77.2296589  69.4707067  29.6396114  77.7338624  68.9271351  31.1129118
  77.2377309  69.8953735  37.4038299  76.0170009  70.0186152  37.5790059
  78.1008251  69.5405241  38.3581739  79.0800432  69.4659624  38.1222252
  77.6839647  69.2228483  39.7536840  76.8095355  68.5721542  39.7453218
  78.8159054  68.5078049  40.4803884  79.7233649  69.1113025  40.4602119
  78.5375086  68.3057070  41.5146764  79.2588484  66.9147168  39.7614297
  80.2242079  66.6329681  40.6318302  77.3168461  70.5120387  40.4918982
  77.7162871  71.5839937  40.0094584  76.5752361  70.4223240  41.6046762
  76.1568702  69.5519204  41.9004241  76.3016180  71.6437924  42.4060838
  77.1551798  72.2957778  42.2204861  75.0290332  72.3344128  41.8742942
  74.1715351  71.6925052  42.0761654  74.8199271  73.6925146  42.5502327
  75.6768711  74.3351754  42.3484066  73.9162538  74.1589208  42.1578820
  74.7176078  73.5515010  43.6262190  75.2178617  72.6737397  40.4953576
  74.4276480  73.1039623  40.1605872  76.1535451  71.3194716  43.8892020
  77.0546962  70.6672871  44.4304098  75.0908933  71.8091506  44.5268073
  74.4969829  72.4497451  44.0198472  74.7623004  71.5171333  45.9463483
  75.6778237  71.2775111  46.4871786  74.1049372  72.6977008  46.6120841
  73.2274483  72.9844352  46.0325189  73.7973600  72.4082982  47.6169435
  74.9990790  73.7953070  46.6895828  74.5610362  74.5353577  47.1162482
  73.8587210  70.2822778  46.0028293  73.4310338  69.8515588  44.9254033
  73.6487684  69.6951135  47.1843415  74.1062138  70.0794102  47.9986872
  72.7940259  68.4854456  47.3584215  72.3875975  68.1642786  46.3993767
  73.6453996  67.3480585  47.9354296  74.3249549  67.8640805  48.6136811
  72.9995618  66.6812743  48.5067372  74.4570061  66.5300875  46.9237071
  73.8160583  66.3003540  46.0725260  75.6844865  67.2932415  46.4431556
  76.3261870  67.5229419  47.2937772  76.2353111  66.6828576  45.7275268
  75.3716125  68.2208265  45.9637848  74.8572878  65.1877548  47.5206222
  73.9617748  64.6280180  47.7905306  75.4324892  64.6209896  46.7884870
  75.4645556  65.3519564  48.4107697  71.6217684  68.7944971  48.2914492
  71.8596738  68.7851818  49.5149459  70.4004347  69.0033294  47.7736065
  70.2663450  69.0578814  46.7740349  69.2429818  69.1851586  48.6355827
  69.5157998  69.7690431  49.5146438  68.1508372  69.9292096  47.8764618
  67.3273380  70.1833676  48.5438087  68.5493945  70.8396848  47.4289275
  67.4243891  68.9833584  46.5233663  66.5679143  69.9255837  46.1392301
  68.7116582  67.8204516  49.1185027  68.8850062  66.7672890  48.4794745
  67.9952317  67.8652511  50.2345547  67.9018345  68.7360994  50.7375460
  67.3674695  66.6759795  50.7914206  68.0940512  65.8675080  50.8723701
  66.8290614  66.9837313  52.1747451  67.5967818  67.4903582  52.7595823
  66.5489083  66.0546440  52.6711432  65.3682522  68.0509711  52.0960640
  66.2457682  66.1887539  49.8705756  65.5448195  66.9745385  49.2188282
  66.1024742  64.8595893  49.8089300  66.6841938  64.2522806  50.3682848
  65.1681881  64.2470444  48.8616538  65.4386862  64.5339432  47.8454751
  65.2042723  62.7183879  48.9649793  66.2299410  62.3993999  48.7796426
  64.9189371  62.4497290  49.9820861  64.2631257  62.0218774  47.9680168
  63.2435400  62.3286012  48.2013974  64.5248538  62.3643327  46.9668551
  64.3618639  60.5064353  48.0266339  65.3791552  60.2070863  47.7744286
  64.1260359  60.1743009  49.0376588  63.3812656  59.8667636  47.0372826
  62.3763330  60.1930892  47.3050933  63.6275113  60.2315773  46.0401000
  63.4396579  58.3715559  47.0495449  63.2110917  58.0332904  47.9733596
  62.7766358  58.0032776  46.3825570  64.3706561  58.0689601  46.8009948
  63.7531798  64.7840125  49.0666188  63.0735182  65.1666185  48.0984873
  63.3225726  64.8686679  50.3377962  64.0168332  64.8498427  51.0711087
  61.9168208  64.8968658  50.7182954  61.3531186  64.1586385  50.1478924
  61.7911792  64.5629336  52.2130090  61.8134491  65.5155277  52.7423178
  60.8132432  64.0990861  52.3417982  62.8922970  63.6221472  52.7903178
  62.4832249  63.2082379  53.7119684  63.1169196  62.8116643  52.0969461
  64.1777439  64.3498220  53.1160120  64.2606648  65.5482770  52.9097022
  65.1949075  63.6265871  53.5612148  66.0695157  64.0773382  53.7892176
  65.0908967  62.6279178  53.6704971  61.2460922  66.2224825  50.3902671
  60.1931529  66.2272480  49.7398987  61.8839233  67.3525665  50.7301607
  62.7259623  67.2809413  51.2832792  61.3571428  68.7121470  50.4171797
  60.2894545  68.6214413  50.2173942  61.5534444  69.6558007  51.6006232
  60.9800187  69.2935194  52.4538729  61.2102206  70.6544648  51.3304985
  63.2616234  69.7745792  52.1875585  62.0026678  69.2622864  49.1343024
  61.3145126  70.0446629  48.4523937  63.2418894  68.8603483  48.7920386
  63.7196660  68.2485638  49.4382186  63.9609631  69.2813876  47.5517963
  64.9255831  68.7750831  47.5162527  63.1802567  68.9396633  46.2749879
  62.4002941  69.6956476  46.1841837  63.8852649  69.0448686  45.4503696
  62.5512024  67.5542553  46.2306526  63.3281958  66.8095482  46.0580454
  62.0635799  67.3553344  47.1849884  61.5234448  67.4424699  45.1314782
  61.8370369  67.1336748  43.9860859  60.2717738  67.6918312  45.4799328
  59.5373021  67.6335756  44.7890935  60.0564663  67.9393023  46.4351826
  64.2201288  70.7863267  47.5880237  64.4522213  71.3495943  46.5023853
  64.2736354  71.4008910  48.7761326  64.1470446  70.8465878  49.6108913
  64.3695289  72.8809280  48.9187888  64.4629799  73.3333408  47.9315255
  63.1228768  73.4611308  49.6095573  63.0299358  72.9488358  50.5671664
  63.3251638  74.5182630  49.7817534  61.8184074  73.3132360  48.8236954
  61.9302925  73.8565652  47.8854120  61.6913077  72.2509960  48.6149110
  60.5961729  73.8336501  49.5686774  59.4666848  73.7681154  49.0203684
  60.7609147  74.3024588  50.7146078  65.6435705  73.3646550  49.6060205
  66.1816121  74.3576605  49.0931529  66.1313227  72.7201883  50.6746198
  65.6900348  71.8657928  50.9834446  67.2414857  73.2424718  51.4530612
  67.3967294  74.3062543  51.2731570  67.0630407  73.0213771  52.9592429
  67.9763623  73.3430710  53.4596996  65.8805841  73.7958800  53.5168975
  64.9667718  73.4743778  53.0172146  65.7944058  73.6076418  54.5870557
  66.0311715  74.8619758  53.3470039  66.9331428  71.6274600  53.2460248
  66.8222241  71.5042964  54.1916082  68.5119624  72.5713940  50.9354778
  68.5805164  71.3474873  50.8687115  69.4811400  73.3607052  50.4651465
  69.2960911  74.3039119  50.1549572  70.8230593  72.8207319  50.2748086
  70.7540537  71.9485192  49.6247451  71.8000290  73.8285081  49.6435477
  72.7414155  73.2994853  49.4951380  71.3819913  74.1037975  48.6752707
  72.0502222  75.0921645  50.4683828  71.0832391  75.5426273  50.6922751
  72.5272673  74.7770437  51.3964055  72.9347756  76.1130958  49.7643746
  73.3106501  77.1371597  50.3893006  73.2677219  75.8881343  48.5813479
  71.3166057  72.2867835  51.6258704  70.9851594  72.8221031  52.6918091
  72.0999696  71.2110862  51.5937118  72.3594176  70.7540880  50.7311930
  72.5701433  70.6333971  52.8538646  72.2778974  71.2618157  53.6951622
  72.0535173  69.1836898  53.0855936  72.5798135  68.5196655  52.3998936
  72.2893090  68.7107548  54.5478397  71.7629029  69.3740682  55.2341432
  71.9142444  67.6942088  54.6664210  73.3563167  68.7319650  54.7695242
  70.5643762  69.0512998  52.7267528  70.4059115  69.6148879  51.8073191
  70.3729686  67.9942735  52.5419339  69.6227846  69.5535179  53.7924565
  69.8132925  70.6106669  53.9775037  68.5932223  69.4233206  53.4590659
  69.7803514  68.9900536  54.7121198  74.0943266  70.6389032  52.8731241
  74.7031972  70.6931256  53.9439226  74.7185658  70.4955998  51.6943864
  74.2041655  70.2334562  50.8656691  76.1651333  70.6493714  51.5904991
  76.4481311  71.6123546  52.0155576  76.9062767  69.5504467  52.3392393
  76.5819248  69.5299790  53.3796609  76.6011014  68.2313743  51.6948815
  76.9256150  68.2509205  50.6544928  77.1276658  67.4373219  52.2243245
  75.5278610  68.0456250  51.7367467  78.3170413  69.7823794  52.2854018
  78.7744062  69.0844352  52.7600507  76.5533111  70.6639678  50.1182675
  75.6998635  70.6415019  49.2147281  77.8691453  70.7323410  49.8789590
  78.5520274  70.6717353  50.6206451  78.3448780  70.9264102  48.5171160
  77.5698842  70.6166891  47.8160049  78.7151474  72.3968384  48.2253754
  79.1020655  72.4566528  47.2081159  77.5258238  73.3145381  48.3654805
  77.1386153  73.2556117  49.3826810  77.8297631  74.3392539  48.1517575
  76.7486331  73.0126894  47.6633676  79.7369709  72.7955543  49.1492993
  79.9803544  73.7091006  48.9825721  79.5673497  70.0701098  48.2383843
  80.2187484  69.5422539  49.1490730  79.9102945  70.0122308  46.9436415
  79.3276713  70.4645815  46.2536935  81.0527588  69.2321102  46.4799979
  80.9279125  68.1894062  46.7720269  81.1746740  69.3020353  44.9539890
  81.9244761  68.5718921  44.6493798  80.2077697  69.0263385  44.5330527
  81.5779997  70.6945121  44.4417539  80.8511800  71.4127298  44.8212237
  82.5629024  70.9264424  44.8470650  81.6233668  70.7736259  42.9254383
  82.2792323  69.9884181  42.5494221  80.6174174  70.6249968  42.5329149
  82.1511208  72.1396262  42.4733498  83.1322305  72.2844593  42.9256192
  82.2517492  72.1158338  41.3882660  81.2504063  73.2672630  42.8655267
  81.1573721  73.2897511  43.8709811  81.6442323  74.1400600  42.5442379
  80.3413610  73.1334718  42.4461991  82.3338662  69.6630296  47.1450612
  83.2033481  68.8259072  47.4206358  82.4603058  70.9641606  47.4218464
  81.7163001  71.5904736  47.1492901  83.6726018  71.5398843  48.0092328
  84.5554639  71.2231144  47.4539756  83.5756184  73.0850072  47.9455196
  82.8546886  73.4469664  48.6785578  84.5635974  73.4795463  48.1828726
  83.1500073  73.6132693  46.5129135  81.9596780  73.8370194  46.2078200
  84.1339503  73.8393648  45.6735143  83.9325105  74.1773112  44.7432917
  85.0877152  73.6742926  45.9619314  83.9299451  71.0374729  49.4339865
  85.0846839  71.0446512  49.8848176  82.8809779  70.6264986  50.1626216
  81.9626279  70.6245307  49.7422302  83.0083539  70.1970217  51.5859395
  83.7566730  70.8105227  52.0876708  81.6770770  70.3503119  52.3225053
  80.9962672  69.6035056  51.9139989  81.8650637  70.1333037  53.3740130
  81.0511479  71.7307586  52.1940458  80.6347640  71.7910133  51.1885137
  80.2430513  71.7714573  52.9244037  81.9976503  72.8978578  52.4207761
  82.4671590  73.0609859  53.5643468  82.2629023  73.6367650  51.4539197
  83.4676331  68.7348407  51.6640871  83.9537625  68.3443930  52.7359527
  83.3952090  67.9792243  50.5672769  83.0578648  68.3881673  49.7075887
  83.7234548  66.5248834  50.5770889  83.1740586  65.9810875  51.3455608
  83.4609747  65.8768203  49.2019749  83.8824048  66.5222667  48.4313283
  84.0895304  64.4923460  49.1039971  83.6682294  63.8461533  49.8740887
  83.8833399  64.0678462  48.1214564  85.1673277  64.5711799  49.2462547
  81.9595782  65.8337312  48.8967080  81.5301136  65.0631101  49.5368673
  81.5533669  66.8057367  49.1765244  81.6151492  65.5404883  47.4563558
  82.0206592  64.5683654  47.1759302  80.5318481  65.5300887  47.3361489
  82.0439148  66.3109914  46.8155868  85.1756521  66.3494219  51.0100823
  85.9835830  67.2167916  50.6462797  85.4844849  65.3058218  51.7924641
  84.7290860  64.7325379  52.1400518  86.8684571  64.9824258  52.2216226
  87.5569857  65.1815497  51.4004179  87.2896442  65.8229752  53.4269305
  88.3744659  65.9272047  53.4468624  86.8312604  66.8103254  53.3710382
  86.8891471  65.2370100  54.7533026  85.5644226  65.2486579  55.1526348
  84.8134516  65.6848013  54.4939076  85.1875519  64.7135906  56.3756231
  84.1391238  64.7199533  56.6737151  86.1351704  64.1760280  57.2105121
  85.8421046  63.7671452  58.1774801  87.4530504  64.1536411  56.8267307
  88.2029008  63.7229352  57.4902945  87.8315443  64.6765205  55.5996412
  88.8775926  64.6484496  55.2945265  86.9474643  63.4901883  52.5384997
  85.9032715  62.9480527  52.9546193  88.1053652  62.8445041  52.3358955
  88.9130593  63.3483762  51.9984899  88.2247388  61.4177974  52.5442264
  87.2416619  60.9562927  52.4511004  89.1628173  60.7796531  51.5202086
  88.7143630  60.8814106  50.5319610  90.1130016  61.3132047  51.5441362
  89.3846011  59.4073022  51.7991906  89.9761143  59.0381549  51.1393101
  88.7256360  61.0963710  53.9425258  89.7111077  61.6797819  54.3992459
  88.0345611  60.1610944  54.6070580  87.1265167  59.8870642  54.2599814
  88.5113819  59.5581174  55.8391691  89.4130621  60.0698074  56.1756885
  87.4486119  59.6670619  56.9362047  86.5201571  59.8658272  56.4008888
  87.3703232  58.7123217  57.4562452  87.6983444  60.7779135  57.9491900
  88.0929562  61.6478422  57.4242078  86.4025166  61.1629949  58.6741699
  86.0075279  60.2936301  59.1998006  86.6090681  61.9575603  59.3911797
  85.6688588  61.5118126  57.9474150  88.7622407  60.4300386  58.9954460
  89.7100720  60.2269994  58.4969580  88.8853847  61.2679271  59.6816528
  88.4492082  59.5473555  59.5531020  88.8957162  58.1050480  55.6435609
  89.3009047  57.4433103  56.6166932  88.7504600  57.5707335  54.4181428
  88.4034489  58.1369757  53.6571878  89.0540539  56.1719307  54.1546366
  89.6158401  55.7601873  54.9930655  87.7918483  55.3578503  53.9720330
  88.0507523  54.3065799  53.8459440  87.1541393  55.4718383  54.8486368
  87.1046986  55.8119843  52.8298191  86.3034138  55.2964687  52.7124048
  89.9126781  56.0209501  52.9129964  89.8318020  56.8303304  51.9874055
  90.7359877  54.9676028  52.8999641  90.8293590  54.3324377  53.6796733
  91.5805809  54.7569967  51.7334100  92.1405915  55.6631953  51.5025605
  92.5970082  53.6018055  52.0282793  93.1751181  53.8387086  52.9214562
  92.0579280  52.6670592  52.1823632  93.5398459  53.4546561  50.8363824
  92.9469840  53.1114386  49.9885515  93.9493013  54.4407866  50.6173047
  94.6699678  52.4847912  51.0853634  95.3071171  52.8069792  51.9089741
  94.3039231  51.4772025  51.2825326  95.4713491  52.4623875  49.8495737
  95.2043228  51.7923085  49.1426151  96.4786214  53.2677891  49.6010664
  97.1339682  53.1431794  48.4351684  96.8468565  52.4387290  47.7707766
  97.9108586  53.7545001  48.2282193  96.8495651  54.2083369  50.4346877
  96.3528184  54.3318802  51.3053655  97.6304870  54.8053409  50.2026405
  90.7107819  54.4413150  50.5175549  90.9998279  54.8759385  49.3910386
  89.6248983  53.6914964  50.7297195  89.4212895  53.2980911  51.6373951
  88.7716549  53.3134279  49.6024352  89.4026597  52.9529650  48.7900322
  87.7639877  52.2087944  49.9700271  88.3427503  51.3840095  50.3857951
  87.1152891  52.6223295  50.7422180  86.9109635  51.6977239  48.8079662
  86.3096801  52.5300359  48.4421578  87.5990463  51.3760700  48.0261862
  85.9973044  50.5401228  49.1873019  85.2397171  50.0425292  48.3165418
  86.0422995  50.1139073  50.3610607  88.0772861  54.5462809  49.0130699
  87.8535641  54.6374356  47.7899557  87.7054001  55.5026233  49.8602772
  87.7786832  55.3867249  50.8609252  87.1749680  56.7597023  49.3471934
  88.0464090  57.3848252  49.1524856  86.6913362  56.5073504  48.4035207
  86.1881574  57.5387824  50.2198332  85.5854792  57.0262631  51.1406236
  85.9521515  58.7932996  49.8811271  86.3516810  59.5012302  48.7381003
  86.3530681  58.8063648  47.8983025  87.3643864  59.8666918  48.9082903
  85.3557666  60.6246300  48.5604596  84.5075111  60.2992844  47.9582039
  85.8255688  61.4878704  48.0890751  84.9302822  60.9497660  49.9977750
  83.9362745  61.3820469  50.1125834  85.6658697  61.6009606  50.4699574
  84.9713432  59.5716266  50.6374380  85.3788899  59.6944683  51.6408890
  83.6242571  58.9724054  50.7239140  82.7894392  59.4972984  51.4704262
  83.3254192  58.0630896  49.8230891  84.0569373  57.8005822  49.1780539
  82.0254742  57.4388646  49.6787176  81.3243043  57.8735501  50.3911139
  81.4956473  57.6538066  48.2933089  81.5453420  58.7235481  48.0901272
  82.1567175  57.1232537  47.6080353  80.1222340  57.1854769  48.1061933
  79.9970900  56.7902368  47.0981134  79.8917273  56.4062124  48.8326337
  79.0227058  58.5337682  48.3379156  79.0587752  59.4597153  46.8151999
  78.7331602  58.8217158  45.9935975  78.3910195  60.3175165  46.8950746
  80.0742364  59.8069337  46.6244666  82.1980228  55.9638427  49.9756040
  83.2005326  55.3410303  49.6113381  81.2431389  55.4124714  50.6822620
  80.3925339  55.8870950  50.9492880  81.4294161  54.0413704  51.1136734
  81.7427475  53.4381711  50.2615741  82.4580400  53.8709367  52.2399324
  82.1532139  54.4619237  53.1035964  82.5175996  52.8198329  52.5223043
  83.4348694  54.2098405  51.8948997  80.0946361  53.5177361  51.6065571
  79.1696811  54.2859750  51.9979959  79.9828518  52.2006557  51.4746540
  80.7460463  51.6982127  51.0443233  78.8502527  51.4437228  51.9581783
  77.9278372  52.0234283  51.9926792  78.6093752  50.1926147  51.1148565
  79.5216244  49.5971501  51.0784787  77.8083720  49.6024218  51.5600155
  78.3260446  50.4844658  50.1035970  79.1922288  51.0000414  53.3599091
  80.1960611  50.2938828  53.5530431  78.3540638  51.3484723  54.3208202
  77.6616964  52.0654381  54.1574592  78.4323546  50.7515002  55.6523941
  79.1480065  49.9295244  55.6351518  78.8857482  51.7783367  56.7128199
  78.1911818  52.6177926  56.7442934  78.8739472  51.2614946  57.6724213
  80.2832324  52.2901096  56.4326461  81.3810744  51.5180204  56.7443227
  81.2338704  50.5511139  57.2254901  82.6272306  51.9468964  56.4604191
  83.5000513  51.3385155  56.6973970  82.7906540  53.2039674  55.8518451
  84.0615034  53.6735262  55.5504443  84.7568456  53.0604067  55.7998105
  81.7013637  53.9896898  55.5401003  81.8232498  54.9698814  55.0791572
  80.4675567  53.5238361  55.8163787  79.5904111  54.1164419  55.5565058
  77.0696169  50.1889500  55.9894479  76.0412663  50.6607271  55.4731898
  77.0815072  49.1498721  56.8203238  77.9763559  48.8122949  57.1449571
  75.8734844  48.4383577  57.2482564  74.9854430  48.8120890  56.7385442
  76.0022069  46.9279462  56.9697361  76.3615760  46.7960613  55.9491679
  76.9877474  46.2432576  57.9584167  76.6287769  46.3743296  58.9792307
  77.0516985  45.1793576  57.7301022  77.9746451  46.6954176  57.8599990
  74.6530426  46.3106867  57.0607175  73.9931491  46.7681850  56.3236029
  74.7284527  45.2409189  56.8657564  74.2467855  46.4696841  58.0596048
  75.6291781  48.6957732  58.7312825  76.5812622  48.7219477  59.5184901
  74.3571029  48.8853309  59.0972355  73.6756294  49.0115683  58.3625538
  73.9188369  49.0235029  60.4726066  74.7084856  49.4428976  61.0960344
  72.7181251  49.9825715  60.4896510  72.5564280  50.3259995  61.5114193
  72.9709712  50.8331969  59.8567171  71.4338959  49.3635217  59.9781689
  71.3285077  48.1641854  59.7866051  70.4309395  50.2112927  59.7722231
  69.5447119  49.8670747  59.4313209  70.5597358  51.1957463  59.9575968
  73.6092873  47.6813583  61.1332826  73.8117488  46.6251059  60.5359300
  73.2036651  47.6632541  62.4003110  73.3659900  48.6591053  63.4088431
  72.4380127  49.2249515  63.4911623  74.1734135  49.3277803  63.1104472
  73.6907304  47.8898045  64.6693084  73.4047235  48.4576280  65.5546759
  74.7541031  47.6550802  64.7166832  72.8540942  46.6126326  64.5288708
  71.8098989  46.7128798  64.8250224  73.3074481  45.7837845  65.0725440
  72.9449674  46.3626386  63.0323094  73.8241325  45.7411346  62.8623102
  71.7139345  45.6521771  62.5014352  71.6881602  44.4146468  62.5021936
  71.6358266  45.8341528  61.2991553  72.1672004  46.4380739  60.6884012
  70.4930663  45.1229890  60.7433721  70.4292361  44.1193864  61.1638561
  69.2001016  45.8856603  61.0910410  69.2366076  46.8939979  60.6787039
  68.3273175  45.3643063  60.6979280  68.9820177  46.0338997  62.5714333
  69.5363508  47.0908869  63.2837526  69.1413279  46.9291405  64.5410052
  69.4750190  47.6672473  65.2703525  68.3731160  45.8405497  64.6806501
  67.9389113  45.4882661  65.5217580  68.2701061  45.2554611  63.4268024
  67.6917159  44.3405752  63.2981558  70.6571351  44.8885753  59.2226517
  69.6934134  44.5807273  58.5139909  71.1128982  45.1908163  59.4723662
  71.8337121  45.7145268  59.9480279  71.4333158  44.5835564  58.1998750
  72.4849393  44.2988403  58.2333990  70.8180588  43.6888416  58.1047767
  71.1966650  45.4893504  56.9709663  71.3402727  45.0403386  55.8365540
  70.8464926  46.7325198  57.1889345  70.6464446  47.0306594  58.1329647
  70.6208208  47.6646351  56.1173048  70.2962101  47.1436098  55.2166051
  69.5418162  48.6259260  56.5314290  68.7503714  48.0220016  56.9752642
  69.9342967  49.3155938  57.2787024  68.9967934  49.3914276  55.3945243
  69.7108058  50.4682529  54.8460688  70.6896065  50.7209813  55.2537172
  69.1807078  51.2128407  53.7899035  69.7370831  52.0527283  53.3738059
  67.9409563  50.8727936  53.2647006  67.4301468  51.5999519  52.2133484
  68.0117110  52.3093671  51.9303064  67.2139233  49.7892825  53.8205564
  66.2404436  49.5169861  53.4127668  67.7493852  49.0684924  54.8959025
  67.1817156  48.2512183  55.3407781  71.9141009  48.3387924  55.7156328
  72.7801418  48.5724378  56.5422658  72.1162931  48.4334334  54.4161647
  71.3830842  48.1407959  53.7861907  73.3683149  48.9138137  53.8439958
  74.1807150  48.9176053  54.5706944  73.8112944  48.1047695  52.6174141
  72.9579746  47.9290214  51.9623895  74.8770667  48.8981573  51.8630408
  75.7309578  49.0739075  52.5173211  75.2002083  48.3333270  50.9886000
  74.4614458  49.8540547  51.5442602  74.2928072  46.7074248  52.9895956
  73.4855386  46.1628220  53.4793171  74.5952073  46.1746400  52.0880446
  75.1425271  46.7840564  53.6679793  73.1589907  50.3671926  53.4656899
  72.2833699  50.6744719  52.6336168  73.9478437  51.2554501  54.0929462
  74.5788343  50.8968107  54.7953193  73.9337473  52.6986565  53.8440878
  73.0335890  53.0022539  53.3096321  73.9492123  53.3879588  55.2022351
  74.6733787  52.9235692  55.8715815  74.2082774  54.4369821  55.0589335
  72.6402599  53.3655090  55.9095763  71.4523741  53.6860169  55.2822997
  70.4658247  53.6220941  56.1605218  69.4370991  53.8254991  55.8631179
  70.9807424  53.2925015  57.3326116  70.4655060  53.2032079  58.1967054
  72.3317768  53.0884539  57.1965401  72.9227939  52.7632157  58.0527060
  75.1300869  53.1820097  52.9986723  76.2845028  52.7414197  53.2107514
  74.8617914  54.1531087  52.1025261  73.9116444  54.4568878  51.9442908
  75.9329943  54.7644554  51.2987814  76.8302917  54.1515802  51.3844587
  75.5607899  54.8804442  49.8236151  74.5546269  55.2936428  49.7528888
  76.2658861  55.5578501  49.3418885  75.6030019  53.5254888  49.1283511
  76.5581219  53.0548444  49.3614615  74.7956341  52.9542206  49.5865092
  75.4125460  53.5567278  47.6507325  74.2522796  53.8286363  47.2524564
  76.4396192  53.3506810  46.9042192  76.2567469  56.1370593  51.8504124
  75.4635767  57.0887945  51.7233284  77.4352864  56.2571113  52.4238773
  78.1458499  55.5608641  52.2494099  77.7573097  57.3661801  53.3181324
  76.8804355  57.9830784  53.5146708  78.3123424  56.8313785  54.6424228
  79.1471827  56.1637752  54.4292379  78.7665621  57.9177984  55.4885518
  77.9321077  58.5856195  55.7025645  79.1561354  57.5130572  56.4226384
  79.5533711  58.4725589  54.9774045  77.2392826  55.9978616  55.3615038
  77.1048722  55.0655909  54.8129548  77.5937054  55.7783659  56.3686312
  75.9017508  56.7400590  55.4417318  75.5464427  56.9595036  54.4349051
  75.1703921  56.1172951  55.9568811  76.0352767  57.6722803  55.9905799
  78.7914202  58.2470279  52.6458462  79.9529009  57.8284996  52.4796339
  78.4042427  59.4927402  52.3246788  77.4241756  59.7306988  52.3789333
  79.3455138  60.5234820  51.8812083  80.2335179  60.0572596  51.4543775
  78.7013947  61.4014826  50.8218464  78.5288105  60.7281454  49.9822447
  77.7482517  61.8006479  51.1686684  79.6009333  62.5496361  50.3757548
  79.9928063  63.1061061  51.2271522  80.7513294  61.8888450  49.6288947
  80.3602559  61.3325285  48.7770307  81.4431206  62.6537130  49.2760455
  81.2754103  61.2065251  50.2981324  78.9525324  63.6321224  49.5535938
  78.1471063  64.0912612  50.1268126  79.6941499  64.3893466  49.2992002
  78.5463903  63.2003270  48.6388805  79.7784107  61.3934332  53.0569289
  78.9647810  62.1540173  53.5751632  81.0728123  61.3331934  53.4230008
  81.6618557  60.6190801  53.0190585  81.6538840  62.2263296  54.4260723
  80.9688312  62.3394444  55.2663145  82.9641379  61.6169581  54.9405225
  83.4543370  62.3566063  55.5735514  82.7393023  60.3561644  55.7260448
  82.2495227  59.6158296  55.0934944  83.6974487  59.9645731  56.0676744
  82.1075811  60.5720743  56.5876780  83.8285482  61.2769169  53.8597289
  84.6399889  60.8983292  54.2059019  81.9224326  63.6517521  53.9225386
  82.3968529  63.8501450  52.8057926  81.6528996  64.6461162  54.7791908
  81.1580393  64.4099259  55.6273810  81.9763047  66.0549911  54.5323493
  82.8667250  66.1719809  53.9146404  80.8012808  66.7817110  53.8460615
  81.1653694  67.7227175  53.4336957  80.2088759  65.9303748  52.7250097
  79.8441296  64.9893296  53.1367075  79.3825844  66.4668299  52.2585779
  80.9765123  65.7264960  51.9785048  79.7333056  67.1493059  54.8804642
  80.1678173  67.8054594  55.6346287  78.9084449  67.6617997  54.3854343
  79.3625058  66.2426435  55.3585558  82.3522318  66.7749387  55.8367569
  82.2002958  66.2371835  56.9412119  82.8451605  68.0306403  55.6845341
  82.8221483  68.4493237  54.7656902  83.3319004  68.8365179  56.8003507
  83.7307810  68.1698880  57.5649408  84.4341763  69.8205349  56.3839034
  84.0942324  70.2896758  55.4606243  84.4645992  70.5651177  57.1793723
  85.7894250  69.2588656  56.1818774  86.1883546  68.1208291  56.8616613
  85.4962853  67.6361025  57.5502684  87.4465729  67.6018281  56.6734021
  87.7691769  66.7164356  57.2212237  88.3104119  68.2160248  55.7752113
  89.5692034  67.7088659  55.5627150  89.7514547  66.9255846  56.0869807
  87.9260050  69.3380721  55.0838328  88.6031646  69.8156830  54.3757062
  86.6737971  69.8575859  55.2924540  86.3591730  70.7532655  54.7568518
  82.2894572  69.7524674  57.3978309  82.3725118  70.0966826  58.5705691
  81.4146561  70.2820967  56.5563318  81.4292274  69.9973924  55.5873991
  80.4766731  71.3176956  56.9561302  80.2771851  71.2191593  58.0231796
  81.0133747  72.7275540  56.6864271  81.9782567  72.8139546  57.1860639
  81.1520807  72.8269383  55.6098662  80.0757925  73.8393968  57.1870259
  79.1681074  73.8066493  56.5844181  79.8289735  73.6244959  58.2267374
  80.6978952  75.2215628  57.0899923  81.6626600  75.2124150  57.5971847
  80.8428264  75.4720331  56.0391074  79.7877103  76.2671790  57.7431441
  78.8463748  76.2798320  57.1937555  79.6038109  75.9540109  58.7708629
  80.3850187  77.6379317  57.7394646  80.5551035  77.9284826  56.7872298
  79.7463174  78.2846507  58.1798227  81.2570795  77.6265187  58.2488551
  79.1931530  71.0284833  56.2074231  79.1761078  71.0505208  54.9715999
  78.1301281  70.7515883  56.9319203  78.2267424  70.5685202  57.9204804
  76.8081835  70.6412068  56.3363539  76.8421300  70.8884067  55.2752983
  76.2437654  69.2221951  56.4915930  76.1951113  68.9636736  57.5493735
  75.2432164  69.1794975  56.0612687  76.8916093  68.5143517  55.9745290
  75.9171805  71.6756458  56.9991039  75.8968333  71.7858002  58.2266747
  75.1882962  72.4258664  56.1898643  75.2839134  72.3025116  55.1919965
  74.2729269  73.4452052  56.6732704  74.5679075  73.7772685  57.6686696
  74.3032340  74.6426893  55.7316567  74.2217845  74.3152946  54.6951829
  73.4878291  75.3288569  55.9605427  75.8182116  75.6155520  55.8311308
  75.4691648  76.5108033  54.9115713  72.8454181  72.9020007  56.7735787
  72.4708509  71.9363839  56.1047069  72.0568581  73.5188655  57.6586239
  72.4845339  74.1646800  58.3067878  70.6203525  73.2514577  57.7891681
  70.1923969  73.9443676  58.5136190  69.8819184  73.4225383  56.4491042
  70.0559985  72.5646853  55.7995784  68.8217516  73.4819940  56.6952983
  70.2832238  74.6999066  55.6939246  71.3704314  74.7843354  55.1140269
  69.3825904  75.6697993  55.6483449  69.5957674  76.5304066  55.1645986
  68.4867124  75.5443917  56.0975400  70.3404744  71.8548774  58.3561193
  69.3644795  71.2146025  57.9551007  71.1509774  71.3991140  59.3174291
  71.9205454  71.9693426  59.6379034  70.9894577  70.0650653  59.8941314
  70.0423763  69.6349043  59.5684051  72.1310425  69.1391474  59.4420800
  72.9973236  69.6913894  59.8063397  72.0229054  68.2165291  60.0123272
  72.3267893  68.8022228  57.9556962  72.4020261  69.7275298  57.3845157
  73.5975989  67.9877322  57.7703262  73.5229123  67.0619950  58.3408798
  73.7286538  67.7532770  56.7139379  74.4533753  68.5633110  58.1231096
  71.1199192  68.0678892  57.3541518  70.2322901  68.6944759  57.4413470
  71.3112306  67.8540875  56.3025862  70.9582789  67.1330705  57.8908877
  70.9411330  70.1016016  61.4162164  71.9728027  70.2251149  62.0807321
  69.7496895  69.9465114  61.9707598  68.8933559  69.9629349  61.4354820
  69.6582136  69.7905253  63.4090649  70.2899814  70.5313135  63.8991684
  68.2271987  69.9833483  63.8823562  67.6347157  69.1639571  63.4753412
  68.1693763  69.9671821  64.9707014  67.6570284  71.2725177  63.3937489
  66.8387020  71.2880537  62.4818813  68.1280705  72.3811035  63.9768157
  67.7814596  73.2852856  63.6897349  68.8280435  72.3085511  64.7012982
  70.1639818  68.4145225  63.8161777  70.4156822  67.5328913  62.9802690
  70.3292799  68.2546212  65.1146480  70.1278532  69.0229642  65.7384874
  70.8423902  67.0279683  65.6816316  70.9677979  66.2845754  64.8943965
  72.1822359  67.2616115  66.3437045  72.0840672  68.2956637  66.6741562
  72.2567797  66.6084077  67.2131112  73.4446967  67.1171441  65.4868702
  73.3661797  66.1926654  64.9147907  73.6163791  68.2731218  64.5470517
  73.6954387  69.1979683  65.1184598  74.5227083  68.1318341  63.9582343
  72.7559498  68.3309524  63.8804054  74.6085000  66.9389508  66.4843841
  74.4362751  66.0486059  67.0891353  75.5441858  66.8296943  65.9360629
  74.6682723  67.8125041  67.1335611  69.8340085  66.4675444  66.6827197
  69.2059362  67.2070082  67.4483531  69.6386391  65.1576612  66.6436214
  70.1202635  64.5975868  65.9548152  68.7158928  64.4963610  67.5429030
  68.2587537  65.2281287  68.2089654  67.6143470  63.7400377  66.7787141
  68.0252036  63.2710273  65.8846635  67.0604096  62.6602334  67.7124656
  66.6489313  63.1285446  68.6065970  66.2753462  62.1040275  67.2002047
  67.8620758  61.9783886  67.9962229  66.5072745  64.6924660  66.3156287
  66.2229441  65.3024623  67.1730443  66.9305633  65.3311507  65.5403817
  65.2643196  63.9722162  65.7642593  64.8401777  63.3336521  66.5391396
  64.5232550  64.7097232  65.4560289  65.5477977  63.3623384  64.9064778
  69.5275063  63.5488098  68.3992862  70.1408263  62.6114999  67.8763650
  69.5332113  63.7878208  69.7077599  69.2100180  64.6728330  70.0716263
  69.9999716  62.7926258  70.6433665  69.2028869  62.5901488  71.3587393
  70.2323319  61.8817430  70.0916414  71.2205206  63.2363250  71.3869304
  71.3963407  64.4598334  71.6642559  72.0670455  62.3036854  71.7427012
  71.8838217  61.3325282  71.5344174  73.2698942  62.6325390  72.4704156
  73.5976340  63.6343343  72.1927608  73.0294975  62.5954502  74.0177529
  72.2332337  63.2906779  74.2836884  72.7480612  61.5875768  74.3228509
  74.3172541  63.0010870  74.7293735  75.0849049  62.2760515  74.4589356
  74.6016682  63.9859007  74.3587623  74.1785609  63.0499860  76.2330819
  73.4541824  63.8003958  76.5497207  73.9010633  62.0805140  76.6468674
  75.5047187  63.4240587  76.7552505  76.2492617  63.5320428  76.0813851
  75.7674675  63.6529453  78.0214515  77.0218589  63.9845502  78.3722285
  77.7394564  64.0528644  77.6647774  77.2411743  64.1639116  79.3416768
  74.8463902  63.6016202  78.9530095  73.8930878  63.3789174  78.7045783
  75.0944031  63.7850237  79.9147534  74.2420095  61.5707010  71.9850806
  73.8853622  60.3965997  71.9306957  75.4752558  61.9343418  71.7192520
  76.1743546  63.1212651  72.0861374  76.4965216  63.0276038  73.1232181
  75.4939849  63.9676979  71.9926089  77.3362342  63.2065202  71.1227199
  78.1570261  63.7788004  71.5550335  77.0278673  63.6668485  70.1840458
  77.7278909  61.7383565  70.9100078  78.3655782  61.3155293  71.6863267
  78.1963803  61.5930357  69.9366121  76.3659910  61.0638450  70.9359122
  75.9909005  61.0562273  69.9125123  76.4498987  59.6396625  71.4538329
  76.3556971  59.3901666  72.6554388  76.6587253  58.7195381  70.5090660
  76.6210789  59.0067005  69.5414814  76.8892997  57.3211275  70.8011865
  77.2550952  57.2289905  71.8238319  75.6139556  56.4810910  70.6593095
  74.9188421  56.7682622  71.4482641  75.1663158  56.6899028  69.6876530
  75.9017383  55.0741628  70.7623781  75.0878360  54.5734866  70.6702568
  77.9702774  56.7497709  69.8878586  78.2318458  57.2414085  68.7658566
  78.5533595  55.6300174  70.3633300  78.2305406  55.2274490  71.2315616
  79.6566956  54.9787562  69.6675437  79.7207511  55.3728348  68.6532962
  80.9701274  55.2679820  70.3865982  81.7903211  55.1825750  69.6737951
  80.9575016  56.6534152  70.9722732  80.1378010  56.7394480  71.6855677
  81.9027199  56.8418687  71.4813377  80.8228194  57.3842988  70.1749210
  81.0698949  54.3013477  71.4392927  81.8855119  54.4412285  71.9259164
  79.5349408  53.4627959  69.5555749  80.5405353  52.8055310  69.2012847
  78.3715648  52.8893177  69.8762429  77.7138077  53.3474789  70.4906884
  78.0799496  51.5297876  69.4428289  78.8388021  50.8655290  69.8563534
  76.6938591  51.0343885  69.8939152  76.6739973  51.1098885  70.9811155
  75.9629828  51.7224261  69.4690339  76.3496779  49.6032381  69.4760039
  76.3758522  49.5578822  68.3872622  77.1255282  48.9559391  69.8848555
  74.9867153  49.1364596  69.9706672  74.5929314  47.9770250  69.6873112
  74.3056000  49.9284525  70.6562438  78.2627280  51.4560502  67.9299251
  77.9344526  52.4053383  67.2055541  78.8200384  50.3442617  67.4556780
  79.3339598  49.7242329  68.0652258  78.7492308  50.0165848  66.0367417
  79.4070444  49.1763325  65.8145782  77.3041306  49.6267191  65.6543920
  76.8147206  49.1162961  66.4838771  76.7522727  50.5345428  65.4106524
  77.1874828  48.7210152  64.4643081  77.5316075  47.3794377  64.4905597
  77.3415573  46.8685480  63.2841093  77.5676071  45.8195270  63.0929144
  76.8747617  47.8177205  62.4842853  76.6272394  47.7131014  61.5106902
  76.7791516  48.9849743  63.1997923  76.4222671  49.8936847  62.7150448
  79.2209011  51.1745878  65.1555079  78.7718814  51.3064197  64.0042079
  80.0835839  52.0555493  65.6493290  80.4418561  52.0100574  66.5925527
  80.4999556  53.1634953  64.8071893  79.6223155  53.7039876  64.4526260
  81.3878277  54.1312934  65.5835010  81.0548243  54.1477357  66.6212570
  82.4148861  53.7691385  65.5377300  81.3244147  55.4504527  65.0429729
  81.8925477  56.0327439  65.5526411  81.2468602  52.6456283  63.5768250
  82.1593656  51.8181447  63.6666845  80.8793179  53.1635039  62.4223989
  80.1353773  53.8431893  62.3539922  81.5316779  52.7227516  61.1892704
  81.5281916  51.6347036  61.1241659  80.7722615  53.2845162  59.9936320
  80.7109047  54.3694313  60.0790350  81.2596839  53.0214674  59.0548429
  79.3740725  52.7851131  59.9017352  78.9135281  51.4864757  60.1651145
  79.6424403  50.7436439  60.4891326  77.5561926  51.4347039  59.9416952
  76.9730103  50.6207316  60.0737816  77.1179633  52.6752347  59.5294023
  75.8472799  53.1010336  59.2011463  75.0322330  52.3816144  59.2800978
  75.6856047  54.4040176  58.7951281  74.6985375  54.7645227  58.5055864
  76.7538142  55.2712162  58.7460143  76.6187536  56.3042400  58.4255150
  78.0407082  54.8578417  59.1037466  78.8529113  55.5820461  59.0408595
  78.2309216  53.5399205  59.5010786  82.9901377  53.1599348  61.1222266
  83.8383159  52.4384789  60.5877015  83.2911571  54.3688658  61.6328773
  82.5144700  54.9346192  61.9439716  84.6371086  54.9151284  61.7560059
  85.3044650  54.3780482  61.0820033  84.6795828  56.4032339  61.4029321
  84.0998365  56.9621301  62.1375262  85.7115026  56.7541751  61.4119769
  84.1337432  56.7447090  60.0925829  84.8574766  56.4668290  58.9596166
  85.8339317  55.9878330  59.0317142  84.3457436  56.7950406  57.7348585
  84.9074679  56.5662657  56.8291938  83.1055254  57.4222412  57.6452638
  82.7120044  57.7132382  56.6713223  82.3679929  57.6777812  58.7991707
  81.3796965  58.1334352  58.7379346  82.8837142  57.3584115  59.9894772
  82.3270423  57.5765156  60.9008755  85.1384145  54.7419067  63.1836518
  84.8140108  55.5800362  64.0517912  85.9785418  53.7392110  63.4690647
  86.5877750  52.7607976  62.6189970  87.2955090  53.2662744  61.9619536
  85.8085177  52.2902207  62.0194850  87.2613648  51.7852200  63.5571970
  88.0918209  51.2818855  63.0621253  86.5504966  51.0422918  63.9188950
  87.7510366  52.6779462  64.7037987  88.6914568  53.1898459  64.4996726
  87.8331938  52.1283913  65.6415296  86.6203967  53.6903928  64.7933049
  85.8911309  53.2968377  65.5013896  87.1030151  55.0471649  65.2675989
  87.4630411  55.9102649  64.4417250  87.0844453  55.2744554  66.5852029
  86.7242041  54.5731823  67.2165044  87.5699020  56.5080252  67.1419598
  87.9612074  56.2822982  68.1339410  88.3815857  56.8535406  66.5017348
  86.5351002  57.6038934  67.2589779  86.8097110  58.6148680  67.9217367
  85.3514654  57.4450407  66.6481159  85.1150970  56.5558744  66.2314475
  84.3926948  58.5416313  66.5312008  84.7321470  59.3704560  67.1524261
  84.2383225  59.0411988  65.0888435  84.2122121  58.1650762  64.4409033
  83.2733093  59.5468290  65.0543812  85.3172580  59.9844133  64.6156831
  86.5536551  59.4994129  64.1919228  86.7426912  58.4262927  64.2198118
  87.5349632  60.3629915  63.7397630  88.5012526  59.9871560  63.4034086
  87.2719499  61.7348967  63.7149816  88.2247377  62.6343365  63.2776058
  89.0439175  62.2120005  63.0089491  86.0443727  62.2214568  64.1341839
  85.8369997  63.2914119  64.1170666  85.0872995  61.3453226  64.5727779
  84.1160764  61.7174949  64.8988356  83.0287730  58.1064368  67.0462241
  82.7492888  56.9103320  67.2540675  82.1851763  59.1108969  67.2647862
  82.4603593  60.0536565  67.0290361  80.8703654  58.9013574  67.8294176
  80.6345129  57.8383733  67.8797912  80.6924292  59.5058584  69.2167323
  80.9162343  60.5720191  69.1805004  79.6636786  59.3621070  69.5470474
  81.3699065  59.0164976  69.9164821  79.8917495  59.5570594  66.8852435
  80.2537120  60.4649482  66.1352655  78.6501781  59.1040911  66.9016783
  78.3541882  58.4004618  67.5630369  77.7075476  59.5314683  65.8831884
  78.1343788  60.3517471  65.3060775  77.3791234  58.3452290  64.9036294
  76.5719906  58.6200711  64.2245877  78.2559443  58.0533067  64.3256445
  76.9305568  57.1413544  65.6265124  77.6663585  56.0345121  65.9850734
  78.7119957  56.0061385  65.6785810  76.8711362  55.1608104  66.6911732
  77.1622263  54.2676688  67.0622045  75.6016367  55.6772733  66.7610800
  74.4580062  55.1530071  67.3129672  74.5186538  54.1739591  67.7882414
  73.3106886  55.8943486  67.2315790  72.3980969  55.5058904  67.6836593
  73.2735659  57.1156376  66.5963238  72.3546036  57.6992767  66.5417975
  74.4202338  57.6422559  66.0010980  74.3547957  58.6116741  65.5070870
  75.6066715  56.9096897  66.0850582  76.5014400  60.0998475  66.5963698
  76.3878520  60.0083404  67.8143059  75.5975846  60.7024584  65.8210335
  75.7575070  60.7822892  64.8269756  74.3967967  61.3050737  66.3765425
  73.8999198  60.5783862  67.0193005  74.6943615  62.5437918  67.1884153
  75.0814793  63.3064246  66.5126703  73.4556444  63.0784976  67.9024445
  73.0682022  62.3165342  68.5787580  73.7203066  63.9689951  68.4725912
  72.6926500  63.3323153  67.1665663  75.6866424  62.2221063  68.1704347
  75.8842409  63.0026222  68.6932637  73.4992879  61.6057469  65.1891973
  73.9207238  62.1424555  64.1637975  72.2442857  61.2572967  65.2652104
  71.8407514  60.8361552  66.0897704  71.4090316  61.4154568  64.0993215
  71.8766479  60.9932036  63.2098630  70.0359435  60.7476513  64.2973999
  69.4956868  61.2946048  65.0700989  69.2233274  60.7477088  63.0163456
  69.7627697  60.2005034  62.2432549  68.2610591  60.2682081  63.1958431
  69.0614594  61.7744583  62.6881905  70.2931971  59.3443608  64.8037992
  70.8370573  59.3919857  65.7472238  69.3428718  58.8333545  64.9582469
  70.8851528  58.7959315  64.0710547  71.2736459  62.8917025  63.8096057
  71.2601767  63.7376578  64.7024546  71.2032669  63.2067832  62.5449694
  71.2856078  62.4792857  61.8492205  71.0336752  64.5703292  62.0943353
  71.0587670  65.2836000  62.9181765  72.1198632  64.9549075  61.0789811
  72.1011594  64.2550524  60.2435453  71.9333352  65.9639144  60.7112686
  73.0970948  64.9190910  61.5604736  69.6532941  64.6551976  61.4718127
  69.0746243  63.6475796  61.0518004  69.1208488  65.8658297  61.3919825
  69.5788363  66.6941102  61.7445419  67.7921292  66.0037106  60.8210908
  67.6122103  65.1971024  60.1103788  66.7196018  65.9389253  61.9189969
  66.8418305  64.9907339  62.4425353  66.9059356  66.7613556  62.6096403
  65.2838469  66.0423387  61.3740360  65.1476865  67.0033214  60.8779780
  65.1384892  65.2379868  60.6529319  64.2297238  65.9072081  62.4771209
  63.5621107  66.8879746  62.8264859  64.0576355  64.6979777  63.0142163
  63.3724950  64.5659742  63.7444621  64.6132987  63.9201811  62.6880687
  67.6700814  67.2950590  60.0522789  67.8688506  68.3701831  60.6123931
  67.3630194  67.1591558  58.7672520  67.4945237  66.2573964  58.3317792
  66.8564447  68.2479341  57.9542421  67.6637629  68.9080688  57.6371312
  66.1527357  67.7117770  56.7171107  65.4998714  66.8857502  56.9991529
  66.8946345  67.3594723  56.0004743  65.1817948  68.9637432  55.8702817
  65.8817298  69.0665425  58.7732051  64.8379513  68.5709414  59.1887181
  66.0875482  70.3858854  58.8609894  66.9436154  70.7824643  58.5004710
  65.1335771  71.2865420  59.5623437  64.8000995  70.8159348  60.4872333
  65.7949163  72.6264935  59.9052379  66.6899005  72.4128193  60.4895716
  66.0792784  73.1037140  58.9674219  64.8763250  73.5681453  60.7011473
  64.0195778  73.8092841  60.0719120  64.5362346  73.0323805  61.5873734
  65.5726050  74.8515069  61.1216863  66.4326377  74.6008939  61.7426823
  65.9104678  75.3798272  60.2301563  64.6142479  75.7482568  61.9143560
  63.7646172  75.9788370  61.2716578  64.2706056  75.1847260  62.7817903
  65.2548396  77.0208026  62.3688925  65.5729519  77.5433353  61.5652360
  64.5822983  77.5711141  62.8836212  66.0418921  76.8073714  62.9647907
  63.8554680  71.4909866  58.7317370  62.7957398  71.6666895  59.3618979
  63.9254088  71.4672602  57.3927630  64.8237571  71.2953458  56.9643765
  62.7648948  71.7959830  56.5027064  62.3078685  72.7387218  56.8034881
  63.2294468  71.8946533  55.0205470  63.7550066  70.9775635  54.7544012
  62.0399828  72.0829942  54.0948840  61.5141558  73.0001900  54.3601358
  62.3880559  72.1494746  53.0640949  61.3629490  71.2346671  54.1952110
  64.2126398  73.0561497  54.8424720  65.0639999  72.8519031  55.4917563
  64.5373552  73.0386532  53.8021099  63.6362494  74.4393702  55.1750094
  63.3117228  74.4577828  56.2154148  64.4020603  75.1994387  55.0203202
  62.7850762  74.6445319  54.5257693  61.5817367  70.8230927  56.6409609
  60.4508938  71.3392814  56.7548591  61.7971698  69.4999242  56.6298416
  62.7498001  69.1831998  56.5190210  60.7093689  68.4697618  56.7044102
  59.7651196  68.9778741  56.9001527  60.5939517  67.7199677  55.3835761
  60.7112726  68.4199911  54.5563501  59.6155883  67.2436872  55.3198423
  61.8754017  66.4601817  55.1715076  60.9501238  67.4878994  57.8606019
  60.0799437  66.6090649  58.0392570  62.0665798  67.5952903  58.5875703
  62.7544382  68.2454058  58.2350084  62.4149948  66.7777416  59.7847533
  63.2392468  67.2935742  60.2773226  61.2438399  66.7171824  60.7388931
  60.4135233  66.1953393  60.2631261  61.5379331  66.1832456  61.6425086
  60.9344859  67.7292380  60.9999352  62.9125985  65.3638766  59.4296865
  63.1519848  64.6026061  60.3906185  63.0887702  65.0054201  58.1492594
  62.8917766  65.6637083  57.4090232  63.4984683  63.6596987  57.7836539
  62.9311701  62.9307785  58.3624001  63.2443789  63.4088922  56.3007352
  63.6316910  64.2511935  55.7274838  63.7623694  62.4976597  56.0016681
  61.8487623  63.2656900  56.0500576  61.7062934  63.1086712  55.1137630
  64.9725443  63.4790988  58.1440186  65.7629851  64.4254093  58.1268245
  65.3282809  62.2602295  58.5543820  64.6508719  61.5120615  58.5926079
  66.6860452  61.9903691  59.0237659  67.0196705  62.8049031  59.6666715
  66.7373759  60.6936193  59.8162401  66.8887138  59.8111580  59.1945826
  67.5489754  60.7713106  60.5396834  65.4917135  60.4560917  60.5972419
  64.2789579  60.2225090  59.9887050  63.3469985  60.0842269  60.9120119
  62.3116734  59.8902767  60.6316833  63.9113881  60.2217806  62.0955018
  63.4412203  60.1552209  62.9869119  65.2529545  60.4724922  61.9282318
  65.8894249  60.6359370  62.7978826  67.6095163  61.9539324  57.8136310
  67.3168092  61.2698261  56.8213945  68.6982578  62.7290951  57.8793773
  68.9378784  63.2318463  58.7219464  69.5287677  62.9245173  56.6988001
  69.0122623  62.5216288  55.8275928  69.8386149  64.4102651  56.4678252
  70.3144675  64.8246804  57.3566022  70.7674805  64.5541125  55.2868199
  70.2920982  64.1403079  54.3975066  70.9872405  65.6091079  55.1231402
  71.6948338  64.0169475  55.4857390  68.5398977  65.1904346  56.2052697
  67.7932549  64.7826073  56.8866670  68.7453220  66.2274788  56.4706745
  68.0175990  65.1275769  54.7915824  67.8114925  64.0908154  54.5256019
  67.0997845  65.7107420  54.7165207  68.7635611  65.5356852  54.1096088
  70.8117429  62.1136130  56.8348148  71.3491654  61.5943766  55.8377173
  71.3041962  61.9718633  58.0478979  70.9292125  62.4373345  58.8620374
  72.4432262  61.1023140  58.2207579  72.1660085  60.0659938  58.0276516
  73.2514531  61.3927869  57.5495692  72.9163687  61.2240168  59.6327400
  72.0751942  61.2935374  60.5323162  74.2398736  61.1594160  59.8291977
  74.8202588  61.0132015  59.0156415  74.8896725  61.3035833  61.1233967
  74.1534508  61.5421778  61.8909575  75.5807274  59.9892235  61.4996549
  76.2897033  59.7135224  60.7189877  76.1172958  60.1615866  62.4326530
  74.7059425  58.7976562  61.7231988  74.5961721  58.1158110  62.8594997
  75.2115337  58.4597783  63.6908338  73.7154766  57.1128455  62.7269797
  73.4683129  56.4502043  63.4480319  73.2129688  57.1289107  61.4630605
  72.2933403  56.3079687  60.8561118  71.8313809  55.5109052  61.4386766
  72.0226175  56.5463107  59.5700386  71.2955425  55.9215309  59.0512784
  72.6440949  57.5705721  58.8758769  72.4259494  57.7285681  57.8196812
  73.5146969  58.3851178  59.4614599  74.0093427  59.1401082  58.8503823
  73.8134713  58.1827775  60.8018469  75.9827096  62.3880650  61.1854883
  76.8320621  62.5140956  60.2995444  76.0060659  63.1941775  62.2649637
  75.2129743  63.2123718  62.8900829  77.1455208  64.1187990  62.5400978
  77.6434894  64.3412870  61.5963683  76.7123281  65.4383488  63.1882703
  76.0126170  65.9252580  62.5089890  76.2032438  65.1959564  64.1211042
  77.8879614  66.3853118  63.4776513  78.5510694  65.8875194  64.1851762
  78.4184802  66.5546747  62.5406518  77.4409308  67.7189071  64.0547095
  76.7773315  68.2087562  63.3421206  76.9042378  67.5398166  64.9863676
  78.6513121  68.6192724  64.3275913  79.2751557  68.1232393  65.0711441
  79.2082824  68.7207929  63.3961533  78.2639435  69.9746135  64.8265755
  77.7482024  69.8807890  65.6898876  79.0957746  70.5238629  64.9893087
  77.6862236  70.4345874  64.1375452  78.0572792  63.2753000  63.4253453
  77.4983115  62.4721679  64.1673856  79.3689221  63.4527823  63.3716887
  79.7130527  64.1404248  62.7168443  80.3506953  62.6258150  64.0975071
  79.8140940  61.9269031  64.7391303  81.2592782  61.8270911  63.1547493
  81.6001452  62.4744851  62.3467952  82.1210073  61.4489719  63.7047937
  80.6054009  60.6348128  62.5051779  79.7660437  60.7908023  61.4172663
  79.5818781  61.7912198  61.0256698  79.1611909  59.6919479  60.8249799
  78.5037402  59.8335943  59.9671946  79.3878377  58.4299020  61.3150026
  78.9119682  57.5660851  60.8508168  80.2179752  58.2584553  62.3944838
  80.3978668  57.2567065  62.7846614  80.8271498  59.3540953  62.9887676
  81.4874858  59.2129363  63.8444139  81.1406023  63.4946675  65.0832552
  81.0852097  64.7215110  64.9094947  81.8346495  62.8922856  66.0625950
  81.7820240  61.8841313  66.0934943  82.6138576  63.5892935  67.1173645
  83.1447514  64.4463654  66.7030232  81.6654027  64.0845350  68.2152275
  82.2845821  64.5374379  68.9895634  80.6327588  65.0854560  67.7462385
  80.0128579  64.6330871  66.9721682  80.0050874  65.3815885  68.5867343
  81.1351668  65.9639658  67.3413840  80.9910371  62.9362697  68.7356570
  80.3852719  63.2079029  69.4291007  83.6852298  62.6380686  67.6846614
  83.2898342  61.7523870  68.4470920  84.9870185  62.8225299  67.3947144
  85.2113353  63.6121433  66.8062485  86.0951590  61.9364460  67.8375936
  86.0305227  60.9812916  67.3164397  87.4230418  62.5706736  67.5170775
  87.5064115  63.5239282  68.0390499  88.2286098  61.9099549  67.8374076
  87.4965101  62.7378058  66.4424760  85.9971071  61.6505426  69.3428929
  85.6283080  62.5866507  70.0807702  86.3486349  60.4269663  69.7948391
  86.6522318  59.7138319  69.1472531  86.2425298  60.0802565  71.1996857
  85.2866036  60.4937650  71.5211122  86.1864528  58.5447363  71.3366744
  86.0185798  58.2919548  72.3835843  85.0570919  57.9604034  70.4833977
  85.2245338  58.2123953  69.4362287  85.0385105  56.8765261  70.5972574
  84.1032105  58.3757721  70.8084816  87.3679338  57.9762810  70.7607611
  87.3365488  57.0204289  70.8441993  87.3838982  60.6400870  72.0476286
  87.4611220  60.3863682  73.2550209  88.2963305  61.3949032  71.4227816
  88.2018629  61.5967784  70.4376818  89.4972244  61.8710090  72.1183405
  89.2586150  62.0591680  73.1651265  90.6268177  60.8361543  72.0516110
  90.8039514  60.6082625  71.0005220  91.5191063  61.2935484  72.4790589
  90.3032902  59.5377405  72.8098998  89.3091468  59.2113679  72.5045139
  91.0375555  58.7875743  72.5162892  90.3365164  59.7151580  74.3181653
  91.3316781  60.0467219  74.6145054  89.6030214  60.4695029  74.6028552
  90.0083381  58.3926859  75.0212674  90.6929089  57.6340339  74.6419119
  90.1764702  58.5316615  76.0892171  88.5981845  57.9504204  74.7923811
  88.4423064  57.8211695  73.8028883  88.4362582  57.0783492  75.2754666
  87.9636825  58.6530716  75.1442157  89.9307167  63.2099999  71.5443781
  89.8834894  63.4005754  70.3321770  90.3789933  64.1206192  72.4263513
  90.3761528  63.8929634  73.4103554  90.7741950  65.4673498  72.0292956
  90.0123267  65.9047284  71.3840391  90.9350700  66.3549452  73.2682676
  91.0847571  67.3782028  72.9238306  90.0081931  66.2961091  73.8388265
  92.1148441  65.9376598  74.1628742  91.9669083  64.8953229  74.4452743
  93.0278998  66.0280508  73.5744350  92.2335073  66.7890103  75.4148260
  92.3324037  67.8348354  75.1240198  91.3327597  66.6630949  76.0155744
  93.4583479  66.3692773  76.2365216  93.3108890  65.3362498  76.5514989
  94.3321232  66.4295419  75.5876887  93.6709241  67.2312307  77.4395149
  92.8615546  67.1751930  78.0410800  94.4868029  66.9123154  77.9422422
  93.8080088  68.1884320  77.1478430  92.0355810  65.5247247  71.1661735
  92.3779900  66.6115010  70.6888013  92.7249972  64.4020006  70.9356937
  92.4243922  63.5404627  71.3686930  93.9452578  64.3844667  70.1321232
  94.3195391  65.3989103  69.9945848  95.0265100  63.5538727  70.8471345
  95.7709122  63.2904490  70.0957541  95.4894428  64.1741530  71.6146276
  94.4761358  62.2815511  71.4853993  93.9767680  62.3537034  72.6324089
  94.5575327  61.2019058  70.8555178  93.7350538  63.8485411  68.7107122
  94.7102065  63.6099302  67.9940959  92.4689917  63.7101225  68.3005645
  91.7073391  63.8439469  68.9502379  92.1525255  63.2005718  66.9357373
  93.0788847  62.9061266  66.4425234  91.2096313  61.9845105  66.9778613
  90.3220985  62.3111001  67.5198244  90.9448952  61.7735396  65.9417599
  91.7620149  60.7294352  67.6233993  92.6357165  60.4113375  67.0545757
  92.0620876  60.9753586  68.6420160  90.5702274  59.3943669  67.6670938
  90.5619206  58.8706566  65.9391437  91.5626252  58.5478143  65.6519811
  89.8636202  58.0432614  65.8130705  90.2544940  59.7042928  65.3077636
  91.6367350  64.3445984  66.0553502  91.0621671  65.3014812  66.6110308
  91.8355044  64.2455913  64.7365256  92.3486384  63.4582481  64.3665478
  91.3835779  65.3005960  63.7899758  90.6410243  65.9350398  64.2739122
  92.5441800  66.1608808  63.3576104  92.2549179  66.7216096  62.4687855
  92.7864232  66.8555046  64.1619213  93.6791099  65.3636006  63.0643862
  94.4054806  65.9289375  62.7916599  90.6916897  64.6470137  62.5851182
  91.0051289  63.4730033  62.3045983  89.7696636  65.3254651  61.8620030
  89.3576800  65.0932230  60.5232987  89.1738239  64.0241043  60.4170802
  90.1800903  65.3865174  59.8708275  88.1146530  65.9218683  60.2918513
  87.2202644  65.3663430  60.5739149  88.0396481  66.2241425  59.2472912
  88.3274360  67.1390647  61.1999627  87.3976782  67.5929309  61.5429711
  88.9543719  67.9014664  60.7375834  89.0584664  66.5085908  62.3739846
  89.8011627  67.2293184  62.7161138  88.1142336  66.1608846  63.5305271
  87.5884641  65.0714408  63.5477506  87.8903599  67.1031541  64.4493676
  88.3216545  68.0144316  64.3888892  87.0687776  66.7900753  65.6490818
  87.4713111  65.9093475  66.1494662  87.0794041  67.9615122  66.6360907
  87.3614028  68.8552918  66.0795532  86.0648650  68.0766978  67.0175914
  88.0406668  67.7650929  67.8016972  89.0569046  67.8263189  67.4123223
  87.8833213  68.5592291  68.5315548  87.8681914  66.4344515  68.4921947
  86.7790737  66.0780485  68.9369356  88.9566372  65.6907843  68.6005959
  88.9055693  64.7892277  69.0530217  89.8338098  66.0279134  68.2304424
  85.6424375  66.4065081  65.2417843  85.1019182  65.4685995  65.8566871
  85.0552780  67.0876749  64.2500765  85.5204918  67.8373206  63.7584398
  83.6294783  66.8059035  63.9223172  83.3739944  65.7918990  64.2299243
  82.7050532  67.7868266  64.6523652  83.0084263  68.7958923  64.3733485
  81.6886597  67.6040510  64.3035997  82.7555375  67.6413518  66.1829188
  82.4112202  66.6381806  66.4343029  83.7933862  67.7575806  66.4951095
  81.8940848  68.6661054  66.8993156  82.2383531  69.6658209  66.6344623
  80.8586961  68.5429258  66.5816735  81.9879899  68.4793257  68.4181415
  81.6116980  67.4843453  68.6558786  83.0392810  68.5461144  68.6981871
  81.2043620  69.5027114  69.1767217  80.2301151  69.4407033  68.9176893
  81.3006419  69.3337690  70.1678265  81.5531649  70.4247272  68.9568981
  83.3591560  66.8217360  62.4149831  83.6471443  67.8578029  61.7805092
  82.8269689  65.7232852  61.8653762  82.7174901  64.8882467  62.4228925
  82.4215750  65.6782840  60.4687891  82.3252044  66.6978000  60.0954274
  83.4278349  64.9353648  59.6007441  83.0502881  65.0123380  58.5811203
  84.4363573  65.3463603  59.6461912  83.5455729  63.4882142  59.9013701
  84.3989920  63.0558858  60.8846344  84.9356274  63.8083812  61.4624519
  84.5870530  61.7274319  61.1500216  85.2723943  61.4109261  61.9362989
  83.9029470  60.7881895  60.4153381  84.0183243  59.7254241  60.6282177
  83.0435733  61.2116476  59.3756126  82.5064420  60.4850808  58.7659481
  82.8884410  62.5638068  59.1362018  82.2371777  62.9034941  58.3308642
  81.0745161  65.0008167  60.3571980  80.5707370  64.4079771  61.3032196
  80.4871550  65.1187700  59.1875113  80.9278411  65.6840954  58.4759620
  79.1836801  64.5372567  58.8982287  78.7310903  64.1530165  59.8123519
  78.2594280  65.6114354  58.3070983  78.6106027  65.9164000  57.3213132
  77.2635813  65.1770935  58.2191406  78.1028928  66.9311337  59.1589387
  79.0882905  67.8680567  59.4087140  80.0773910  67.6684896  58.9964605
  78.5684281  68.9150452  60.1732637  79.0923684  69.7188849  60.4885855
  77.2365094  68.6794733  60.4271289  76.2995113  69.4496340  61.1440954
  76.6318108  70.3900607  61.5837241  75.0176653  68.9646255  61.2451729
  74.2628287  69.5388398  61.7823875  74.6565939  67.7397095  60.6690147
  73.6432019  67.3519037  60.7726622  75.5842619  66.9749864  59.9424367
  75.2437982  66.0356634  59.5067104  76.8974886  67.4431839  59.8144958
  79.3807014  63.3400195  57.9696214  80.3201731  63.3201684  57.1690886
  78.5657817  62.2986925  58.1522140  78.0025899  62.2818132  58.9904440
  78.4426322  61.1861153  57.2120145  79.0572005  61.3441276  56.3257655
  78.7148285  60.2391636  57.6781593  76.9887890  61.1315112  56.7993460
  76.1353854  60.5719412  57.4920203  76.6725005  61.7395438  55.6806096
  77.3882534  62.2259903  55.1598727  75.3042967  61.7953543  55.1897394
  74.6002952  61.8479957  56.0202272  75.1376416  63.0624648  54.3197360
  75.6807806  62.8188746  53.4066297  74.0863810  63.2272901  54.0835502
  75.7359991  64.3535806  54.9501061  75.4935601  64.2918453  56.0110080
  77.2595587  64.6041130  54.7812758  77.5027047  64.6664330  53.7205709
  77.5310361  65.5391509  55.2712807  77.8156394  63.7828190  55.2333277
  75.0137394  65.6592596  54.4536734  73.9579096  65.6149953  54.7208129
  75.4709717  66.5294612  54.9246182  75.1109948  65.7396319  53.3710005
  74.9695395  60.5118951  54.4068659  75.8484084  59.7165845  54.0420392
  73.6814102  60.2844422  54.1940603  72.9704759  60.8586365  54.6241448
  73.2593268  59.1834749  53.3551165  74.0231450  58.4154451  53.2334151
  71.9709682  58.5183782  53.8683577  71.6369882  57.7956678  53.1238798
  72.1910139  57.8222449  55.1757116  72.5245863  58.5444488  55.9208629
  71.2583566  57.3648010  55.5058547  72.9505070  57.0500280  55.0534334
  70.9133080  59.5112111  53.9240959  70.1062643  59.1013886  54.2439808
  73.0361092  59.7353810  51.9391788  72.3287254  60.7431747  51.7662567
  73.5785688  59.0373642  50.9233402  74.2978559  58.3446539  51.0745943
  73.1700560  59.3209404  49.5546124  73.4990670  60.3184537  49.2633767
  73.8018078  58.2998749  48.6032051  74.8580150  58.2665046  48.8704355
  73.3353631  57.3455534  48.8477454  73.6622380  58.5680395  47.0848573
  72.8333511  57.9767752  46.6956865  73.4565897  59.6271876  46.9298859
  74.9832372  58.1760508  46.3318473  75.0730226  58.7797338  45.4287391
  75.8364509  58.3675548  46.9825792  74.9901126  56.7642374  45.9539655
  75.6699255  56.1637819  46.3982705  74.1729721  56.2369662  45.0556618
  73.3336239  57.0013267  44.3655012  73.3156743  57.9984292  44.5253898
  72.7173434  56.5817910  43.6841145  74.1833490  54.9213435  44.8585398
  74.8115094  54.3386150  45.3932754  73.5630210  54.5112955  44.1750542
  71.6577236  59.3051175  49.4575640  71.0578587  60.2165055  48.8763421
  71.0097500  58.3255359  50.1157441  71.5065291  57.7365408  50.7687332
  69.5964774  58.0365374  49.8553855  69.4574341  57.7391821  48.8159885
  69.1289630  56.8828155  50.7645550  68.0417766  56.8542689  50.6916856
  69.5451060  55.9687402  50.3410087  69.5096744  56.9879660  52.1311113
  69.1758387  56.2293751  52.6155630  68.7216009  59.2762292  50.0515723
  67.7316550  59.4946937  49.3294433  69.0846525  60.1041410  51.0158873
  69.9344887  59.9081879  51.5252793  68.2825129  61.2413388  51.4274443
  67.2331977  60.9676122  51.3173964  68.5651432  61.5249068  52.9208560
  69.6099625  61.8092172  53.0458368  67.9245277  62.3370420  53.2645833
  68.3604720  60.6286552  53.5064685  68.5176493  62.5065313  50.5841592
  67.8061453  63.5046387  50.7880529  69.4578438  62.4901800  49.6355007
  69.8797910  61.6133009  49.3650512  69.9383390  63.7150292  49.0004450
  69.4104406  64.5707242  49.4214066  71.4356226  63.9082303  49.2227512
  71.8914767  62.9788744  48.8812928  71.8378716  64.7423176  48.6477780
  71.7466600  64.1132356  50.6994918  71.2426955  63.3308745  51.2669703
  73.2054647  64.0589061  50.9701818  73.7100877  64.8413242  50.4033693
  73.3838330  64.2097137  52.0348614  73.5949858  63.0857370  50.6713248
  71.1502260  65.4032722  51.2108057  70.0678509  65.3789487  51.0844255
  71.3895512  65.5210365  52.2676672  71.5622448  66.2421150  50.6498401
  69.6343641  63.6789650  47.5179550  70.0807672  62.7644512  46.8246457
  68.8699879  64.6559656  47.0638396  68.4372464  65.2460627  47.7599858
  68.5427978  64.8879095  45.6588525  68.9064224  64.0530954  45.0597184
  67.0147278  65.0656109  45.4266683  66.6747491  65.9421825  45.9781545
  66.7108233  65.2479639  43.9490691  67.0501208  64.3715262  43.3969506
  65.6365544  65.3703140  43.8109474  67.2274832  66.1330448  43.5778638
  66.2453307  63.8541908  45.9664752  66.4325354  63.8137889  47.0395189
  65.1873102  64.0477838  45.7898007  66.6330214  62.5131385  45.3290832
  67.6908737  62.3186243  45.5057540  66.0383037  61.7142901  45.7720858
  66.4456505  62.5526202  44.2560347  69.3591672  66.1098721  45.2131066
  69.2787802  67.1600387  45.8539420  70.1844056  65.9966020  44.1709715
  70.6928232  64.8315735  43.4630131  70.0393872  64.6317474  42.6137833
  70.6749462  63.9797727  44.1428770  72.0962608  65.2028374  43.0409704
  72.4020506  64.6297856  42.1656400  72.8029797  65.0302101  43.8526658
  71.9854221  66.6988127  42.7203807  71.5687207  66.8687350  41.7276142
  72.9199516  67.2507555  42.8209459  70.9963795  67.1556600  43.7811961
  71.5771441  67.4937401  44.6393992  70.0979486  68.2778959  43.3071544
  68.9805560  68.0623662  42.8397416  70.5945662  69.4926032  43.4284235
  71.4822400  69.6607693  43.8799261  69.8532005  70.6308228  42.9261318
  68.8636174  70.5721960  43.3793288  70.5179238  71.8853524  43.3915806
  69.9587806  72.7430540  43.0176728  70.5598143  71.9308259  44.8745332
  71.1192310  71.0736266  45.2491820  71.0471613  72.8510381  45.1967156
  69.5438568  71.9012535  45.2683052  71.8768823  71.8328488  42.9740865
  72.3305520  72.6289935  43.2603342  69.7559667  70.6733479  41.4201716
  70.4629685  70.2436404  40.8590745  68.9810295  71.1333576  40.9870048
  63.8801002  68.2478008  53.9324996  60.4884188  42.4759860  68.3904817
  61.2291423  43.1133860  68.1352350  60.5378089  41.6643318  67.7914171
  60.4884165  42.3635682  69.3942057  59.1984989  43.1196371  68.0699322
  58.6750006  42.5011650  67.3408636  58.2885782  43.3026238  69.3068530
  58.3482745  42.4362967  69.9656496  58.6116463  44.1923620  69.8473091
  56.8230677  43.5006280  68.9834981  56.0915160  42.5072367  68.3519445
  56.5798903  41.5688283  68.0893042  54.7352032  42.7004492  68.0504504
  54.1748350  41.9103891  67.5505573  54.1092341  43.8863639  68.3845180
  53.0564838  44.0397317  68.1472524  54.8178514  44.8700083  69.0159656
  54.3330495  45.8126937  69.2697597  56.1676536  44.6669689  69.3372598
  56.7212991  45.4359867  69.8759509  59.3650948  44.4263585  67.2565393
  59.6627923  45.5023340  67.7962213  59.1383706  44.2975954  65.9328361
  58.9712438  43.3624686  65.5897532  59.2644169  45.3772282  64.9623938
  59.6820235  46.2861203  65.3955439  60.1593224  44.9080433  63.7810172
  59.6939747  44.0348370  63.3237835  60.3322970  46.0245550  62.7093094
  60.7980412  46.8979804  63.1657205  60.9639984  45.6576604  61.9003333
  59.3560968  46.3006346  62.3106712  61.5153624  44.4348799  64.3174674
  62.2002084  45.2786163  64.2326406  61.3704391  44.1895774  65.3695717
  62.0808629  43.2730332  63.6172820  62.2265118  43.5177451  62.5651402
  63.0393401  43.0097247  64.0645954  61.3967408  42.4287063  63.7020695
  57.8847892  45.9049383  64.5422288  57.0308791  45.1175785  64.1380000
  57.6820475  47.2280320  64.6634432  58.4364588  47.7417594  65.0959326
  56.4512223  47.9552271  64.3184353  55.6960470  47.2934752  63.8942963
  55.8179409  48.7282776  65.5288719  54.9061255  49.2173043  65.1860239
  55.4854813  47.7843569  66.6902114  56.3969421  47.2952760  67.0339263
  55.0489733  48.3553670  67.5096677  54.7738115  47.0303388  66.3539309
  56.7128558  49.8741981  66.0063595  56.8635204  50.5820739  65.1913048
  56.2368665  50.3824099  66.8449623  57.6764948  49.4754548  66.3233840
  56.7571236  48.9003018  63.1368147  57.8801905  49.3898583  63.0091190
  55.7670296  49.1296033  62.2897636  54.8809926  48.6827563  62.4778206
  55.8758366  49.9836073  61.1071765  54.9010727  49.9674538  60.6196587
  56.0845784  50.9908845  61.4676190  56.9404777  49.5893257  60.0971193
  57.3906735  50.4316521  59.3135639  57.3606124  48.3279773  60.1495966
  56.9257091  47.7218764  60.8304785  58.3971148  47.7730069  59.2957871
  58.2967516  46.6891616  59.3532829  58.1724462  48.1049138  58.2821495
  59.8286483  48.1560612  59.6359521  60.7519772  47.5100395  59.1318087
  60.0535559  49.1826764  60.4919981  59.2908385  49.7444398  60.8424028
  61.4286417  49.6020189  60.8029258  62.1034303  48.7588139  60.6553967
  61.8878501  50.7672663  59.8952303  62.8784387  51.0395869  60.2594760
  61.9739661  50.3355423  58.8980851  61.0078748  52.0129106  59.8356759
  60.0069035  51.7509252  59.4928627  60.9444438  52.4766963  60.8200444
  61.6408078  52.9907712  58.8538187  62.6208478  53.2409942  59.2600318
  61.7643144  52.4470811  57.9172042  60.8639758  54.2574474  58.6004367
  60.0146237  54.0174012  57.9608435  60.5025919  54.6358786  59.5566221
  61.7063638  55.2994659  57.9389891  62.0409781  54.9491619  57.0527498
  61.1542355  56.1311461  57.7854889  62.4932175  55.5223512  58.5316800
  61.7339565  49.9412995  62.2748312  62.9000893  50.1526900  62.5865704
  60.7387837  49.9900828  63.1648421  59.7785230  49.9001705  62.8649846
  61.0004412  50.3363018  64.5671494  62.0302488  50.6806926  64.6619674
  60.0565688  51.4530100  65.0756704  59.0678272  51.0235114  65.2369779
  60.4684754  51.7836323  66.0291492  59.9457436  52.6347356  64.1377079
  60.9694057  53.5764542  64.0445681  61.8454371  53.4618132  64.6829457
  60.8890942  54.6457858  63.1600988  61.7008625  55.3706311  63.0989975
  59.7726989  54.7860919  62.3514897  59.6872247  55.8371124  61.4847700
  60.4534624  56.4144647  61.5185884  58.7415610  53.8648698  62.4226977
  57.8638517  53.9714627  61.7852303  58.8295208  52.7976727  63.3145796
  58.0183891  52.0723366  63.3782428  60.9867432  49.1057227  65.4771425
  59.9283186  48.5285857  65.7190399  62.1838726  48.6805864  65.9230564
  63.0008436  49.1873011  65.6133823  62.3745987  47.5314238  66.8056247
  61.5873449  46.8002809  66.6218840  63.7413906  46.8560280  66.5633244
  63.8543222  46.7286944  65.4866945  64.5095127  47.5365434  66.9307306
  63.8882959  45.5066545  67.2515621  63.4249523  45.5926295  68.2344262
  63.3402856  44.7776459  66.6546257  65.3342239  45.0494458  67.4099336
  65.3176619  43.9762371  67.5997963  65.8424713  45.2429771  66.4653016
  66.0748095  45.7516018  68.5365279  66.1450271  46.8099961  68.2855866
  65.4907683  45.6330882  69.4491886  67.4430260  45.1995622  68.7474827
  67.9845125  45.3096712  67.9020432  67.8935575  45.6959944  69.5029140
  67.3781607  44.2189389  68.9804408  62.2849312  48.0297919  68.2501973
  62.9595012  48.9890468  68.6226894  61.4513585  47.3633853  69.0609634
  60.9289926  46.6006599  68.6541670  61.2054736  47.7032838  70.4708728
  61.1042825  48.7826925  70.5837287  59.9035664  47.0334724  70.9527737
  59.8670486  46.2016315  70.2493489  59.9932938  46.6465800  71.9678418
  58.6022716  47.8703927  70.8316775  58.5855968  48.5582348  71.6770744
  58.4775874  48.6828900  69.4937358  58.4937231  47.9956392  68.6478487
  57.5400280  49.2388387  69.4916859  59.3123405  49.3789834  69.4116286
  57.4056258  47.0191668  71.1067890  57.4724319  46.6127934  72.1159952
  56.5019461  47.6220722  71.0175166  57.3682415  46.2007370  70.3878496
  62.3765174  47.2831988  71.2947550  62.8719137  46.1759507  71.1199774
  62.8510490  48.1729280  72.1433772  62.4242084  49.0882931  72.1397340
  64.0131923  47.9533510  73.0032916  64.5675750  47.0517376  72.7428065
  64.9872056  49.1600761  72.9734329  64.4324527  50.0605411  73.2370826
  66.1354444  48.9679304  73.9516316  66.6909814  48.0678464  73.6883287
  66.8000603  49.8306904  73.9065617  65.7395418  48.8673226  74.9621962
  65.5115247  49.4294730  71.5595985  64.6744087  49.6479834  70.8965810
  66.1905768  50.2818735  71.5796340  66.0432133  48.5505300  71.1950888
  63.5250679  47.6201094  74.4188051  63.7533691  46.5153303  74.8824758
  62.8192650  48.5492352  75.0815975  62.6739060  49.4529688  74.6547068
  62.3099864  48.3317420  76.4402796  61.9079386  47.3221798  76.5253734
  63.4451616  48.5027640  77.4834674  63.0399769  48.2313239  78.4582724
  64.2439701  47.8106343  77.2170814  63.9971425  49.9123052  77.5411546
  64.4453845  50.1284406  76.5713787  63.1574087  50.5861764  77.7109982
  65.0221234  50.1084003  78.6208054  64.6561330  49.7239565  79.5728311
  65.9545521  49.6070175  78.3613995  65.2837407  51.5394222  78.7630716
  64.6692887  52.0607131  79.3720083  66.2511574  52.1919318  78.1299728
  67.0936450  51.5377991  77.3341123  66.9960532  50.5400235  77.2115575
  67.8267605  52.0421349  76.8563186  66.4026119  53.5003411  78.3062727
  65.7787534  53.9990581  78.9244815  67.1408821  53.9900398  77.8212459
  61.1455873  49.2655039  76.7580664  61.0253280  50.3158498  76.1307346
  60.3200147  48.8883406  77.7701686  60.5114119  47.9982328  78.2074037
  59.1897144  49.6833256  78.2729668  58.5596826  50.0074115  77.4446388
  58.3392836  48.8282174  79.2335746  58.3853174  47.8052978  78.8599229
  58.8258915  48.8809677  80.2074997  56.8716564  49.2567293  79.3713495
  56.8611465  50.2737131  79.7634394  56.4311725  49.2476972  78.3743568
  56.0499043  48.3339970  80.3072692  56.6219341  48.2314021  81.2294162
  55.1137834  48.8516031  80.5166992  55.7505041  46.9551397  79.7409460
  55.2696122  47.0892297  78.7719964  56.6994819  46.4360971  79.6062789
  54.8615193  46.1453515  80.6306123  53.9819578  46.6259288  80.7551784
  54.6952613  45.2427637  80.2089565  55.3071274  46.0206223  81.5283735
  59.7809916  50.8716092  79.0135068  60.7512773  50.6960143  79.7550438
  59.2568963  52.0757349  78.7534463  58.5687366  52.1165201  78.0152918
  59.7016781  53.3386763  79.3628707  60.3018756  53.2019535  80.2624089
  60.4801478  54.2500213  78.3480779  60.6176711  55.2305789  78.8038129
  61.8549494  53.6559089  77.9834508  61.7182065  52.6754776  77.5272092
  62.3615383  54.3161846  77.2795301  62.4586591  53.5553465  78.8854048
  59.6218153  54.5829077  77.0902591  59.6785931  53.7088950  76.4414302
  58.5979645  54.7070080  77.4430028  60.0379048  55.8050163  76.3213027
  61.0615646  55.6814531  75.9678162  59.3734671  55.9417879  75.4681232
  59.9809381  56.6795662  76.9693900  58.5154668  54.0939349  80.0308500
  58.7006248  55.1961279  80.5563374  57.3163128  53.5027838  79.9719437
  57.2573598  52.6032212  79.5165197  56.0924658  54.0809805  80.5260342
  56.2810783  54.2667952  81.5833881  55.9309951  55.0296419  80.0141082
  54.8432068  53.2262943  80.3892514  54.9179875  52.0665203  79.9646468
  53.6773939  53.8095482  80.7708441  53.7641974  54.7373898  81.1602982
  52.3396774  53.1797874  80.7513553  52.2717037  52.4846602  79.9145298
  52.0892092  52.4078175  82.0505509  52.3016637  53.0817617  82.8804675
  51.0356807  52.1289078  82.0702260  52.8908315  51.2395768  82.1718992
  52.6913179  50.7993438  83.0013502  51.1992113  54.2021407  80.4895691
  51.4696140  55.3677507  80.1732011  49.9500702  53.7378580  80.6088081
  49.8610810  52.7630825  80.8577921  48.7267612  54.5182108  80.4101790
  48.6908728  55.2882716  81.1807746  48.7845931  54.9892820  79.4289315
  47.4593768  53.6854128  80.4845109  47.5199627  52.4785686  80.7618236
  46.2936677  54.3326640  80.2414385  46.3440122  55.3286179  80.0813116
  44.9615391  53.6920256  80.2584388  44.8295980  53.1408570  81.1895156
  43.8523685  54.7494411  80.1525765  42.9084182  54.2393687  80.3446264
  44.0357964  55.4814427  80.9391055  43.7860383  55.4110231  78.8960927
  43.0720553  56.0526196  78.9095859  44.8324517  52.6550879  79.1193840
  44.2907280  51.5578927  79.3108470  45.3527802  53.0420101  77.9418585
  45.7091900  53.9859649  77.9868110  45.4111481  52.3383132  76.6591267
  44.4303005  51.9508352  76.3836309  45.8725216  53.3509025  75.5651657
  45.8442324  52.8916638  74.5770368  45.1979265  54.2067929  75.5869174
  47.2801484  53.9009621  75.7497008  47.5302149  54.9415906  76.6379439
  46.6971345  55.3870236  77.1816961  48.8348387  55.4191761  76.8385998
  49.0124994  56.2388724  77.5347574  49.8921573  54.8521503  76.1556509
  50.9075578  55.2146045  76.3159280  49.6597744  53.8242747  75.2686932
  50.4939922  53.3763717  74.7287268  48.3560502  53.3540032  75.0593369
  48.1748811  52.5488276  74.3473187  46.3505090  51.0921821  76.7070573
  45.9585010  50.0076092  76.2594710  47.5647095  51.2867557  77.2501938
  47.7206441  52.2134308  77.6204060  48.6480768  50.3080672  77.3508367
  48.3697806  49.5700674  78.1031708  48.7532785  49.8176973  76.3830716
  49.9809352  50.9309044  77.7376639  50.0147675  51.8447857  78.5653851
  51.0955249  50.4658476  77.1269323  51.0008579  49.7131123  76.4602037
  52.4614590  50.9333465  77.4710745  52.4127053  51.6126199  78.3221386
  53.3748999  49.7383235  77.8430686  53.6210964  49.2399911  76.9054379
  54.2832651  50.1459412  78.2867133  52.7524437  48.7410547  78.7955565
  52.4292411  49.1359749  79.9406347  52.6022146  47.5626082  78.4037080
  53.1768508  51.7953950  76.4198120  52.7624357  51.8697198  75.2673086
  54.2715716  52.4397106  76.8558140  54.4372431  52.3895849  77.8508716
  55.1547197  53.2804110  76.0470449  54.8487662  53.2188440  75.0026785
  55.1671046  54.7601448  76.4935551  55.5483399  54.8276083  77.5124804
  56.0684132  55.5760414  75.5550133  55.6875195  55.5094330  74.5359039
  56.0750452  56.6187780  75.8724360  57.0832383  55.1797740  75.5896727
  53.7204156  55.3155153  76.4927930  53.4950068  55.5717337  75.4575907
  53.0800582  54.4926874  76.8105918  53.4837848  56.4549097  77.3289109
  54.1234975  57.2783513  77.0114027  52.4390529  56.7550149  77.2478466
  53.7085513  56.1993054  78.3644041  56.5352532  52.6332181  76.0687139
  57.0455977  52.3122162  77.1383621  57.1092478  52.4108633  74.8694735
  56.5885276  52.7211875  74.0616068  58.3939650  51.7542958  74.6538234
  58.8217779  51.4279934  75.6017696  58.1797386  50.5267355  73.7656996
  57.6325724  50.8244509  72.8712312  59.1848646  50.2098406  73.4874921
  57.4587296  49.3809875  74.4391619  56.0667787  49.3064030  74.4351585
  55.4994244  50.1039446  73.9554337  55.3988914  48.2361616  75.0305833
  54.3096214  48.1966518  75.0249433  56.1266673  47.2212548  75.6345572
  55.4827465  46.1505313  76.2209062  54.5266173  46.2059051  76.1549487
  57.5106171  47.2777278  75.6482540  58.0867458  46.4948259  76.1414486
  58.1663438  48.3402192  75.0286206  59.2556535  48.3660174  74.9996535
  59.4560368  52.6230069  73.9911217  59.1377691  53.5218189  73.2144342
  60.7251079  52.3072984  74.2622244  60.9067028  51.5927920  74.9525890
  61.8526095  52.9036674  73.5794058  61.6215332  53.9430725  73.3462962
  63.1209522  52.8648095  74.4387816  62.9326244  53.5793532  75.2400675
  63.2142229  51.8637575  74.8598464  64.4291951  53.2406409  73.7118978
  64.5654048  52.5476477  72.8816519  64.4075739  54.6511807  73.1889494
  64.2718520  55.3448261  74.0187292  65.3501160  54.8672248  72.6859187
  63.5850656  54.7648617  72.4827928  65.6119288  53.0754740  74.6138191
  65.6794633  52.0372598  74.9388572  66.5203078  53.3471276  74.0760894
  65.4986864  53.7215633  75.4843612  62.0327570  51.9971745  72.3501575
  62.0461402  50.7814069  72.4909555  62.0854545  52.5724934  71.1498971
  61.9683936  53.5719698  71.0636249  62.2591964  51.7875717  69.9298898
  62.5371669  50.7608929  70.1681379  60.9725420  51.7666785  69.1116051
  60.6863017  52.7872775  68.8575498  61.1324668  51.1962821  68.1966339
  60.1778840  51.3015217  69.6949122  63.4152602  52.3895033  69.1311434
  63.7849619  53.5443678  69.3375958  64.0124659  51.5899735  68.2650444
  63.7743067  50.6084608  68.2685737  65.1201410  52.0279167  67.4297555
  65.2179575  53.1092693  67.3337986  66.4732091  51.4248013  67.9357320
  66.6101052  51.7445672  68.9687420  66.5175694  49.9117970  67.8656087
  66.3811983  49.5912705  66.8327649  67.4820137  49.5587545  68.2307236
  65.7214513  49.4954520  68.4828217  67.6783965  52.0578415  67.2424661
  67.8804269  51.4530812  66.3584133  67.3698697  53.0572251  66.9356384
  68.9512465  52.1551353  68.0979179  69.2606669  51.1560313  68.4047566
  69.7471017  52.6183106  67.5146663  68.7501087  52.7601737  68.9819835
  64.8119429  51.7603707  65.9478583  64.3711006  50.6652686  65.6005035
  64.9835410  52.7841226  65.0903158  65.2203848  53.6851723  65.4803333
  64.8137812  52.6781703  63.6365136  63.8771210  52.1638876  63.4213856
  64.7797927  54.0683539  62.9628812  63.9327400  54.6100821  63.3837510
  65.7031387  54.5954127  63.2031751  64.6232671  54.0231035  61.4319419
  65.0920572  53.1299291  60.7440595  63.9774734  54.9915506  60.8526745
  63.8599419  54.9870504  59.8495464  63.5963798  55.7437983  61.4085448
  65.9802834  51.8436082  63.1193603  67.1222583  52.3127284  63.1101123
  65.6925284  50.5958214  62.7362608  64.7411560  50.2950222  62.8928162
  66.6669337  49.6047879  62.2637895  67.5519614  49.5334008  62.8960308
  66.0432254  48.1858436  62.0803257  66.7965040  47.5255268  61.6506127
  65.5654161  47.6101522  63.4348097  64.8117335  48.2697335  63.8649440
  65.1351283  46.6209875  63.2782643  66.4123275  47.5336298  64.1167075
  64.9315121  48.1832548  60.9920845  64.0162109  48.5424517  61.4625120
  65.2378176  48.8821609  60.2137486  64.6796859  46.8079528  60.3716035
  64.3728706  46.1085729  61.1493130  63.8920104  46.8856029  59.6221790
  65.5944787  46.4482809  59.9005513  67.4376675  50.0382502  60.9963461
  68.4593994  49.4097093  60.6508605  66.9602897  51.0913275  60.3000153
  66.0653293  51.5107310  60.5079721  67.6709277  51.5355813  59.1088742
  68.3232784  50.7580205  58.7114614  66.7497460  52.0104399  57.9987302
  67.3529747  52.1239342  57.0979892  65.6086942  51.0649589  57.7230212
  65.0047065  50.9513173  58.6232345  64.9905016  51.4652857  56.9194818
  66.0045520  50.0935768  57.4266869  66.2970626  53.2967287  58.3371692
  65.7109849  53.6209381  57.6494182  68.7575866  52.5784802  59.3841891
  69.6404733  52.7241690  58.5389271  68.7393810  53.2627271  60.5392115
  68.0310605  53.0794658  61.2354849  69.6753863  54.3617845  60.7747809
  70.6449213  54.1491677  60.3243422  69.1007069  55.6348701  60.1273656
  69.8198588  56.4536920  60.1485885  68.9109650  55.3453333  59.0937959
  67.8183158  56.1091468  60.7340127  67.5493688  55.9233766  61.9126161
  67.0337691  56.8184338  59.9678211  66.1559615  57.1627201  60.3297887
  67.3085193  57.0193569  59.0169042  70.0809988  54.6649889  62.2594878
  70.8894898  55.5760350  62.4854225  69.4841378  53.9763807  63.2547956
  68.7119160  53.3696725  63.0188338  69.8614626  54.1021119  64.6597962
  69.7377720  53.1478276  65.1717936  71.3548130  54.5299781  64.7590949
  71.8899677  53.8926166  64.0551922  71.4200511  55.5674225  64.4311420
  72.0204434  54.4082567  66.1333537  71.6514572  53.5933544  66.9660610
  73.0006644  55.2189222  66.4334605  73.4497405  55.1511736  67.3355916
  73.3045216  55.9093629  65.7618481  68.9728790  55.0944207  65.3711692
  69.1399696  55.2173339  66.6257448  68.0559437  55.7974493  64.7301578
  68.0234349  55.6604167  63.7300255  67.1494183  56.7710821  65.3236355
  67.7172863  57.5863050  65.7720067  66.2197011  57.3561570  64.2371036
  66.8683635  57.7379702  63.4487160  65.6324182  56.5226259  63.8518442
  65.2784513  58.4692671  64.7071256  65.0054354  58.2386707  65.7368772
  65.8527155  59.3954013  64.6827303  64.0170866  58.6331178  63.8730897
  63.6213078  57.6815672  63.1510934  63.4181749  59.7284363  63.9472529
  66.3423864  56.1336604  66.4440279  65.8316170  55.0383640  66.2631788
  66.2779223  56.8029297  67.6169618  66.8472304  57.6337454  67.6926776
  65.5012785  56.3802692  68.7924193  65.2885165  55.3145991  68.7076926
  66.2384153  56.6251962  70.0948395  66.7703884  57.5728709  70.0110746
  65.5012528  56.6924175  70.8949475  67.2153356  55.5293423  70.4059659
  66.6340586  54.6072739  70.4031813  67.9298942  55.5102576  69.5830801
  67.9606364  55.6518385  71.7184885  67.6735650  56.5761588  72.5178933
  68.8553124  54.8053016  71.9369174  64.1673689  57.0898037  68.8092439
  64.0980612  58.2921845  68.5841711  63.1060131  56.3316814  69.0440897
  63.2464618  55.3384767  69.1620644  61.7395111  56.8431173  69.0544546
  61.6752899  57.9101734  69.2674477  60.9914484  56.5551524  67.7054151
  59.9413554  56.8164454  67.8362960  61.5738221  57.3563951  66.5442261
  62.6238461  57.0952829  66.4124271  61.0250989  57.1251879  65.6312383
  61.4890214  58.4217453  66.7585609  60.9503505  55.0694042  67.3829428
  60.4304487  54.5382754  68.1802548  60.4234939  54.9159288  66.4411535
  61.9676148  54.6876813  67.2959839  60.9563184  56.2675306  70.2463041
  61.4099419  55.3342223  70.9089135  59.7611335  56.8320537  70.4880845
  59.4960967  57.6474790  69.9542902  58.8314394  56.3298644  71.4867265
  59.2651941  55.5725683  72.1397645  58.2848758  57.4512008  72.3430826
  57.8390065  58.2131191  71.7037227  57.5268803  57.0561613  73.0194603
  59.0944494  57.8932546  72.9238393  57.7109830  55.6521389  70.6906821
  57.3264756  56.1293952  69.6117297  57.2478685  54.5027252  71.1947516
  57.7248525  54.1350132  72.0055373  56.1799981  53.7091987  70.6032209
  55.6460207  54.2731219  69.8383955  56.7221389  52.3931683  69.9647906
  57.3566406  51.8915897  70.6954928  55.5954283  51.4672129  69.5548017
  54.9607171  51.9679630  68.8237121  56.0112222  50.5611087  69.1141304
  55.0025060  51.2053819  70.4311517  57.5997287  52.6882674  68.7626497
  58.4475227  53.2993776  69.0723136  57.9629350  51.7520690  68.3387235
  57.0200437  53.2256461  68.0121231  55.1225392  53.4561690  71.6935124
  55.3964580  52.7666602  72.6786881  53.9358700  54.0585577  71.5257264
  53.8343762  54.7049674  70.7563417  52.7786650  53.8266525  72.3962306
  53.1387295  53.6127614  73.4025622  51.8181999  55.0416982  72.4615886
  51.4431923  55.2006245  71.4505441  50.9931039  54.7553752  73.1137663
  52.4443599  56.3189599  72.9729625  52.5438402  56.2542902  74.0564856
  53.4311400  56.4327911  72.5241758  51.5931497  57.5057684  72.6183133
  52.1836869  58.1612716  71.9782506  50.7270796  57.1425037  72.0650858
  51.1294176  58.2720828  73.8300459  51.9867795  58.4153550  74.4876965
  50.7622448  59.2424856  73.4959774  50.0535174  57.5634478  74.5674964
  50.3936806  56.6644042  74.8775113  49.7760694  58.1128487  75.3682967
  49.2588104  57.4309677  73.9584079  52.0769906  52.6219804  71.7655491
  51.7928965  52.6117315  70.5609427  51.8626052  51.5877910  72.5762163
  52.1665490  51.7042000  73.5323368  51.2470283  50.3242083  72.1966259
  51.0534165  50.2875107  71.1245872  52.2377471  49.1871032  72.5607047
  53.1650854  49.7107748  72.7928921  51.8444954  48.7264898  73.4669543
  52.5097891  48.1129590  71.5251815  51.5681266  47.6164907  71.2908913
  53.1100319  48.6968725  70.2454399  54.0520135  49.1931379  70.4788712
  53.2900554  47.8951500  69.5292463  52.4164342  49.4190839  69.8148203
  53.4479098  47.0941884  72.0868568  53.0025376  46.6376607  72.9707830
  53.6399488  46.3249126  71.3389015  54.3864391  47.5758895  72.3611299
  49.9250485  50.1795982  72.9648617  49.8907104  50.3744763  74.1838208
  48.8421560  49.8747242  72.2479868  48.9462178  49.7594340  71.2499995
  47.5151278  49.7063764  72.8287419  47.5945523  49.5844025  73.9089795
  46.6502821  50.9374087  72.5372142  47.1014367  51.7636866  73.0865990
  46.7363553  51.1235833  71.4666861  45.1814677  50.8200853  72.9146021
  44.8771694  49.8445005  72.5354747  45.0730043  50.8378493  73.9990464
  44.3062651  51.8952236  72.3019954  43.8078259  51.7038500  71.1660550
  44.1759587  52.9618065  72.9415845  46.8789664  48.4950642  72.2378718
  46.8064554  48.3803983  71.0162156  46.3677505  47.6051648  73.0889132
  46.4407107  47.7268806  74.0888939  45.6985178  46.4245139  72.5889012
  46.3671679  45.8656651  71.9341537  45.2900863  45.5275657  73.7458963
  46.1686430  45.3358832  74.3619281  44.5379831  46.0483000  74.3385821
  44.7589457  44.2967248  73.2848657  44.5109131  43.7536391  74.0366220
  44.4596057  46.8515524  71.8003963  43.8310290  47.8766349  72.0910564
  44.1753279  46.1111756  70.7339132  44.8207975  45.3752230  70.4852324
  42.9531524  46.2503490  69.9541012  42.7479663  47.3065309  69.7795231
  43.0899460  45.5441560  68.5927871  43.3538196  44.5043470  68.7858339
  42.1184660  45.5865185  68.1003117  44.1445390  46.1768742  67.6911579
  43.7826558  47.1771359  67.4532127  45.0867619  46.2515434  68.2340599
  44.3884294  45.4344605  66.4037988  45.5039997  44.9851256  66.1261406
  43.3682598  45.3206285  65.5682742  43.4882531  44.8303892  64.6934208
  42.4744893  45.7245268  65.8094006  42.0595759  45.4704964  70.9148925
  42.5362799  44.4808554  71.4804664  40.8602045  45.9612847  71.2293067
  40.5489498  46.8241248  70.8065457  40.0023227  45.3342067  72.2495777
  38.9963014  45.7485482  72.1836880  39.9215187  43.8169664  72.0459443
  40.9409690  43.4315105  72.0303241  39.3881120  43.3976214  72.8990135
  39.2030996  43.4180857  70.7461485  38.2310051  43.9110873  70.7370702
  39.8010855  43.7796213  69.9096038  39.0102463  41.9167188  70.6187514
  38.6849384  41.5183836  71.5797940  38.2458233  41.7201246  69.8670150
  40.3211631  41.2400749  70.2029651  41.0857099  41.5207993  70.9273700
  40.1658544  40.1617925  70.2388185  40.7667875  41.6340759  68.8299960
  40.9111714  42.6331469  68.7966783  41.6313039  41.1613670  68.6080552
  40.0586691  41.3736525  68.1585445  40.5029273  45.6892581  73.6782721
  40.4070314  44.8870863  74.6124468  41.0376987  46.9171277  73.8247808
  41.1430079  47.4831061  72.9949148  41.4602282  47.4801702  75.1057797
  41.8288030  46.7362252  75.8120358  42.5388625  48.5459241  74.9115690
  42.1809364  49.3029256  74.2137598  42.7648945  49.0136858  75.8698011
  43.4409295  48.0821382  74.5124739  40.2021099  48.1067474  75.7112491
  39.3201877  48.5686799  74.9749709  40.1179229  48.0804179  77.0465540
  40.8700223  47.6063648  77.5258447  39.0185814  48.6187787  77.8443872
  38.0724114  48.1729548  77.5376257  39.2611598  48.2866930  79.3398810
  39.4209265  47.2095458  79.3881282  40.1799413  48.8026054  79.6187627
  38.1395944  48.6807549  80.3090411  38.5339316  48.5687597  81.3190194
  37.9090963  49.7298799  80.1238134  36.8724459  47.8500877  80.1645091
  36.8489946  47.3850240  79.1789814  36.8516928  47.0759634  80.9315817
  35.6848122  48.6903460  80.3145125  35.3259027  48.8200768  81.2496346
  35.0644161  49.2979503  79.3063762  35.4902688  49.1360825  78.0599099
  36.2903461  48.5479831  77.8752063  35.0123272  49.6017390  77.3017308
  34.0069868  50.0590564  79.5349081  33.6695611  50.1790430  80.4792847
  33.5418849  50.5167028  78.7639745  38.8747337  50.1353886  77.6269218
  37.7546228  50.6246783  77.4485251  40.0203845  50.8634809  77.6039286
  40.8874172  50.3803885  77.7909455  40.0575897  52.3194556  77.4398411
  39.0547894  52.6965847  77.2391817  40.5855413  52.9852217  78.7206286
  41.6271945  52.6927673  78.8530232  40.5143796  54.0726052  78.6954630
  39.8598406  52.5392646  79.9406179  38.5927348  53.0077453  80.2350219
  38.2394115  52.3967848  81.3510160  37.2581556  52.6309114  81.7638365
  39.1968023  51.5697684  81.7810668  39.1900561  50.9921298  82.6095522
  40.2280059  51.6382669  80.8771724  41.1165970  51.0225412  81.0164168
  40.8558838  52.7733271  76.2006801  41.9951636  53.2581708  76.3572377
  40.2722471  52.6469334  74.9666530  39.0911774  52.0008242  74.5764183
  38.2832790  52.3888246  75.1967861  39.2185786  50.9359081  74.7708964
  38.8897717  52.2986343  73.1074007  38.3280821  53.2229999  72.9726713
  38.3649866  51.4801126  72.6147301  40.3210991  52.4305505  72.5742733
  40.4362461  53.0660803  71.6962402  40.7471902  51.4483726  72.3696453
  41.0232545  53.0625865  73.7652982  42.0107893  52.6066774  73.8361513
  41.1721172  54.5783336  73.5974901  40.2258424  55.3104038  73.8802308
  42.3662564  55.0482493  73.1622559  43.1206677  54.3828728  73.0714980
  42.6608512  56.4640522  72.9458441  41.7686494  56.9679318  72.5741177
  43.1044256  57.1493858  74.2589521  42.9891118  58.2221666  74.1042156
  42.4115227  56.8178120  75.0322854  44.5466847  56.8474328  74.6996358
  44.6434116  55.7990437  74.9818149  45.1892562  57.0535369  73.8436422
  44.9970567  57.7003831  75.8557456  44.3437913  57.7790104  76.9030927
  46.1536686  58.3263275  75.7027306  46.5086015  58.9134052  76.4439889
  46.6757104  58.2138560  74.8454536  43.6793042  56.7422196  71.8136881
  43.7357317  57.8719555  71.3373398  44.4711938  55.7416288  71.3983281
  44.3639347  54.8667574  71.8914759  45.5384861  55.8508513  70.4037851
  46.2492338  56.6242763  70.6949047  46.2776748  54.5229911  70.3047277
  45.8472054  53.9325304  71.1135241  46.0720772  54.0365401  69.3512105
  47.7571588  54.6318663  70.4999354  48.1661611  55.2668731  69.7140700
  48.0877573  55.2240806  71.8475577  47.6794512  54.5893358  72.6339953
  49.1698800  55.2905911  71.9601974  47.6531330  56.2207921  71.9235075
  48.4119547  53.3168677  70.3077951  48.2169120  52.9574541  69.2974092
  49.4869979  53.4207879  70.4547099  48.0143931  52.6034985  71.0297010
  45.1102052  56.3500658  69.0028035  45.7873920  57.2236581  68.4302613
  43.9966848  55.8270445  68.4622344  43.5018020  55.0671639  68.9069497
  43.5048634  56.3153609  67.1791927  44.3072352  56.2613885  66.4434035
  42.3205490  55.4848419  66.6739427  42.7558169  54.4945223  66.5401212
  41.5586871  55.4441260  67.4524082  41.6794447  55.9459458  65.3527029
  41.3533969  56.9781500  65.4805625  42.6404718  55.8597788  64.1745280
  42.9666173  54.8277209  64.0457467  42.1366423  56.1967885  63.2686135
  43.5070002  56.4930642  64.3647344  40.4380494  55.1674875  65.0617435
  39.7198297  55.3129872  65.8686448  40.0040343  55.5121678  64.1231660
  40.6832276  54.1085076  64.9808235  43.1076010  57.7893759  67.3308448
  43.4740831  58.6053897  66.4943304  42.3972994  58.1292595  68.4223848
  42.0931360  57.3788792  69.0261342  41.9660152  59.4856160  68.7351610
  41.3950679  59.8906910  67.8996776  41.0695023  59.5000711  70.0017855
  40.2490905  58.8161107  69.7844791  41.6379329  59.1259143  70.8532509
  40.5108473  60.8705339  70.3304895  39.5694332  61.4751765  69.5040140
  39.2261648  60.9391087  68.6191990  39.0667328  62.7402010  69.7892916
  38.3309147  63.1973121  69.1276852  39.5261004  63.4332481  70.9004118
  39.0132072  64.6759032  71.1837609  38.3498546  64.9610783  70.5511171
  40.4729044  62.8570104  71.7318986  40.8337854  63.3931072  72.6096603
  40.9640349  61.5852063  71.4412196  41.7159805  61.1307803  72.0863358
  43.1834160  60.3988444  68.8818871  43.2221603  61.4576604  68.2430621
  44.1963532  59.9646296  69.6661629  44.0713608  59.1176403  70.2019665
  45.4524835  60.7058001  69.8201789  45.2373607  61.6992002  70.2138510
  46.4092191  59.9987493  70.7766229  46.1661242  58.9363797  70.7572594
  47.4203355  60.1465470  70.3972820  46.3248395  60.5083433  72.1957786
  46.0138598  61.5530094  72.2038613  45.5655726  59.8999613  72.6871891
  47.6380382  60.3678284  72.9331881  47.9891406  59.2269932  73.3029288
  48.3419316  61.3909673  73.0962215  46.1459985  60.9236181  68.4754194
  46.5772037  62.0299077  68.2087970  46.2079094  59.8931408  67.6063626
  45.8516247  58.9984936  67.9109394  46.8351962  59.9789539  66.2760783
  47.8734707  60.2939342  66.3803503  46.8045840  58.6206328  65.5712588
  47.6528276  58.5866890  64.8875704  46.9232045  57.8520642  66.3350203
  45.6054241  58.3880005  64.8487252  45.6459374  57.5246188  64.4309566
  46.1817807  61.0465052  65.4026846  46.8805541  61.7107101  64.6392288
  44.8411280  61.1905397  65.5183442  44.3790603  60.5777398  66.1749028
  44.0283218  62.1629349  64.7866260  44.2726487  62.1232675  63.7251034
  42.5423373  61.8559803  64.9570811  42.3734933  61.6689747  66.0175620
  41.9941906  62.7481165  64.6542143  42.0609753  60.6768678  64.1576893
  42.0076935  60.9432213  63.1020769  42.7460969  59.8389131  64.2863067
  40.6880390  60.2835808  64.6470125  40.7670496  60.0372674  65.7058733
  40.0286836  61.1425675  64.5225471  40.1252702  59.1092227  63.9012428
  39.7469488  59.4449562  62.9357085  40.9127737  58.3718013  63.7458492
  39.0209365  58.4963002  64.6785137  38.2909215  59.1793224  64.8222447
  38.6484559  57.7074301  64.1695520  39.3713809  58.1847489  65.5730659
  44.2789564  63.5526075  65.3151610  44.4244394  64.4997986  64.5441137
  44.2779030  63.6712794  66.6323432  44.0134909  62.8527768  67.1617192
  44.4817634  64.9086366  67.3433862  43.8646748  65.7110983  66.9392129
  44.0673465  64.6563631  68.7907959  43.1200564  64.1371372  68.6453827
  44.8072125  63.9584262  69.1826919  43.8756531  65.7849270  69.7680815
  44.7859608  65.8582015  70.3631206  43.5935597  67.1278260  69.1040978
  42.6830801  67.0554612  68.5092119  43.4666643  67.8929073  69.8700279
  44.4289426  67.3966888  68.4576084  42.7837381  65.4492655  70.6943158
  43.0338925  64.5373433  71.2364598  42.6436705  66.2656967  71.4027806
  41.8632153  65.2956227  70.1311722  45.9205066  65.4518442  67.1421780
  46.0635451  66.6633719  67.0285881  46.9532061  64.5793412  66.9696207
  46.7638457  63.6021698  67.1410213  48.3366737  64.9770926  66.6404198
  48.6162892  65.8283082  67.2611826  49.3416051  63.8435861  66.8814130
  48.7699562  62.9409036  66.6658185  50.1784776  63.9175783  66.1869566
  49.8661454  63.7810104  68.2966642  50.7268257  64.7636102  68.7836551
  51.0012514  65.5911861  68.1295082  51.2354655  64.7020626  70.0822695
  51.9013388  65.4834613  70.4485079  50.9055630  63.6310837  70.9014414
  51.3842107  63.5933505  72.1881245  51.9297693  64.3521066  72.4077941
  50.0821084  62.6179243  70.4249075  49.8291075  61.7687984  71.0597904
  49.5780473  62.6922138  69.1243751  48.9473000  61.8917120  68.7377811
  48.4489642  65.4829223  65.2094086  49.3368641  66.2728430  64.9479565
  47.5358540  65.0751215  64.2974797  46.8453943  64.3947632  64.5811649
  47.5010628  65.5663715  62.9169302  48.4978588  65.4853300  62.4834223
  46.5161243  64.7571214  62.0445631  45.6658645  64.5072794  62.6791784
  46.1884882  65.4192635  61.2431129  47.0900620  63.4896470  61.4485151
  47.8422435  63.7528057  60.7048274  47.5529480  62.8999678  62.2397907
  45.9844281  62.6725830  60.7861685  45.1868386  62.5423601  61.5175999
  45.6101123  63.2485709  59.9398677  46.4521554  61.3206249  60.3064984
  47.1453503  61.4673647  59.4782178  46.9675281  60.8209508  61.1267520
  45.3116125  60.4823553  59.8547739  44.8341813  60.9449866  59.0944243
  45.6560142  59.5863749  59.5405979  44.6693782  60.3459067  60.6222477
  47.0680731  67.0265039  62.8957533  47.5972264  67.8149954  62.1015425
  46.0505324  67.3614668  63.7164540  45.5918257  66.6127972  64.2156348
  45.5102965  68.7084343  63.8428372  45.3897776  69.2106999  62.8829916
  44.1301387  68.6562073  64.5812286  44.2664376  68.0876700  65.5011679
  43.5792823  70.0510132  64.9182150  43.4422727  70.6200197  63.9986712
  42.6214928  69.9503658  65.4287148  44.2828824  70.5731982  65.5665736
  43.0904878  67.8530974  63.7650297  42.4865099  68.5823027  63.2250564
  43.6520465  67.2485119  63.0528305  42.1785050  66.9494471  64.5914584
  41.6162387  67.5534205  65.3036190  41.4855233  66.4292690  63.9301791
  42.7817761  66.2196307  65.1313953  46.5616797  69.6267165  64.5491467
  46.7663292  70.7604153  64.1104218  47.2382937  69.1191694  65.5991650
  47.0106615  68.1836614  65.9043006  48.1883770  69.8971662  66.3960248
  47.8655518  70.9375986  66.4332198  48.2774638  69.3578506  67.8355717
  48.5700862  68.3235349  67.6548442  49.0679251  69.8675773  68.3864342
  46.9813232  69.3863972  68.6573342  46.1624469  69.0232899  68.0362902
  47.1043804  68.5295953  69.8644192  47.9228138  68.8923884  70.4862286
  46.1744286  68.5647608  70.4319170  47.3063311  67.5019973  69.5621633
  46.5559236  70.8097631  68.9976260  46.3888089  71.3694268  68.0773278
  45.6345730  70.7848729  69.5795150  47.3397111  71.2944275  69.5797571
  49.5886637  70.0304834  65.7991439  50.3839685  70.8369192  66.2897819
  49.8936789  69.2792024  64.7437442  49.2545190  68.5620128  64.4319541
  51.2089189  69.3549483  64.1150731  51.9777489  69.2205201  64.8759466
  51.3885185  68.2734541  63.0394452  50.5750436  67.5569254  63.1532184
  51.3105486  68.7594735  62.0669197  52.7454855  67.5335359  63.1391118
  52.6991904  66.6147107  62.5545454  53.4829919  68.2057668  62.7006007
  53.1842435  67.1872939  64.5563291  54.0003038  67.9076029  65.1833686
  52.6202384  66.1093906  65.1064023  52.8741055  65.8334137  66.0442135
  51.9422905  65.5748849  64.5821966  51.5237267  70.7547641  63.5893947
  50.6508017  71.4291766  63.0103689  52.7423527  71.2076282  63.9153113
  53.3525312  70.6092252  64.4535450  53.2317348  72.5269517  63.5292067
  54.1444664  72.3842474  62.9507124  52.4717781  72.9897523  62.8996188
  53.5269357  73.4409079  64.6961881  54.3688810  74.3355881  64.5845980
  52.8284870  73.2115083  65.8051945  52.1353065  72.4771094  65.7891204
  53.0096549  73.9597279  67.0353016  52.9513801  75.0303814  66.8393316
  52.2472520  73.6820839  67.7631444  54.3619689  73.6396990  67.5989534
  54.8936961  72.5564941  67.3432068  54.9571713  74.5732244  68.3305567
  54.6085375  75.5168752  68.4204288  56.2527429  74.2492566  68.9390501
  56.8353154  73.5518802  68.3370745  57.1165522  75.5137044  69.2099857
  58.1555878  75.2039672  69.3220889  57.0062147  76.5298423  68.0620722
  55.9674623  76.8404178  67.9496567  57.6229266  77.4002358  68.2860858
  57.3498953  76.0705088  67.1352507  56.7703493  76.1511653  70.5297952
  56.9443743  75.4376741  71.3352441  57.3946223  77.0313486  70.6836138
  55.7211241  76.4464958  70.5271139  55.8936327  73.4165144  70.2002901
  54.7720910  73.5511501  70.7354006  56.7553756  72.5178358  70.6313540
  57.6535360  72.3293696  70.2095866  56.3675486  71.7455895  71.8072675
  57.2616950  71.2342914  72.1638846  56.0314974  72.4573115  72.5613369
  55.2721349  70.7199754  71.5727029  54.7315920  70.1803936  72.5287755
  54.9336323  70.4326752  70.3038137  55.3312426  71.0151911  69.5808472
  53.9768503  69.3917062  69.9107989  53.5432352  68.9500185  70.8080108
  52.8386005  69.9224843  68.9923356  53.2770265  70.2870081  68.0633547
  51.8382141  68.8211140  68.6820754  51.3989950  68.4563806  69.6105994
  51.0514134  69.2149110  68.0386709  52.3457757  68.0010673  68.1741347
  52.1186979  71.1019934  69.6545075  52.8600025  71.8897094  69.7889386
  51.3540683  71.4389760  68.9545906  51.4674623  70.7769280  71.0055469
  52.2315939  70.4402946  71.7061757  50.9819214  71.6697144  71.3996047
  50.7256608  69.9895591  70.8718278  54.8527956  68.3133053  69.2464304
  55.4796391  68.6396156  68.2380372  55.0003261  67.0703364  69.8171790
  54.4401971  66.5154956  70.9708030  53.3810021  66.7727255  70.9770376
  54.9306631  66.9769048  71.8279166  54.6749772  65.0230304  70.9067185
  53.8627164  64.5252315  70.3770698  54.7668853  64.6021726  71.9079842
  55.9979777  64.9059555  70.1402036  56.1440926  63.9772234  69.5886548
  56.8411836  65.0652914  70.8123014  55.8809993  66.0703998  69.1697220
  56.8682524  66.5260101  69.0932446  55.4247627  65.6068983  67.7834073
  54.2331703  65.6194926  67.4411297  56.4012226  65.2166988  66.9867334
  57.3511715  65.3246806  67.3123657  56.1889453  64.7263365  65.6451328
  55.3452067  65.2408364  65.1852478  57.4508681  64.9854977  64.7906695
  57.6423892  66.0568015  64.7296190  58.3081111  64.4890098  65.2453498
  57.3639355  64.4881031  63.3908344  56.6213484  65.1578374  62.4281537
  56.7629506  64.4514839  61.3150066  56.2516025  64.8115861  60.4222869
  57.5413527  63.3834743  61.5082128  57.8113028  62.6837172  60.8317759
  57.9277431  63.3953387  62.8275094  58.5722668  62.6057180  63.2137601
  55.8008099  63.2322215  65.7066175  56.3793868  62.4516300  66.4803000
  54.8021717  62.8596331  64.8922235  54.3102595  63.5881763  64.3948841
  54.3218964  61.4891834  64.7633241  54.7116429  60.8137644  65.5249053
  52.7652501  61.4333025  64.7677825  52.4037079  62.1160987  63.9989022
  52.2231548  60.0234546  64.4954673  52.5839196  59.3401406  65.2642529
  51.1334389  60.0434986  64.5102411  52.5665748  59.6840559  63.5182414
  52.1889055  62.0308537  66.0702420  52.4914984  63.0778696  66.0530370
  51.1074474  61.9637440  65.9517337  52.6035517  61.3917638  67.4338338
  53.6849048  61.4589207  67.5532713  52.1146630  61.9249595  68.2491799
  52.3008556  60.3447938  67.4519669  54.9336517  60.8761488  63.5155304
  54.7973625  61.4433912  62.4288164  55.6149930  59.7261165  63.6756079
  55.6832562  59.3408732  64.6067508  56.2614607  59.0074936  62.5792974
  56.6699332  59.7277123  61.8704008  57.4101156  58.1066532  63.0849925
  56.9269456  57.3092019  63.6495431  57.8687893  57.6898711  62.1883258
  58.4674333  58.7509733  63.9343527  57.9590895  59.2877301  64.7353393
  59.0738631  57.9519814  64.3609170  59.3568210  59.7064608  63.1736458
  59.6803654  59.2451688  62.2405714  58.8100984  60.6236095  62.9544833
  60.5406736  60.0440277  63.9649937  61.4082388  59.5819595  63.7327804
  60.5390987  60.9286392  64.9563933  59.4250448  61.5661762  65.2893204
  58.5698081  61.3786580  64.7858254  59.4368857  62.2363439  66.0448565
  61.6569529  61.1714814  65.6334720  62.5065668  60.6816951  65.3918822
  61.6515515  61.8446622  66.3863978  55.2978614  58.1206153  61.8412267
  55.4093885  58.0108316  60.6252353  54.4465817  57.3786869  62.5782844
  54.4235776  57.5274982  63.5769963  53.5508701  56.3727431  62.0058660
  53.0521915  56.7649690  61.1195378  54.3823715  55.1300024  61.5972379
  55.2312673  55.3715900  60.9576204  54.7439766  54.7266513  62.5430972
  53.6331826  54.0217776  60.9161749  53.2670064  53.9696797  59.6020414
  53.5045496  54.8388457  58.9886708  52.6485697  52.7711502  59.3313220
  52.2907562  52.4894239  58.4298237  52.6185462  52.0101265  60.4750526
  52.1024651  50.7270615  60.6999198  51.6168033  50.2101390  59.8722590
  52.2433509  50.1951699  61.9662451  51.8618535  49.1956249  62.1747384
  52.8656488  50.9096966  62.9917010  52.9630189  50.4847458  63.9907182
  53.3787667  52.1812191  62.7711913  53.8310269  52.7039509  63.6139920
  53.2597504  52.7519050  61.4889376  52.4907938  55.9375381  63.0079118
  52.7686486  55.7606199  64.1971695  51.2753072  55.7472810  62.5065451
  51.0869580  56.0968017  61.5778583  50.1824960  55.1620448  63.2543763
  50.6006170  54.7408850  64.1686511  49.0466585  56.1436383  63.6358997
  49.5363246  56.8224999  64.3340926  48.6495268  56.7123170  62.7950721
  47.9130261  55.4262352  64.3404700  48.0036650  55.0993871  65.6905233
  48.8554870  55.4682979  66.2618407  47.0344988  54.3184561  66.3124916
  47.1251703  54.0622924  67.3680771  45.9453919  53.8745360  65.5840582
  44.9741254  53.1257671  66.1842278  45.1457079  52.9652912  67.1150374
  45.8365186  54.1772115  64.2415676  44.9866230  53.8139877  63.6637731
  46.8160138  54.9483265  63.6270126  46.7343465  55.1897591  62.5672292
  49.6674888  53.9900280  62.4405746  49.4431639  54.1141011  61.2266808
  49.4986023  52.8614370  63.1060172  49.7198765  52.7999398  64.0895594
  48.9901795  51.6787734  62.4410654  48.0269415  51.9178507  61.9903839
  49.6932341  51.3867185  61.6609901  48.8134956  50.5363182  63.3894355
  48.7951598  50.7297644  64.5985014  48.6864213  49.3459010  62.8336037
  48.7018517  49.2994201  61.8247921  48.4958815  48.1066048  63.5805170
  48.4585651  48.3299843  64.6467291  47.1791919  47.3995308  63.1768452
  47.2066849  47.2886490  62.0928486  47.2008859  46.4144689  63.6429810
  45.8931259  48.1286084  63.5831901  45.0628857  47.4337149  63.4569953
  45.9742955  48.4100681  64.6330920  45.6102879  49.3730084  62.7693184
  45.6331602  49.3621607  61.5338852  45.3446272  50.4782672  63.4496062
  45.1487471  51.3370188  62.9553613  45.3391888  50.4570758  64.4593699
  49.6667196  47.1860065  63.3290571  50.2372830  47.1934234  62.2351507
  50.0299281  46.4052363  64.3491568  49.5504942  46.5777588  65.2212110
  51.0696472  45.3895532  64.3235016  51.1035871  44.9423002  63.3300671
  52.4629430  45.9732259  64.6502082  52.6869484  46.7060211  63.8750102
  52.3750770  46.4781011  65.6122273  53.5892250  44.9426578  64.7171936
  54.4564334  45.4345066  65.1578013  53.1694739  44.2367261  65.4338307
  54.0143369  44.1957096  63.4579803  53.7559593  44.6958166  62.3371453
  54.6900224  43.1494244  63.6040022  50.6259856  44.3390922  65.3317128
  50.5421239  44.6324790  66.5284811  50.2990830  43.1256110  64.8301920
  50.3295153  43.0461168  63.8237856  49.7884155  41.9864675  65.6033678
  49.5946336  41.1606368  64.9188596  50.7858113  41.5015082  66.6995690
  50.8287796  42.2932053  67.4475454  50.3452973  40.6079854  67.1419090
  52.2033488  41.1834903  66.2106701  52.5393983  42.0538776  65.6471123
  52.8200421  41.0681580  67.1020117  52.3287275  39.9312758  65.3380883
  52.1298155  39.0690496  65.9745622  51.5637841  39.9951492  64.5642141
  53.6981314  39.7765020  64.6868579  53.6877840  38.8375439  64.1333679
  53.8199995  40.6065483  63.9909623  54.8370008  39.7696943  65.6596683
  54.7244925  39.0003702  66.3043248  55.7074011  39.6642796  65.1582792
  54.8470255  40.6398423  66.1723485  48.3969278  42.3668159  66.1587370
  47.5737961  42.8825180  65.3902947  48.1444650  42.1726185  67.4703451
  48.8129187  41.6631370  68.0304323  46.8617302  42.5363624  68.0790912
  46.1217208  42.7125442  67.2984215  46.3500132  41.4011768  68.9985825
  46.3986510  40.4903276  68.4018520  47.0336499  41.3183238  69.8434946
  44.9255811  41.5963159  69.5139250  43.9752460  41.5450092  68.6874961
  44.7625576  41.8267611  70.7391321  46.9370252  43.9168400  68.7864683
  46.2106960  44.1765541  69.7456265  47.7946945  44.8162765  68.2690271
  48.3235669  44.5497336  67.4508900  47.9937101  46.1554610  68.8159856
  47.2922338  46.3275045  69.6323380  49.4194227  46.3125453  69.3543063
  50.0461032  46.0481563  68.5025615  49.5959955  47.3534173  69.6254290
  49.7597061  45.4262277  70.5209980  49.5352844  45.8462447  71.8256584
  49.0806850  46.8230774  71.9906938  49.8788583  45.0464306  72.9111630
  49.6889510  45.3908598  73.9277286  50.4669612  43.8114457  72.6972090
  50.7994098  43.0007670  73.7642694  50.5793777  43.3899167  74.6138270
  50.7202584  43.3845180  71.4030578  51.1841282  42.4141018  71.2263726
  50.3802788  44.1993643  70.3274583  50.6006950  43.8782527  69.3094189
  47.8010339  47.2531341  67.8067168  48.0200488  47.0561702  66.6148709
  47.4427377  48.4334148  68.3200424  47.2013025  48.3921998  69.2998943
  47.3908318  49.7200021  67.6526378  47.3301442  49.5636001  66.5756259
  46.1734683  50.5393854  68.0982108  46.1433536  50.5366970  69.1877911
  46.2835795  51.5632271  67.7408262  44.8731886  49.9861880  67.5797405
  44.7499238  49.6170537  66.3983322  43.8683239  49.9277795  68.4513944
  42.9716364  49.5655212  68.1601553  44.0074023  50.2460001  69.3998108
  48.6947354  50.3664740  68.1216235  49.0699536  50.2260384  69.2961034
  49.4222745  51.0023939  67.1878313  49.0229025  51.0792459  66.2633341
  50.7611482  51.5470753  67.4123424  51.0700384  51.5578558  68.4576031
  51.8099471  50.7258385  66.5890612  51.6132641  50.8772245  65.5276954
  53.2271306  51.1634108  66.9078283  53.4247214  51.0118811  67.9690058
  53.9308236  50.5740532  66.3199727  53.3455309  52.2191404  66.6638651
  51.6583409  49.2191003  66.7768019  50.6645770  48.9102057  66.4525806
  52.4111623  48.7008573  66.1828459  51.7908318  48.9684216  67.8292786
  50.8545045  53.0101926  67.0366279  50.5128062  53.3794804  65.9155900
  51.3977294  53.8241248  67.9450666  51.5664117  53.4775866  68.8786387
  51.6743371  55.2262661  67.6689906  51.4561681  55.4154697  66.6179419
  50.8325703  56.2173717  68.5409679  49.8003447  55.8897269  68.4174431
  51.1463998  56.0473868  69.5708786  50.9377887  57.7321048  68.2111347
  51.9928465  57.9989709  68.1500092  50.2586195  58.0645924  66.9049589
  49.2033539  57.7984153  66.9654822  50.3527068  59.1324069  66.7074225
  50.7286035  57.5034182  66.0973086  50.3052398  58.5835505  69.2903172
  50.8104270  58.4028961  70.2391318  50.3984348  59.6364937  69.0243723
  49.2505608  58.3254621  69.3859291  53.1771035  55.4190214  67.8591917
  53.6917850  55.2621684  68.9723409  53.8851353  55.6924096  66.7451684
  53.4009856  55.6344677  65.8606679  55.3248368  55.9509187  66.7320661
  55.7769497  55.6689886  67.6829649  56.0862721  55.2271201  65.5859397
  55.7750099  55.6535248  64.6323181  57.5974848  55.3933176  65.7491715
  57.9095856  54.9667052  66.7024269  58.1100109  54.8788947  64.9362837
  57.8516681  56.4529988  65.7253317  55.7064891  53.7424018  65.5233198
  54.6354461  53.6480420  65.3442517  56.2536508  53.2607403  64.7129398
  55.9600896  53.2618017  66.4682067  55.5132649  57.4671818  66.7017656
  54.9425854  58.1574934  65.8508227  56.2862206  57.9832904  67.6581820
  56.6977255  57.3577938  68.3360589  56.5208973  59.4095247  67.8054762
  56.4496077  59.9057578  66.8376076  55.4601763  60.0126225  68.7475819
  55.7503295  61.0467289  68.9334160  54.5107606  59.9927455  68.2124981
  55.3070116  59.2683398  70.0990792  54.9629097  58.2550682  69.8917741
  56.2854972  59.2284180  70.5776962  54.1272160  60.0832230  71.2175967
  55.1437189  61.4304796  71.8656455  55.4737189  62.0652887  71.0433217
  54.5578101  62.0226656  72.5685875  56.0133756  61.0169318  72.3763086
  57.9138878  59.7291355  68.3281963  58.6799876  58.8207117  68.6601469
  58.1962603  61.0405502  68.4683792  57.4574075  61.6766457  68.2046020
  59.4357109  61.6026978  69.0137142  60.2629072  61.3904868  68.3363577
  59.3161956  63.1478024  69.1854609  58.3129064  63.2060885  69.6074950
  60.0405649  63.4942763  69.9225803  59.3959662  64.0245770  67.9461429
  60.0113898  63.5814113  66.9362360  58.9537652  65.2228277  68.0266083
  59.6998083  61.0469893  70.3966613  58.7883752  61.0208321  71.2196902
  60.9439194  60.6374008  70.6628115  61.6303890  60.6196807  69.9221734
  61.3630864  60.2453385  72.0036240  60.5714212  59.6607467  72.4722580
  62.6302948  59.4062013  71.9676145  62.4275543  58.5678643  71.3011413
  63.4045811  60.0373830  71.5315062  63.0973525  58.8876478  73.2946274
  63.1055234  59.7078718  74.0124482  62.1817072  57.7978065  73.7883032
  62.1733731  56.9769759  73.0711795  62.5363566  57.4336157  74.7525074
  61.1719992  58.1932301  73.8988938  64.4542481  58.3389047  73.1704167
  65.1336135  59.1213525  72.8322784  64.7854135  57.9645486  74.1390695
  64.4520259  57.5230425  72.4476006  61.6512038  61.5685401  72.7420987
  62.4473141  62.3939224  72.2682173  60.9527304  61.7964387  73.8546251
  60.2552052  61.1276730  74.1484116  61.1291862  63.0079896  74.6510205
  61.7651475  63.7138457  74.1167738  59.7587660  63.6800628  74.9178524
  59.2389076  62.9236524  75.5058061  59.9262483  64.5649998  75.5318037
  58.9065899  64.0561722  73.7027521  58.8293486  63.1899986  73.0455780
  57.5480852  64.4807291  74.1227266  57.6244903  65.3472040  74.7795997
  56.9606348  64.7431342  73.2428708  57.0598661  63.6641364  74.6546279
  59.5662500  65.1412873  72.8496820  60.5311250  64.7844627  72.4894156
  58.9255285  65.3754008  71.9995243  59.7127743  66.0382439  73.4514282
  61.8195663  62.6332485  75.9545582  61.8798603  61.4497736  76.3066558
  62.3213006  63.6374341  76.6571640  62.2205922  64.5634127  76.2666249
  62.9987053  63.4986832  77.9364893  63.7090698  62.6763423  77.8514192
  63.5382410  64.4254739  78.1315782  62.0653257  63.2232827  79.0867797
  60.9607540  62.7022904  78.8860676  62.5197244  63.5114745  80.3301290
  63.8897905  63.5238564  80.7419717  64.2034481  64.5599247  80.8695710
  64.4901419  63.0565403  79.9613995  63.9202694  62.7441976  82.0372054
  64.7669419  63.0483162  82.6526374  63.9790478  61.6732557  81.8429637
  62.5863437  63.1077590  82.7008465  62.5936942  64.0592191  83.2326065
  62.2409395  62.3203655  83.3707770  61.6699906  63.1987728  81.4917335
  61.2469991  62.2068174  81.3329852  60.5449773  64.2016110  81.7002901
  60.6193639  65.3403960  81.2231766  59.5033065  63.7709352  82.4259907
  59.4654279  62.8128217  82.7432967  58.3988661  64.6466020  82.7543564
  58.1376200  65.2553425  81.8887441  57.1828259  63.8307814  83.1589450
  56.2982369  64.4634491  83.0859164  57.0841026  62.9886092  82.4740365
  57.3093418  63.3500611  84.4801338  56.5300068  62.8391206  84.7107343
  58.8100396  65.5869898  83.9081957  59.8353694  65.3555384  84.5649081
  57.9657551  66.6021770  84.1760473  57.1887855  66.7443595  83.5466018
  58.1646731  67.5597994  85.2541531  59.1802164  67.9518906  85.1990562
  57.1812772  68.7328732  85.1684133  56.2226934  68.2223006  85.0760442
  57.2038131  69.2963697  86.1011855  57.3633881  69.6874176  83.9940209
  57.2337250  69.1339572  83.0639833  56.3409171  70.8165911  84.0598559
  56.4702702  71.3708303  84.9894717  56.4857358  71.4883657  83.2137784
  55.3347617  70.3989472  84.0234495  58.7946013  70.2276891  83.9185254
  59.4907788  69.3979139  83.7964213  58.8837767  70.9041864  83.0685252
  59.0292187  70.7659969  84.8368272  58.0882425  66.8892120  86.6042756
  58.7997702  67.3078592  87.5017186  57.2994979  65.7943408  86.7261734
  56.7121848  65.5514649  85.9412059  57.1960101  64.9980148  87.9354993
  57.0819194  65.6529268  88.7993122  55.9904241  64.0719610  87.8647266
  55.1234183  64.6956219  87.6469030  56.1636023  63.3883244  87.0336127
  55.7314822  63.2654544  89.1447021  54.9374582  62.5559328  88.9118807
  56.6730134  62.7296316  89.2651683  55.3948952  63.9975353  90.4382711
  54.9969468  65.1835294  90.3917503  55.4731408  63.3486554  91.5051799
  58.5028248  64.2112909  88.1524645  58.9521312  64.0853799  89.2916458
  59.1283153  63.7164059  87.0690880  58.6904653  63.8346548  86.1666447
  60.4059114  62.9938265  87.1340902  60.3267814  62.1922897  87.8685127
  60.7846294  62.3783003  85.7717173  60.7854574  63.2320819  85.0941072
  61.7936891  61.9727956  85.8456399  59.8489787  61.3106827  85.2380314
  59.1425077  60.6669297  86.0600659  59.8615802  61.0724356  84.0023197
  61.4999191  63.9526138  87.5725500  62.3105843  63.6081727  88.4322955
  61.4928861  65.1689417  87.0058878  60.8401662  65.3416490  86.2547366
  62.4738456  66.1998484  87.3193841  63.4634296  65.7474799  87.3840788
  62.5040651  67.2910326  86.2464489  61.4722001  67.6375491  86.1891754
  63.1436094  68.1090268  86.5780640  62.9575410  66.8177925  84.8711950
  62.5434112  65.8256467  84.6916283  62.5005332  67.7478051  83.8000813
  62.9146645  68.7401159  83.9787243  62.8402858  67.3819081  82.8311704
  61.4119242  67.8025567  83.8058391  64.4404122  66.6537822  84.8121823
  64.7547415  65.9173076  85.5517103  64.7297308  66.3152382  83.8173034
  64.9208511  67.6088973  85.0243912  62.2697109  66.7603997  88.7181908
  63.2577743  67.0653377  89.3900275  60.9907947  66.8392279  89.1705740
  60.2514468  66.6486632  88.5094014  60.6190961  67.2939916  90.5228909
  61.1053407  68.2476504  90.7283176  59.0916389  67.4793851  90.6587141
  58.6566443  67.9963034  89.8033344  58.7185179  66.4557843  90.6922142
  58.5634583  68.1755987  91.9020893  58.8527570  69.5145141  92.1471375
  59.5118506  70.0518989  91.4652920  58.3081591  70.1697994  93.2530341
  58.5799117  71.2042873  93.4630007  57.4238516  69.5058204  94.0818580
  56.9862973  70.0229683  94.9357925  57.0959317  68.1950599  93.8305086
  56.3815194  67.6803707  94.4730117  57.6737376  67.5263062  92.7592505
  57.4344222  66.4785066  92.5777455  61.2044306  66.3111743  91.5427706
  61.8970584  66.7515235  92.4584569  61.0347652  64.9861239  91.2989915
  60.4146515  64.7556077  90.5358267  61.6018824  63.8824744  92.0972552
  61.2884086  63.9840914  93.1362486  61.1235281  62.5279107  91.5727322
  61.2510146  62.5722775  90.4911232  61.7334532  61.7200955  91.9771156
  59.6665779  62.2345902  91.8775307  59.1011762  62.6567616  92.9101323
  59.0417037  61.4420932  91.0130343  58.0700908  61.2078000  91.1585500
  59.5412554  61.0776954  90.2144336  63.1404399  63.9409951  92.1411891
  63.7161104  63.9070211  93.2219950  63.7830156  64.0997018  90.9797354
  63.1952064  64.0726613  90.1588527  65.2263057  64.2631928  90.7949483
  65.7558928  63.3674358  91.1193800  65.5226178  64.4965017  89.2957061
  65.1655961  63.6488189  88.7108397  65.0110335  65.4025516  88.9709678
  66.9770773  64.6758764  88.9506069  67.8283944  63.5806918  88.8662218
  67.4272680  62.5784135  89.0166735  69.1878094  63.7554872  88.5912338
  69.8514686  62.8913979  88.5595031  69.6902131  65.0208401  88.3599472
  70.7504242  65.1577003  88.1470582  68.8507058  66.1090478  88.3985409
  69.2424872  67.1058709  88.1961765  67.4967467  65.9379881  88.6967728
  66.8331690  66.8019823  88.7325301  65.7583829  65.4336014  91.6388170
  66.8353941  65.3279596  92.2244591  64.9777018  66.5320787  91.7223554
  64.1662241  66.5290719  91.1210283  65.2666021  67.7462576  92.4954629
  66.3439552  67.8600907  92.6156770  64.7262164  68.9713852  91.7812796
  63.6548077  68.8761410  91.6048959  64.9197377  69.8744093  92.3602416
  65.4759014  69.2432063  90.1665912  64.7837871  70.3408571  89.8749770
  64.7799640  67.6836333  93.9417352  64.6612350  68.7277107  94.5986582
  64.5241908  66.4627416  94.4403747  64.5619694  65.6996642  93.7797802
  64.0593686  66.1820017  95.7978401  63.7592950  65.1363663  95.8664082
  65.1558520  66.4451768  96.8332342  65.3091875  67.5215564  96.9106585
  64.8250169  66.0556485  97.7959989  66.3736004  65.8200191  96.4640829
  67.0411134  66.0015587  97.1297177  62.7475271  66.9073859  96.1488769
  62.6466190  67.4546732  97.2534280  61.7321135  66.8749459  95.2152619
  61.9786804  66.4962899  94.3119770  60.3790906  67.4291636  95.3944730
  59.8153247  67.4183532  94.4616544  59.6552582  66.5267279  96.4195318
  59.7437786  65.5287345  95.9902622  60.2812025  66.5958335  97.3092049
  58.1921593  66.7910061  96.8018793  58.1581123  67.4623754  97.6599032
  57.6758244  67.2519327  95.9598300  57.5022197  65.4639304  97.1618772
  58.0748224  64.9340399  97.9230875  56.4934175  65.6497130  97.5305267
  57.4175604  64.6227216  95.9693213  58.1668190  63.9666790  95.8010390
  56.4204156  64.6868479  95.0904987  55.3631659  65.4630568  95.3254237
  55.3182477  66.0061596  96.1757894  54.6115452  65.5047530  94.6520535
  56.4616324  63.9655079  93.9806934  57.2535117  63.3646935  93.8016702
  55.7010000  64.0194986  93.3184079  60.4478686  68.9386989  95.8049735
  59.7031168  69.4243893  96.6504820  61.3683646  69.6639451  95.1921929
  61.9875977  69.1892483  94.5508564  61.6123287  71.0680045  95.4729488
  60.6789620  71.5755466  95.7165201  62.5788256  71.1865576  96.6950351
  61.9275279  71.1938270  97.5690246  63.1607275  70.2649475  96.6838487
  63.5386267  72.4026524  96.7560622  64.2441027  72.2015802  97.5622721
  64.0712394  72.4261809  95.8053403  62.8596168  73.7611746  96.9965386
  62.0683322  73.8891375  96.2578958  62.4257906  73.7600476  97.9964851
  63.7920523  74.8928807  96.8888569  64.7772573  74.6729321  96.8557945
  63.4247628  76.1727780  96.8480123  62.1380417  76.5050483  96.8825568
  61.4344727  75.7827073  96.9401250  61.8699356  77.4783044  96.8510730
  64.3398985  77.1282267  96.7564564  65.3190080  76.8834101  96.7176045
  64.0535302  78.0962993  96.7260039  62.1247931  71.7824320  94.2031604
  63.1154195  71.3418686  93.6046829  61.3886669  72.8414999  93.7699234
  60.5121701  72.9987630  94.2464956  61.7481734  73.7362625  92.6541905
  62.7308999  73.4333004  92.2928572  60.7606417  73.7238675  91.4672185
  59.7702767  73.8077769  91.9146955  60.9512398  74.5959682  90.8417485
  60.7174409  72.5317392  90.5439260  61.7950385  71.6529956  90.4574280
  62.6708016  71.8138941  91.0861176  61.7589478  70.5712469  89.5727206
  62.6050621  69.8864350  89.5159401  60.6510905  70.3695495  88.7700068
  60.6283946  69.5287081  88.0767750  59.5786744  71.2281167  88.8453666
  58.7013347  71.0605120  88.2206396  59.6141191  72.3113934  89.7199129
  58.7717164  73.0014847  89.7671529  61.8598050  75.1780137  93.1577657
  61.0147718  75.6294920  93.9594316  62.8842976  75.9123684  92.6405191
  63.5517769  75.4444755  92.0441577  63.1218384  77.3099700  92.9803515
  62.8847083  77.5520807  94.0163298  64.5687583  77.7604491  92.6873252
  64.6390015  78.8254098  92.9087409  65.5749100  77.0188685  93.4948003
  65.5055804  75.9538109  93.2735644  66.5745977  77.3763743  93.2479944
  65.3826061  77.1824376  94.5551610  64.8809644  77.6990153  91.2851558
  65.7863948  77.9861534  91.1460596  62.1134732  78.1468714  92.2549621
  61.5541954  77.6970996  91.2498613  61.8751004  79.3699504  92.7539112
  62.2665317  79.6317816  93.6474017  60.9511967  80.2864699  92.1125766
  59.9731067  79.8163527  92.0104542  60.7981619  81.5529796  92.9468467
  60.5789225  81.2403336  93.9677707  61.7572816  82.0703403  92.9238870
  59.7027410  82.4925392  92.4573675  59.5958816  83.2717515  93.2120264
  60.0596814  82.9347779  91.5272490  58.0993713  81.7224221  92.1700103
  57.6937574  81.2006046  93.9035554  57.6580745  82.0783628  94.5488199
  56.7248121  80.7015147  93.9160072  58.4597431  80.5149211  94.2657780
  61.3708533  80.5608374  90.6508353  60.4948216  80.6345588  89.7797299
  62.7062494  80.5733468  90.3629103  63.3468262  80.5462020  91.1433100
  63.2606119  80.7457254  89.0113079  62.8334667  81.6414492  88.5603921
  64.7988270  80.8920308  89.0385464  65.0478285  81.7075650  89.7175173
  65.2191864  79.9613960  89.4197510  65.3790899  81.1840203  87.6601785
  64.9293106  80.4807823  86.9592820  65.0896669  82.1998200  87.3909439
  66.8546277  81.0602046  87.6051177  67.3085698  81.8405537  88.2159293
  67.1524598  80.0828863  87.9849129  67.3211829  81.2078606  86.1664138
  67.1782712  80.2526408  85.6612089  66.7070750  81.9686150  85.6845182
  68.7551779  81.6027365  86.0847219  69.3244332  80.8977242  86.5308224
  69.0255959  81.6901581  85.1155307  68.8877400  82.4880491  86.5524270
  62.8195955  79.6170734  88.0501263  62.4229377  79.9108554  86.9234921
  62.8874897  78.3424257  88.4903816  63.3856287  78.1694468  89.3517962
  62.4432573  77.1892148  87.7003972  62.8567627  77.3060403  86.6986666
  62.9491937  75.8580295  88.2899089  62.7271962  75.8612226  89.3570580
  62.3007624  74.6322460  87.6372163  62.5227270  74.6281174  86.5700639
  62.6964927  73.7249473  88.0936216  61.2212545  74.6706739  87.7831156
  64.3478020  75.7805399  88.0252729  64.6957651  74.9595717  88.3809881
  60.9251983  77.2541043  87.4772825  60.4789709  77.2371973  86.3419181
  60.1542368  77.4084192  88.5301103  60.5766622  77.3361855  89.4446804
  58.6897913  77.5096104  88.4446610  58.2418014  76.6587458  87.9314031
  58.0301099  77.6441422  89.8626933  58.5041113  78.4791606  90.3786064
  56.5172706  77.8871917  89.7793132  56.0424858  77.0523101  89.2638979
  56.1066067  77.9733612  90.7853104  56.3265795  78.8087952  89.2294173
  58.3318791  76.4244921  90.7104774  59.4103954  76.3234138  90.8316711
  57.8657873  76.5373907  91.6893094  57.9367798  75.5343228  90.2209920
  58.2678090  78.6181896  87.4609613  57.3867360  78.3828442  86.6090470
  58.9138733  79.7990561  87.5478581  59.5465573  79.9835633  88.3132125
  58.5783587  80.9056978  86.6377898  57.4951658  80.9638434  86.5309655
  59.0896501  82.2458930  87.1590420  60.1211311  81.9553737  87.3584029
  59.0759300  83.0651079  86.4401548  58.4171477  82.7063996  88.4810583
  58.3983052  81.8586769  89.1659760  59.1662666  83.8727634  89.1331758
  59.1851241  84.7210745  88.4489891  58.6598665  84.1608367  90.0544106
  60.1875787  83.5674462  89.3607793  56.9217447  82.9152811  88.3139792
  56.4562751  81.9801186  88.0026777  56.4910894  83.2368595  89.2622537
  56.7433729  83.6789530  87.5569537  58.9951840  80.6673176  85.1815942
  58.2036904  81.0009952  84.2955885  60.1916770  80.0671048  84.9196015
  60.8130590  79.8592194  85.6882154  60.6307351  79.7224248  83.5501298
  60.5692252  80.6122052  82.9235467  62.0772004  79.1988000  83.5198571
  62.1840773  78.5030059  84.3520513  62.2046263  78.6622376  82.5796638
  63.1291445  80.2807613  83.6292564  62.8361370  81.0761341  82.9439611
  63.0938233  80.6527730  84.6532006  64.8158390  79.7570274  83.2452452
  65.0994712  78.5383572  84.5218429  64.3655212  77.7377332  84.4300947
  66.1023901  78.1252549  84.4141362  65.0036999  79.0079123  85.5008460
  59.7216594  78.6498855  82.9455176  59.4704321  78.6516117  81.7456415
  59.2496050  77.7277668  83.7766269  59.5868338  77.7331644  84.7286494
  58.3627438  76.6556207  83.3673922  58.7271842  76.2330344  82.4310679
  58.2840563  75.5213475  84.4267927  58.2073351  76.0815744  85.3586505
  57.3685716  74.9509124  84.2699751  59.4793612  74.5593986  84.5049243
  60.3830669  75.1472490  84.6656997  59.3201901  73.5505855  85.6399761
  58.4168812  72.9620073  85.4796405  60.1856088  72.8882714  85.6621401
  59.2442901  74.0802915  86.5895819  59.7078663  73.8557900  83.1951497
  59.9084731  74.5919967  82.4167821  60.5609130  73.1835303  83.2872337
  58.8200253  73.2812765  82.9310070  57.0034929  77.1996226  83.0404977
  56.4407338  76.8310726  81.9994121  56.4776709  78.0904758  83.9136258
  57.0191010  78.2666994  84.7478309  55.1588089  78.7196983  83.7951856
  54.4335301  77.9102434  83.8779655  54.9219683  79.7038414  84.9336244
  55.6348916  80.5249793  84.8589727  53.9074541  80.0972054  84.8693917
  55.0538557  79.1945120  85.8882388  54.9367193  79.3831541  82.4441739
  53.8570930  79.2530735  81.8728517  55.9738045  80.0203366  81.9110220
  56.8182301  80.0356023  82.4649278  55.9684858  80.7328402  80.6395192
  55.1868025  81.4924161  80.6288039  57.3289898  81.4250191  80.4513190
  57.6570616  81.9273132  81.3613569  57.9943428  80.5882245  80.2387628
  57.3629506  82.4057444  79.2916611  56.6421406  83.4456870  79.3602284
  58.1875012  82.1990260  78.3684754  55.6689778  79.8011830  79.4849121
  54.7754232  80.0751544  78.6901078  56.4122939  78.6700588  79.4216723
  57.1877102  78.6114670  80.0661845  56.2514420  77.6050859  78.4313893
  56.1559434  78.0384031  77.4357913  57.4559274  76.6790820  78.4443697
  57.6480426  76.3992845  79.4801807  57.1965845  75.7894910  77.8703757
  58.7025865  77.3180842  77.8526988  58.4196955  77.8452182  76.9415439
  59.1401381  78.0235894  78.5590366  59.7371389  76.2794652  77.5064375
  59.5279964  75.4329464  76.6227372  60.8666902  76.3119716  78.2197377
  61.5976063  75.6403413  78.0332550  60.9843362  77.0080227  78.9420767
  54.9453391  76.8150701  78.5812431  54.3591887  76.4935745  77.5763753
  54.4849479  76.5361522  79.8028887  55.0991244  76.7632293  80.5718637
  53.2345433  75.8306030  80.0973215  53.1764203  74.9194980  79.5018313
  53.1664997  75.4505968  81.5835110  53.3726855  76.3552896  82.1554530
  52.1474500  75.1193815  81.7833460  54.1528034  74.3484863  81.9964353
  53.9230852  73.4826038  81.3754862  55.1477715  74.7185939  81.7491283
  54.1161725  73.8550463  83.7487752  54.9723096  75.0102672  84.3461578
  54.4907606  75.9655604  84.1372934  55.0615680  74.8770050  85.4242927
  55.9647911  74.9980944  83.8956763  51.9656456  76.5973675  79.6625653
  51.0072140  75.9693972  79.2168128  51.9541612  77.9395134  79.7735984
  52.7336638  78.3715809  80.2487750  50.8397054  78.8011691  79.3301044
  49.8774215  78.3802379  79.6215247  50.9506566  80.2779147  79.8669350
  51.9552263  80.6454881  79.6575794  49.9200997  81.2006335  79.2030022
  48.9152004  80.8339384  79.4123171  50.0275751  82.2105196  79.5988301
  50.0843794  81.2138679  78.1255347  50.8206393  80.3233233  81.4088344
  49.7560180  80.2114276  81.6141672  51.3543819  79.4448718  81.7715206
  51.3334821  81.5345940  82.1002455  50.7998549  82.4134590  81.7383915
  51.1790824  81.4331588  83.1744759  52.3982191  81.6469044  81.8957427
  50.8102015  78.7300203  77.8015629  49.7449084  78.4621565  77.2323278
  51.9817780  78.9183035  77.1536785  52.7786507  79.2143989  77.6990413
  52.1231546  78.8516001  75.6971167  51.4145243  79.5399928  75.2366194
  53.5260639  79.2277646  75.2500599  54.2587646  78.5963562  75.7526255
  53.6189343  79.1031456  74.1711969  53.7592246  80.5863101  75.5910882
  54.6431697  80.8385365  75.3142801  51.6997951  77.5143892  75.1120673
  50.9824183  77.5107240  74.1050762  52.1132001  76.3812703  75.7454154
  52.7646205  76.4865081  76.5100564  51.7508972  75.0251309  75.3227138
  52.0306260  74.8906191  74.2778418  52.4631039  73.9519376  76.1644570
  52.2267163  74.1991371  77.1994027  51.9792965  73.0127632  75.8961624
  54.0026121  73.8052276  76.0057350  54.4285062  74.7170400  76.4244393
  54.2816446  72.9552360  76.6284365  54.5318357  73.5991761  74.6071889
  55.4251719  72.9748267  74.6225921  53.7753515  73.1345823  73.9747463
  54.8769939  74.8894844  74.0463829  54.1624063  75.3478843  73.4992691
  56.0485004  75.4932669  74.1899417  57.0470129  74.8792446  74.8172043
  56.9115995  73.9486629  75.1856890  57.9364022  75.3461782  74.9223673
  56.2318891  76.7142413  73.7223904  55.4752946  77.1907865  73.2527422
  57.1279299  77.1661095  73.8365164  50.2197429  74.8176537  75.3454667
  49.6695273  74.3715882  74.3407407  49.5274842  75.1816687  76.4558252
  50.0794771  75.4411864  77.2608430  48.0423340  75.1108737  76.6080060
  47.6637282  74.1392734  76.2905951  47.5873239  75.3925702  78.0788513
  47.9412506  76.3835600  78.3630618  46.0622383  75.3337365  78.2245444
  45.7075945  74.3428310  77.9409342  45.7876314  75.5347392  79.2600586
  45.6056844  76.0817503  77.5763677  48.2479252  74.4161746  79.0723742
  47.7687476  73.4508976  78.9088815  49.2965170  74.3546451  78.7812233
  48.1503932  74.7918662  80.5648384  47.1020278  74.8531342  80.8568594
  48.6503191  74.0315091  81.1648637  48.6297955  75.7568834  80.7292008
  47.3728442  76.0626801  75.5816294  46.4474143  75.6676088  74.8630272
  47.9012574  77.2995669  75.4725442  48.6451946  77.5558757  76.1057603
  47.4195561  78.2976864  74.5384258  46.4062758  78.6007193  74.8021176
  48.3147433  79.5147670  74.5831407  48.3946126  79.8668096  75.6116281
  49.3047849  79.2487525  74.2127977  47.7358739  80.6023880  73.7259367
  47.6651692  80.1450969  72.7390292  46.7344966  80.8187014  74.0981615
  48.5196179  81.8773034  73.6307426  49.5315204  82.0181430  74.3563979
  48.0807842  82.7578573  72.8547434  47.3254093  77.7785882  73.1007501
  46.3049233  78.0035936  72.4226838  48.3838892  77.0741858  72.6382832
  49.2175592  76.9991013  73.2034875  48.4162703  76.5370332  71.2867860
  48.1828504  77.3286995  70.5748317  49.7873071  75.9747131  70.9549321
  50.4173539  76.8633643  70.9169926  50.1749802  75.2869197  71.7064305
  49.7899147  75.2995069  69.6074000  49.7897856  76.0466523  68.4334831
  49.8532119  77.1327024  68.5010986  49.7103568  75.4291982  67.1856692
  49.7329129  76.0261133  66.2739206  49.5920952  74.0458174  67.1082759
  49.5205494  73.3924793  65.9073148  49.5607285  73.9864464  65.1541957
  49.5534790  73.2903983  68.2655990  49.4450004  72.2071354  68.2119864
  49.6538413  73.9192416  69.5029690  49.6265468  73.3282780  70.4184563
  47.2978521  75.5250863  71.0463898  46.5957308  75.6173076  70.0350349
  47.1329601  74.5647657  71.9789824  47.8442175  74.4995333  72.6930951
  46.0805064  73.5550777  71.9569520  46.1293107  72.9622300  71.0435797
  46.1830976  72.5920168  73.1835093  46.1493071  73.1877264  74.0956975
  45.0440419  71.5846613  73.1939078  45.0774542  70.9882262  72.2821789
  45.1451076  70.9300748  74.0595883  44.0919160  72.1125765  73.2474193
  47.5102731  71.8508486  73.1834166  48.3283190  72.5694351  73.2337781
  47.5565289  71.1873247  74.0469535  47.5989852  71.2635727  72.2694483
  44.7129320  74.2637468  71.8464701  43.8966546  73.8831110  71.0140552
  44.5154674  75.3474906  72.6274426  45.2158584  75.5320727  73.3313468
  43.3185180  76.1894136  72.6020281  42.4283990  75.5665471  72.6904843
  43.3355911  77.1870013  73.7649229  44.2841829  77.7239071  73.7671421
  42.5176011  77.8961618  73.6381009  43.1760348  76.5839586  75.1442660
  43.2487329  77.3664167  76.2891850  43.0589087  76.5456915  77.3086195
  43.0625346  76.9770104  78.3096439  42.8923742  75.2953884  76.9009989
  42.7441738  74.4742454  77.4700866  42.9573583  75.3019271  75.5213253
  42.8371679  74.3719402  74.9656457  43.1106491  76.9112863  71.2366551
  41.9733099  77.0280888  70.7719674  44.1925884  77.3397015  70.5628712
  45.1140662  77.3156171  70.9756643  44.0323842  77.9873354  69.2487495
  43.1944426  78.6825150  69.1969951  45.3033214  78.7163075  68.7918859
  45.1051648  79.1414668  67.8079784  45.7331829  79.8253030  69.7475731
  45.9319774  79.4008102  70.7316393  46.6372447  80.3019763  69.3686880
  44.9378508  80.5665055  69.8260992  46.3526388  77.7697062  68.5447343
  47.1426017  78.2348368  68.2597564  43.5503857  77.0059643  68.2062304
  42.9223360  77.4118615  67.2219829  43.8545044  75.7073060  68.4231530
  44.4869412  75.5068975  69.1847037  43.4472230  74.6067282  67.5533102
  43.2762517  74.9870760  66.5462335  44.5344106  73.5037865  67.4882892
  44.7274448  73.1841688  68.5123408  44.1136150  72.6728554  66.9220873
  45.8414759  73.9500672  66.8402756  46.1803062  74.8708167  67.3151601
  46.5930695  73.1727913  66.9783024  45.6361896  74.1892694  65.3829647
  45.5929995  73.2149450  64.8962146  44.6774839  74.6950298  65.2681201
  46.7104630  75.0117677  64.7541673  46.8281690  75.9402976  65.3128068
  47.6480490  74.4561542  64.7722034  46.3464061  75.3233043  63.3467628
  45.4778645  75.8385221  63.3298537  47.0763399  75.8799669  62.9255463
  46.2377082  74.4630516  62.8288350  42.0591922  74.0464575  67.9457542
  41.6995410  72.9620297  67.4934752  41.2723647  74.7967560  68.7714325
  41.7339618  75.5944824  69.1845429  39.8928412  74.4911049  69.1937514
  39.4826008  75.3313388  69.7539380  39.0013812  74.2358330  67.9682812
  39.1710706  73.2578800  67.5178229  37.9843875  74.2844940  68.3574548
  39.1612148  75.2945877  66.8996477  39.0759318  76.4992735  67.1554132
  39.5043023  74.8698160  65.6970501  39.6248166  75.5338494  64.9456276
  39.6445665  73.8829175  65.5343907  39.7433061  73.3513957  70.1949363
  38.6344218  72.8800875  70.3969076  40.8194197  72.9589593  70.8742059
  41.7129698  73.3901810  70.6852208  40.7647764  71.8915781  71.8540557
  39.7468525  71.5092724  71.9300322  41.6944666  70.7365495  71.4377107
  42.6448144  71.1391997  71.0872666  41.8712704  70.0755810  72.2862159
  41.1527815  69.8719054  70.3211759  41.1979672  70.3041147  68.9994897
  41.6505364  71.2683981  68.7683221  40.6717781  69.5174264  67.9753766
  40.6626482  69.8903965  66.9512132  40.1621542  68.2655194  68.2589421
  39.8071278  67.6285480  67.4488040  40.1018703  67.8215543  69.5603343
  39.6730017  66.8454685  69.7871127  40.5925629  68.6262212  70.5925572
  40.5393745  68.2808974  71.6250408  41.1415426  72.3523154  73.2361503
  41.9621415  73.2501735  73.3851273  40.5736629  71.6940579  74.2551418
  39.7852242  71.1163883  74.0006586  40.9246490  71.8067696  75.6786563
  41.7058808  72.5500929  75.8375481  39.7090523  72.1215801  76.6100896
  39.9921851  71.9332643  77.6456925  39.2904222  73.6004052  76.4517508
  39.0066872  73.7893826  75.4164332  38.4430177  73.8105407  77.1043222
  40.1258107  74.2460428  76.7226334  38.5306282  71.1350825  76.3522400
  38.1716785  71.3981845  75.3572359  39.0031655  70.1533773  76.3196389
  37.4153817  71.1029612  77.2742310  36.9420206  72.0842634  77.3070210
  36.6895403  70.3609390  76.9415799  37.7735083  70.8394582  78.2694251
  41.6301106  70.4584001  75.9895402  41.2224029  69.4527218  75.4295344
  42.7023278  70.4412333  76.7980212  43.0316415  71.3332563  77.1385309
  43.4962283  69.2382196  77.1084098  43.5939512  68.6115364  76.2219463
  44.9110039  69.6568521  77.5766309  45.3564519  70.3050440  76.8219637
  44.8696111  70.1845548  78.5294774  45.8467730  68.5145224  77.7628270
  45.8589604  67.7797050  78.9395041  46.7906251  66.8519040  78.7684012
  46.9692815  66.1622354  79.5933485  47.3582448  66.9423321  77.5651308
  48.0905189  66.3617295  77.1820182  46.7610490  67.9928022  76.9100776
  47.0662714  68.2463662  75.8948703  42.7976816  68.2933393  78.1125859
  42.7326664  67.0854849  77.8935546  42.3075135  68.8495410  79.2131126
  42.5902768  69.8110898  79.3378845  41.5489111  68.2003867  80.2924448
  41.2486437  68.9557780  81.0186147  40.2973520  67.4978735  79.7737156
  40.6088350  66.7641820  79.0302277  39.8278522  66.9861931  80.6138664
  39.3139077  68.4508275  79.1551285  39.3201634  69.3882178  79.7113309
  39.5973175  68.6412584  78.1199875  37.9485365  67.8600536  79.1946333
  37.6368097  67.7182175  80.2294318  37.2443485  68.5223898  78.6911163
  37.9363556  66.5677910  78.5221951  38.8189161  66.2174523  78.1780307
  36.8494850  65.8386446  78.3297010  35.6670175  66.2687996  78.7602869
  35.5989848  67.1568015  79.2366524  34.8424618  65.7055009  78.6089523
  36.9323186  64.6697865  77.7148528  37.8288433  64.3347889  77.3921763
  36.0986340  64.1180613  77.5710889  42.3588864  67.2541433  81.1755040
  41.7786148  66.5592041  82.0030748  43.6748401  67.2593737  81.0561079
  44.1169997  67.7743990  80.3082155  44.5020320  66.4337212  81.8992245
  44.0592030  66.3641148  82.8927821  44.6299702  65.0059558  81.3133347
  43.6638084  64.7286540  80.8917493  45.3551764  65.1284086  80.5088589
  45.1016336  63.9147941  82.2576210  44.8136871  64.0130381  83.4883102
  45.7052744  62.9364045  81.7666337  45.8447885  67.1411913  82.1169679
  46.9229913  66.5926835  81.8451758  45.7586407  68.3908847  82.6102404
  44.8402247  68.8007082  82.7032790  46.9274049  69.2225057  82.9256221
  47.7790655  69.0668798  82.2633881  46.5494625  70.7397562  82.9403383
  45.7393133  70.8875249  83.6544273  47.7524243  71.6162905  83.3401139
  48.5628656  71.4694016  82.6261746  47.4545567  72.6648017  83.3401848
  48.0918555  71.3354775  84.3371242  45.9005301  71.2024501  81.6005461
  45.0397164  70.5539111  81.4377650  45.5590101  72.2246988  81.7632459
  46.8013863  71.1592667  80.3849296  47.1429554  70.1371812  80.2213091
  46.2485977  71.5015095  79.5100617  47.6622509  71.8079676  80.5467912
  47.5111802  68.7200930  84.2698828  46.8546430  68.8126299  85.3121486
  48.7139552  68.1171188  84.2141397  49.1289978  67.9857899  83.3027717
  49.4103295  67.5667332  85.3807573  49.2671174  68.2306586  86.2332786
  48.8665281  66.1519417  85.7535054  49.4284890  65.8320327  86.6309776
  47.8196773  66.2904229  86.0237395  48.9743976  65.0844809  84.6619132
  48.5376290  65.4687044  83.7401181  50.0250973  64.8476953  84.4943875
  48.2350395  63.8295844  85.0867877  48.5908947  63.5560828  86.0800968
  47.1733460  64.0714970  85.1356196  48.4437959  62.6722154  84.1418767
  48.3288476  63.0359914  83.1208211  49.4562807  62.2929043  84.2800679
  47.4665342  61.5785785  84.3912883  46.5282941  61.9297389  84.2628686
  47.6347161  60.8225110  83.7430779  47.5731717  61.2410641  85.3372331
  50.9105491  67.5446704  85.1101225  51.2689425  67.5003060  83.9378734
  51.8091029  67.5935793  86.1343441  51.5906378  67.3576400  87.4849494
  50.7838765  66.6290606  87.5650025  51.2759464  68.2985008  87.9364462
  52.8922271  66.8484168  88.0616591  52.9571506  65.7639513  87.9732362
  52.9890980  67.1334672  89.1092581  53.9556493  67.5446221  87.2045432
  54.9175061  67.0402366  87.1122083  54.1113300  68.5576509  87.5755360
  53.2631928  67.5883639  85.8519532  53.4859017  68.5583639  85.4074323
  53.7766007  66.4679535  84.9236398  54.7178862  66.6895051  84.1466961
  53.1305591  65.2862647  84.9830588  52.4303025  65.2027191  85.7060804
  53.4394820  64.1003289  84.1719559  54.5074297  63.8881997  84.2228308
  52.6716755  62.8767122  84.6871922  51.8247665  63.2639397  85.2536718
  52.3065407  62.2907434  83.8437367  53.5187797  61.9969548  85.5838919
  54.7187141  61.7443557  85.2270206  52.9889892  61.5212937  86.6190627
  53.2201456  64.2501875  82.6678549  53.8403490  63.5127242  81.9019399
  52.3545430  65.1906763  82.2368283  51.7969644  65.6784211  82.9233489
  52.0669508  65.4214600  80.8143869  52.3854362  64.5581980  80.2300540
  50.5651598  65.6351810  80.5938215  50.2576402  66.3485550  81.3584316
  50.3500149  66.0455506  79.6072064  49.7680520  64.3618756  80.7720868
  50.2363151  63.2569025  80.4944666  48.5264283  64.4837911  81.1560467
  47.9583284  63.6590847  81.2872776  48.1396431  65.4022587  81.3201059
  52.9220930  66.5357955  80.1966610  52.8102721  66.8177364  79.0024046
  53.8065955  67.1338161  80.9864710  53.7901372  66.9079213  81.9707474
  54.7665684  68.1285858  80.5212461  54.5570654  68.3660385  79.4782581
  54.6934742  69.4201389  81.3415039  54.6964814  69.1215901  82.3898162
  55.5515933  70.0628299  81.1448319  53.4626186  70.2690886  81.1379237
  53.3996511  71.1866585  80.0968672  54.2468369  71.2839798  79.4179675
  52.2627262  71.9817871  79.9153394  52.2117203  72.6666328  79.0688848
  51.2038738  71.9012283  80.8065811  50.3253281  72.5329391  80.6754371
  51.2657352  71.0160460  81.8636007  50.4397801  70.9540763  82.5721613
  52.3920417  70.1959411  82.0259078  52.4372215  69.4899627  82.8551564
  56.1518446  67.4694915  80.6206380  56.5430305  67.0292970  81.7052312
  56.8087052  67.2753497  79.4547181  56.3623607  67.6801661  78.6441630
  58.0862842  66.5749253  79.2690449  58.4630222  66.2441209  80.2368962
  57.9179424  65.3371545  78.3543251  57.1739885  65.6263834  77.6120457
  58.8901076  65.2335804  77.8723839  57.5217331  64.0186631  78.9767306
  58.2156636  63.8081098  79.7905050  56.0966861  64.0358488  79.5164292
  55.4020947  64.2458975  78.7030897  55.8612503  63.0652719  79.9530655
  56.0059823  64.8086879  80.2797069  57.5832292  62.9269982  77.9650488
  58.5992781  62.8456087  77.5788885  57.2949446  61.9839343  78.4294017
  56.9005273  63.1515200  77.1455324  59.0648089  67.4910021  78.6105113
  58.6571857  68.2580546  77.7540489  60.3513154  67.4310851  79.0041977
  60.6200874  66.8348582  79.7738564  61.3818205  68.2337232  78.3600408
  60.9486019  69.1824217  78.0431937  62.5721292  68.5258888  79.3161797
  62.8996602  67.5649005  79.7128209  63.3664531  68.9564888  78.7064805
  62.2451509  69.4831207  80.4881892  61.4373856  69.0097830  81.0463715
  63.1418705  69.5179227  81.1068853  61.7530015  71.1864308  80.0476476
  63.1825859  71.8894984  79.7890817  63.7018755  71.3721679  78.9823559
  63.0302511  72.9326991  79.5122658  63.7824854  71.8391247  80.6977535
  61.8267457  67.4255351  77.1526550  61.6196318  66.2268213  77.1306273
  62.3652469  68.0713451  76.1346438  62.4654797  69.0763051  76.1450489
  62.8307878  67.3439312  74.9640753  62.1346202  66.5305074  74.7596456
  62.8505499  68.0266777  74.1146248  64.2221671  66.7652888  75.1662108
  64.8022086  66.8649268  76.2608277  64.7670060  66.1397662  74.1016799
  64.1872427  66.0249046  73.2826680  66.0999996  65.5279314  74.1013769
  66.6284214  65.6997388  75.0391145  66.0033273  63.9987596  73.8337760
  65.3520141  63.8510625  72.9723371  67.3679309  63.3580158  73.5578536
  68.0196885  63.5049100  74.4190938  67.2390824  62.2906677  73.3782239
  67.8169306  63.8221150  72.6797247  65.3175853  63.2877143  74.9907927
  65.9756611  63.3561940  75.8570187  64.3876313  63.8168376  75.1989122
  65.0117623  61.8128770  74.6964375  65.9413454  61.2829665  74.4886638
  64.5231099  61.3630841  75.5607317  64.3533170  61.7436101  73.8305553
  67.0035801  66.2372253  73.1055227  66.5503827  66.6743903  72.0561063
  68.2658538  66.3634947  73.4712740  68.5184102  66.0154050  74.3851385
  69.3035439  66.9643943  72.6526380  70.2592410  66.8395740  73.1617178
  69.3316482  66.4438003  71.6954070  69.0685614  68.4249964  72.4070555
  69.1517764  69.2265352  73.3331358  68.7661077  68.7654235  71.1561642
  68.7904293  68.0272393  70.4672579  68.4729866  70.1368234  70.7010825
  69.3102853  70.7939078  70.9361788  68.2441058  70.1540002  69.1603150
  67.9547097  71.1740500  68.9076345  69.2094231  69.9279693  68.7073550
  67.1825085  69.1710972  68.6249377  67.5362662  68.1553383  68.8015451
  66.2563250  69.3337067  69.1761586  66.9292024  69.3673101  67.1422690
  66.5593798  70.3786806  66.9735684  67.8633668  69.2271601  66.5983993
  65.9401348  68.4140665  66.6303598  66.0873025  67.4380487  66.8444396
  64.8588744  68.7555582  65.9283054  64.6213178  70.0306503  65.6370785
  65.2635065  70.7449120  65.9493666  63.7997290  70.2793208  65.1048619
  64.0214353  67.8254534  65.4915254  64.2033438  66.8523299  65.6916254
  63.2053210  68.0941914  64.9606430  67.2550950  70.7356140  71.4411391
  67.2096627  71.9379428  71.7065151  66.2944507  69.8708065  71.7900395
  66.4361562  68.9103111  71.5117098  65.0542721  70.2177411  72.4538802
  64.8166882  71.2715152  72.3082322  63.9253763  69.3695220  71.8402905
  64.1938339  68.3164973  71.7556217  63.0182685  69.4658454  72.4369288
  63.5835241  69.8337343  70.4673254  62.4851275  69.2935956  69.7943959
  62.4719620  69.8725511  68.6138290  61.6972780  69.5712884  67.9087018
  63.4598464  70.7623119  68.5014711  63.6545639  71.3608388  67.7115657
  64.1900022  70.7316168  69.6673271  65.0675186  71.3686986  69.7777486
  65.0925886  70.0561467  73.9577862  64.0260049  70.0173479  74.5589807
  66.2907814  70.0019567  74.5838105  67.1300268  70.0118749  74.0219669
  66.4208901  69.7609520  76.0196487  65.7713633  68.9338870  76.3063152
  67.8514966  69.4095212  76.3989144  67.9034986  69.1071335  77.4448383
  68.2236907  68.6017522  75.7687710  69.0246665  70.7722021  76.2121468
  70.0927022  70.0931621  76.6209289  65.8559478  70.8907202  76.9168231
  65.5611120  70.6079322  78.0799245  65.6814167  72.1360039  76.3997086
  66.0218148  72.3332387  75.4694791  65.1070110  73.2423040  77.1814677
  64.9536523  72.8991154  78.2046011  65.9989377  74.4829190  77.2110334
  65.8571941  74.9596778  76.2411318  65.6562599  75.1539356  77.9986938
  67.4539684  74.2231440  77.4060936  68.2097658  74.3788109  76.4613693
  67.8719129  73.7772434  78.5938247  68.8539493  73.5956486  78.7445818
  67.2039859  73.6237192  79.3357173  63.7139258  73.6134408  76.6926537
  63.1642405  74.6457676  77.1066373  63.1511995  72.7729606  75.8032123
  63.7161149  72.0064702  75.4663705  61.8165124  72.9446487  75.2450666
  61.4563451  73.9408884  75.5017478  61.7874910  72.7895103  73.7029784
  62.5884077  73.4112973  73.3029627  61.9960140  71.7427174  73.4819747
  60.4512567  73.1943089  73.0542118  59.7677135  72.3522297  73.1627109
  60.0649021  74.0490859  73.6093590  60.5771731  73.5651214  71.5616806
  59.8873871  74.3888060  71.3777301  61.6001330  73.9060725  71.4022915
  60.2678271  72.4187262  70.6019577  61.1336741  71.7566285  70.6079579
  59.4042119  71.8903038  71.0057370  59.9770189  72.8491996  69.1929206
  60.7773023  73.3384923  68.8184358  59.7837065  72.0362228  68.6256472
  59.1744774  73.4623816  69.1870885  60.9297742  71.9466564  75.9351454
  61.2702748  70.7594947  76.0374998  59.8289254  72.4612330  76.4816898
  59.7146795  73.4619234  76.4064175  58.8208349  71.7063036  77.2006829
  59.2410019  70.7890982  77.6133487  58.3053471  72.5802476  78.3646740
  59.2149289  72.9490974  78.8387099  57.7751635  73.4119065  77.9006171
  57.4262343  71.9421322  79.3991021  56.6334022  71.3980436  78.8857936
  58.1833016  71.0091235  80.2672421  58.9760720  71.5526172  80.7812736
  57.5098067  70.5685863  81.0023831  58.6215098  70.2191260  79.6573422
  56.7983141  72.9862252  80.2436026  56.1962180  73.6460130  79.6188950
  56.1616359  72.5145220  80.9920932  57.5747348  73.5669335  80.7416467
  57.6953770  71.3199015  76.2274306  57.2781539  72.1350107  75.4160060
  57.2294197  70.0660614  76.3067695  57.6457494  69.4832033  77.0188407
  56.1927447  69.4795068  75.4436242  55.8740921  70.2074287  74.6975080
  56.7551557  68.2190607  74.7045981  57.1607183  67.4916490  75.4077982
  55.9229882  67.7725812  74.1603064  57.8460307  68.4913055  73.6835680
  59.1548912  68.7192367  74.0840835  59.4033499  68.6737753  75.1444143
  60.1443101  69.0030375  73.1499736  61.1580417  69.2303921  73.4797596
  59.8423184  68.9967146  71.8056738  60.6207461  69.2126768  71.0738879
  58.5654007  68.7194642  71.3873456  58.3296280  68.7032293  70.3232743
  57.5704148  68.4586817  72.3244836  56.5583535  68.2248383  71.9941065
  54.9905150  69.0814373  76.2497839  55.1701797  68.4067692  77.2540098
  53.7758852  69.4783831  75.8334172  53.7038356  70.1186642  75.0556330
  52.5311500  69.0280932  76.4868048  52.7733833  68.7245052  77.5052627
  51.4244211  70.1149360  76.5431678  51.8343772  70.8498255  77.2359684
  51.3577605  70.5528756  75.5472435  50.0173994  69.6935009  77.0143838
  49.6585018  68.9109416  76.3458822  50.0151994  69.1788942  78.4423898
  50.3735623  69.9611080  79.1115807  49.0014515  68.8955659  78.7254816
  50.6690037  68.3099455  78.5170121  49.0457837  70.8508057  76.8958025
  48.9878789  71.1721753  75.8558660  48.0590153  70.5334485  77.2329578
  49.3907524  71.6802220  77.5131876  52.0819397  67.8423838  75.6582969
  51.9584888  67.9681644  74.4431668  51.9160322  66.6768040  76.2973207
  52.1730064  66.6252204  77.2727194  51.5559180  65.4361965  75.6077303
  51.1750420  65.6373330  74.6064428  52.7899835  64.4540619  75.5139429
  52.4462399  63.4829748  75.1576696  53.8240529  65.0018417  74.5610863
  54.1686356  65.9727754  74.9169670  54.6685518  64.3148694  74.5063920
  53.3829413  65.1141054  73.5706739  53.4649914  64.1465834  76.8548494
  54.5112607  63.9372553  76.6321320  53.3959065  65.0569202  77.4503440
  52.9008836  63.0431473  77.5958521  52.9700355  62.1323031  77.0011416
  53.4514848  62.9110080  78.5272364  51.8546799  63.2519672  77.8193517
  50.2860078  64.8133187  76.2285969  49.6667406  65.4551844  77.0634337
  49.8715741  63.6019619  75.7626821  50.3663346  63.3063736  74.9332613
  48.7274869  62.7997739  76.2137564  48.6445007  61.9081753  75.5922547
  48.8911144  62.3604413  77.6904662  49.9434719  62.0874714  77.7687631
  48.6945514  63.2309286  78.3163373  48.0234770  61.1880655  78.1597225
  46.9714085  60.9060080  77.4964786  48.3656536  60.5770497  79.2156424
  47.3757128  63.4898011  75.9269457  46.6924929  64.0031043  76.8259365
  46.9503453  63.3976523  74.6684208  47.5546329  62.9375422  74.0026622
  45.7436045  64.0377755  74.1752393  45.4334752  64.8329950  74.8531367
  46.0163135  64.6507188  72.7902890  46.4319195  63.9434476  72.0725575
  45.1008074  65.0823772  72.3857899  47.0090257  65.7783876  72.9086546
  46.5925868  67.0623487  73.2795731  45.5325594  67.2426467  73.4582756
  47.5153465  68.1082219  73.4221694  47.1757123  69.1037878  73.7078228
  48.8546038  67.8747499  73.2001473  49.5757135  68.6845374  73.3112547
  49.2863505  66.6046826  72.8339862  50.3460774  66.4243458  72.6535484
  48.3634585  65.5575249  72.6966179  48.7074235  64.5605240  72.4213414
  44.5071950  63.1382833  74.1708473  43.5117081  63.4902336  73.5433484
  44.5576058  62.0421532  74.9226901  45.4030621  61.8655815  75.4462599
  43.4602452  61.0813940  75.0330052  43.2438320  60.7371883  74.0216759
  43.8337242  60.2478429  75.6278207  42.1806400  61.6027386  75.6618074
  41.0946530  61.0712676  75.4035209  42.2871221  62.6350052  76.5078295
  43.2001562  62.9761764  76.7725375  41.1106920  63.2384867  77.1381913
  40.2449996  62.6068128  76.9390330  41.2672822  63.3937888  78.6678627
  42.1659786  64.0076444  78.7280736  40.4187344  63.9532130  79.0617045
  41.4648263  62.1160317  79.4939512  42.2998968  61.5552971  79.0740288
  41.7581783  62.4459345  80.9636324  40.9232904  63.0063052  81.3844003
  41.8935151  61.5209532  81.5241627  42.6663953  63.0452110  81.0277401
  40.2785560  61.1654374  79.3589161  40.1569213  60.8815755  78.3135803
  40.4572711  60.2730576  79.9587665  39.3730119  61.6617797  79.7078188
  40.7800298  64.5993619  76.4995834  39.8386839  65.2605847  76.9475189
  41.5352160  65.0155443  75.4587534  42.3090326  64.4486311  75.1426576
  41.3112233  66.2999320  74.8117027  41.3435181  67.0872060  75.5648666
  42.3928235  66.5751158  73.7724150  42.3670371  65.8000472  73.0064492
  42.2156658  67.5468194  73.3114296  43.3699320  66.5754453  74.2554865
  39.9311367  66.3396794  74.1800143  39.4844000  65.3139525  73.6626791
  39.2324041  67.4887546  74.2577825  39.6212506  68.2522489  74.7925481
  37.8927788  67.6551498  73.6792751  37.6974094  66.8585531  72.9613868
  36.8078877  67.5947052  74.7984014  36.9258540  66.6236792  75.2793294
  37.0620540  68.3835136  75.5064133  35.3488796  67.7665455  74.3417754
  35.2956968  68.7218289  73.8195628  35.1440028  66.9577375  73.6403788
  34.3083111  67.7415655  75.4686326  33.3222529  67.7374303  75.0041209
  34.4507830  66.8156251  76.0258001  34.4159642  68.9197017  76.4126886
  35.4693430  69.0717344  76.6480178  34.0273459  69.8009859  75.9023816
  33.6541724  68.6995331  77.6705992  34.0144028  67.8832088  78.1438310
  33.7527235  69.5067941  78.2695292  32.6779928  68.5590600  77.4527923
  37.8354152  68.9697917  72.8770812  38.5350100  69.9388406  73.1986731
  37.0265545  68.9866041  71.8091118  36.5633495  68.1382106  71.5162486
  36.8222911  70.1929847  71.0188736  37.7761242  70.7009675  70.8765533
  36.2313461  69.8549086  69.6322322  36.4688608  68.8148868  69.4085342
  35.1495319  69.9761773  69.6876587  36.7862074  70.7495615  68.5327004
  36.5982495  71.7785554  68.8392034  37.8611169  70.5727128  68.4953342
  36.1861655  70.5136253  67.1563873  36.3626876  69.4704518  66.8942273
  35.1134825  70.6928877  67.2292950  36.7764966  71.4103788  66.0856215
  36.9084024  72.4050498  66.5114515  37.7479170  71.0053616  65.8020679
  35.8981035  71.4986107  64.8720035  34.9980575  71.8742894  65.1344581
  36.3290287  72.1038296  64.1878153  35.7760984  70.5770897  64.4770188
  35.8776402  71.0873728  71.8556858  34.8967619  70.5753477  72.4175676
  36.2173561  72.3873853  72.0241659  37.1087627  72.7265621  71.6918216
  35.3653144  73.3075643  72.8107450  34.5652029  72.7283682  73.2716709
  36.1446673  74.0560711  73.9290507  35.3742144  74.5476648  74.5230517
  36.6879462  73.3475539  74.5543118  37.1023720  75.0904932  73.3933663
  36.6780112  76.3881169  73.1270497  35.6412642  76.6534139  73.3341069
  37.5522731  77.3435740  72.6042822  37.2107352  78.3653458  72.4386433
  38.8575062  76.9936829  72.3070806  39.6843652  77.9276263  71.7451197
  39.2541655  78.7745683  71.6064935  39.3066631  75.7104072  72.5683686
  40.3455527  75.4412384  72.3776934  38.4196343  74.7571063  73.0796749
  38.7539615  73.7320546  73.2396573  34.6275838  74.2817256  71.8898931
  33.7335571  74.9652777  72.3389652  35.0129108  74.3538523  70.6220438
  35.8241833  73.8291452  70.3277332  34.3828234  75.2525790  69.6587941
  33.3045277  75.2520870  69.8180968  34.9070202  76.7098666  69.8093755
  34.2466372  77.3578418  69.2330755  34.8441524  76.9742908  70.8649452
  36.3387499  76.8874811  69.3268890  36.9854802  76.3782781  70.0414189
  36.4149603  76.3982786  68.3558200  36.7671312  78.3266053  69.1989717
  36.1233067  78.8469354  68.4898556  36.7124432  78.8208160  70.1689534
  38.1559162  78.3937539  68.7127409  38.4489247  77.6285452  68.1222317
  39.0409015  79.3545970  68.9979871  38.6983616  80.3740011  69.7820514
  37.7644860  80.4219553  70.1637277  39.3738592  81.0949810  69.9917908
  40.2689261  79.3112095  68.4864599  40.5332596  78.5482887  67.8796818
  40.9308073  80.0414044  68.7074293  34.5375898  74.7516592  68.2129463
  35.5285914  74.0831745  67.9062183  33.5651053  75.1041499  67.3227755
  32.7642319  75.6124504  67.6696641  33.6077813  74.7613439  65.8922819
  33.8418296  73.7020574  65.7862975  32.2659098  75.0401938  65.1952126
  31.5618008  74.3544033  65.6664038  31.9440919  76.0669354  65.3693820
  32.3116191  74.7708645  63.7011740  32.2826724  73.5828046  63.3107973
  32.4511497  75.7439155  62.9250446  34.7078393  75.5783278  65.2388725
  34.8507480  76.7542913  65.5654657  35.4992233  74.9604220  64.3385322
  35.3854632  73.9684057  64.1866721  36.6229116  75.6371061  63.6900785
  37.2648852  76.0677702  64.4585169  37.4633742  74.6829454  62.8258066
  37.8407054  73.9111145  63.4966252  36.8463942  74.2228571  62.0539553
  38.6481667  75.3687322  62.1574173  39.5289451  75.9617247  62.8095179
  38.6726675  75.3511313  60.8319966  39.4358567  75.7913486  60.3381842
  37.9280310  74.8975849  60.3221801  36.2239644  76.8901895  62.8975905
  36.8716776  77.9275044  63.0728231  35.1730570  76.8192513  62.0609244
  34.7114267  75.9403667  61.8750247  34.8065709  77.9808741  61.2492727
  35.6983737  78.5835656  61.0773719  34.2075298  77.5840817  59.8812820
  33.8026660  78.5024373  59.4560674  35.0476620  77.2435876  59.2760205
  33.1193819  76.5057224  59.8965636  33.5605124  75.5871697  60.2835592
  32.3257059  76.8371884  60.5661238  32.5405933  76.2465209  58.5139244
  33.3595019  76.0659347  57.8175938  31.9017664  75.3645121  58.5593128
  31.7461651  77.3774410  58.0220772  32.2416380  78.1103442  57.5347796
  30.4316371  77.4993062  58.1842129  29.7418628  76.5576250  58.8166003
  30.2181499  75.7431882  59.1770766  28.7439826  76.6599805  58.9343208
  29.7941679  78.5612552  57.7063609  30.3104480  79.2788759  57.2179191
  28.7958444  78.6466651  57.8334597  33.9226162  79.0097870  61.9990215
  34.3266483  80.1685803  62.1049753  32.7520661  78.5970493  62.5257940
  32.4792204  77.6402265  62.3521717  31.7973573  79.4816412  63.2224175
  31.6376161  80.4206949  62.6925496  30.4377937  78.7804680  63.4021195
  29.6988003  79.5437872  63.6457032  30.0002145  78.0341441  62.1736415
  30.7385334  77.2702909  61.9296886  29.0361948  77.5606780  62.3596385
  29.9080295  78.7292828  61.3391448  30.4932611  77.9005496  64.5189924
  29.6439253  77.4662273  64.6266644  32.3069897  80.0474910  64.5788034
  31.8099179  81.0769789  65.0400920  33.2725004  79.3566127  65.2058579
  33.4971298  78.4827929  64.7518975  33.8724253  79.6339400  66.5278778
  34.5357108  78.8069136  66.7812132  34.6847661  80.9537715  66.5777622
  33.9988611  81.7545323  66.3013283  35.0012194  81.0880498  67.6121348
  35.9155557  80.9925645  65.6563171  35.8602959  80.1416328  64.9773749
  35.8822733  81.9180920  65.0815188  37.2101984  80.9307318  66.4378374
  37.2080074  81.7532566  67.1530626  37.2307663  79.9826615  66.9752750
  38.4232023  81.0295553  65.6089234  38.8154920  81.9530491  65.4933062
  39.0397524  79.9975725  65.0262894  38.5423666  78.7684820  65.1298503
  37.6922592  78.6134206  65.6527014  39.0170337  77.9957907  64.6851718
  40.1459484  80.1908508  64.3196389  40.5229504  81.1227766  64.2222537
  40.6059241  79.4051659  63.8823515  32.8078183  79.5098480  67.6578929
  33.0472395  79.9723950  68.7783521  31.6585088  78.8256829  67.3669911
  31.5350597  78.5108572  66.4152851  30.5851057  78.5640479  68.3302443
  30.2593655  79.5019987  68.7799561  29.3802008  77.9062969  67.6389210
  29.1494324  78.5230140  66.7702985  29.7145685  76.9232421  67.3074070
  28.1229397  77.7531987  68.5057897  27.4006464  77.1468419  67.9592326
  28.4028483  77.2418072  69.4267848  27.4720324  79.0774482  68.8646073
  27.6057944  79.5840745  69.9907367  26.7518519  79.6706228  67.9144784
  26.2992847  80.5532170  68.1050352  26.6614937  79.2352101  67.0076418
  31.1085250  77.6623251  69.4689020  31.5815503  76.5517268  69.2064699
  31.0383262  78.1508226  70.7217964  30.6940075  79.0906443  70.8569971
  31.4863334  77.4070739  71.8868395  32.4472547  76.9375357  71.6764515
  31.6487179  78.3309869  73.0823632  32.0495058  79.3088081  72.8152788
  30.6551742  78.4517075  73.5141010  32.5211201  77.7937224  74.1640809
  33.8280295  78.2220286  74.3165358  34.3207667  77.5125699  75.3203262
  35.3491154  77.7137317  75.6205460  33.4224831  76.6454414  75.7959024
  33.5406005  75.9781901  76.5448510  32.2696421  76.8189985  75.0700948
  31.3901603  76.2142531  75.2912191  30.5113837  76.2834182  72.2171122
  29.3204023  76.3685353  71.9326453  31.0255745  75.2268765  72.8046873
  32.0288234  75.1864262  72.9140251  30.2388962  74.0626147  73.1999450
  29.5510515  73.7332573  72.4211687  31.1203423  72.8570734  73.6597838
  30.4859591  72.1038043  74.1269498  31.8302902  72.2476581  72.4566794
  32.4652641  73.0002542  71.9892311  32.4434006  71.4076146  72.7830583
  31.0906678  71.8986466  71.7360902  32.0942358  73.2496548  74.8107101
  32.9310327  73.7603622  74.3342128  31.5484912  73.9546226  75.4378327
  32.6194267  72.1085723  75.6694878  33.1657208  71.4033847  75.0430909
  33.2861250  72.5061305  76.4347068  31.7831784  71.5976435  76.1467092
  29.2206262  74.4509843  74.2678708  29.5216367  75.3536673  75.0536945
  28.0248820  73.7978458  74.3126030  27.5613999  72.7139564  73.5586739
  28.3861712  72.0106130  73.4439543  27.2668324  73.0905695  72.5791375
  26.3976514  72.1245242  74.3235719  26.7419456  71.3735780  75.0346558
  25.6749053  71.6750015  73.6426396  25.7936208  73.3379777  75.0394789
  25.2552604  73.1299910  75.9641456  25.1446794  73.8874956  74.3575662
  27.0406737  74.1545242  75.3399397  26.7875698  75.2015874  75.1735205
  27.4990809  73.9658233  76.7839285  28.3948819  73.1701694  77.0803040
  26.8451081  74.7103637  77.6773524  26.1735972  75.3761811  77.3225855
  27.0619665  74.6515719  79.0985639  28.1149307  74.4534008  79.2987983
  26.6767025  75.9747614  79.7685447  27.2221756  76.7780178  79.2732292
  25.6080991  76.1007208  79.5944151  26.9543056  76.0195543  81.2580590
  28.2449268  76.1961213  81.7430436  29.0623235  76.2850913  81.0274694
  28.5056453  76.2601305  83.1092712  29.5243963  76.4157976  83.4642585
  27.4719420  76.1186895  84.0158384  27.7484062  76.1623809  85.3623615
  28.6807327  76.2936597  85.5497994  26.1757647  75.9429700  83.5607605
  25.3560665  75.8280743  84.2699814  25.9203701  75.9132076  82.1860584
  24.8979819  75.8052627  81.8238841  26.2316632  73.4988716  79.6338509
  24.9960753  73.4325738  79.4705774  26.9469362  72.5451720  80.2016674
  27.9519812  72.6415997  80.2278516  26.3511216  71.3701830  80.8160255
  25.2649522  71.4538867  80.7795713  26.7660880  70.0954919  80.0902354
  27.8446876  70.1577350  79.9458468  26.5370493  69.2677023  80.7613581
  26.0968740  69.8657994  78.7664982  25.0265198  70.0514098  78.8558930
  26.5197788  70.5348586  78.0170896  26.3261602  68.4302356  78.3472841
  25.9211770  68.2593159  77.3498504  27.3920249  68.2021479  78.3500862
  25.6524911  67.5336076  79.2866697  25.3739020  67.9337158  80.1712040
  25.4016650  66.2514388  79.0657186  25.7687013  65.6822582  77.9223539
  26.2415164  66.2302823  77.2179282  25.5731549  64.7042590  77.7630464
  24.7663652  65.5290994  79.9792726  24.4738468  65.9593557  80.8449588
  24.5781424  64.5522362  79.8048907  26.8301052  71.2668464  82.2417233
  27.8669668  71.8211960  82.6290999  26.0570502  70.5533452  83.0154797
  25.1604558  70.2862884  82.6348245  26.3608238  70.1826790  84.3840692
  27.4054499  70.4079576  84.5987901  25.4783437  70.9558817  85.3749655
  24.4492633  70.9285034  85.0167152  25.5373543  70.4658151  86.3467950
  25.9296541  72.4010028  85.5084719  26.9808846  72.3082926  85.7812722
  25.8497633  72.8567653  84.5215589  25.2202096  73.2699225  86.5238206
  24.0098562  73.0453009  86.7610727  25.8648620  74.2107610  87.0440516
  26.1554722  68.6701501  84.4024261  25.9765682  68.0780902  83.3235969
  26.2307488  68.0260496  85.5685586  26.4798942  68.5199181  86.4136147
  26.0288505  66.5682717  85.6450223  26.1746586  66.2279068  86.6702008
  24.6151017  66.2034258  85.2070659  24.4612473  66.5961169  84.2019680
  24.5507529  65.1155438  85.1853431  23.5505484  66.7529453  86.1313200
  23.5904165  66.5791299  87.3663891  22.6051498  67.4069235  85.6496852
  27.0633145  65.7588806  84.8057350  26.7193413  64.7612174  84.1622805
  28.3289068  66.2176569  84.8127578  28.5236138  67.0624352  85.3309646
  29.4402109  65.5527030  84.1237552  29.0358805  64.8053475  83.4410577
  30.3043402  66.5435243  83.3148555  30.7254600  67.2307305  84.0486844
  31.1036073  65.9450057  82.8777655  29.6032612  67.3418024  82.2118944
  28.6117790  67.5911506  82.5899016  30.1798938  68.2565643  82.0747538
  29.4691948  66.6125084  80.8617694  29.0222834  65.6409645  81.0726525
  28.7842041  67.2024760  80.2528150  30.7565712  66.4192461  80.1198189
  31.2741638  67.3763040  80.0547141  31.3761486  65.7081236  80.6661959
  30.4986093  65.9010619  78.7491863  29.9248671  66.5600598  78.2425885
  31.3764752  65.7773568  78.2652972  30.0193820  65.0140291  78.8092957
  30.3173408  64.9026945  85.1815260  30.5790352  65.5233639  86.2168783
  30.7712115  63.6572620  84.9332999  30.4688083  63.1685851  84.1027298
  31.6892901  62.9712431  85.8480270  31.3910547  63.1790899  86.8756235
  31.6808042  61.4467938  85.6320192  31.6397525  61.2984821  84.5529374
  32.6033988  61.0172706  86.0224408  30.5036725  60.7263230  86.2660671
  29.7246291  61.2930171  87.0542912  30.3751292  59.4343419  85.9710103
  29.6109091  58.9034174  86.3636764  31.0424306  58.9911471  85.3558778
  33.0508884  63.5561336  85.5523931  33.2804946  63.9661264  84.4097139
  33.9325216  63.6535456  86.5701238  33.6248562  63.4210400  87.5036025
  35.2719060  64.2355534  86.4025221  35.1865205  65.1635426  85.8371508
  35.9501510  64.5442582  87.7617767  35.3168955  65.3281897  88.1771538
  35.8382931  63.6358169  88.3536568  37.4309408  65.0040293  87.7959117
  38.0405278  64.2101463  87.3643399  37.6557098  66.2953513  87.0196099
  37.0467623  67.0898678  87.4509165  38.7079716  66.5743592  87.0743862
  37.3734488  66.1471023  85.9772801  37.8884364  65.2067373  89.2013871
  37.7980218  64.2704357  89.7520812  38.9296986  65.5290316  89.2021854
  37.2723165  65.9690561  89.6782154  36.1934871  63.4083677  85.4909728
  36.2939974  62.1782525  85.6094097  36.8638750  64.1557321  84.5808208
  36.5930568  65.1276347  84.6273182  37.8352872  63.7547631  83.5644664
  37.9146073  62.6710186  83.4789956  37.3861521  64.3317248  82.1870326
  37.1958330  65.3963684  82.3227267  38.4172495  64.1382731  81.0906205
  38.6077591  63.0737795  80.9540222  38.0418401  64.5621176  80.1592114
  39.3438443  64.6397667  81.3699534  36.1627638  63.7091753  81.7865962
  35.8857652  64.0639730  80.9386630  39.2208300  64.2731086  84.0095845
  39.3879524  65.4779282  84.2551282  40.1876291  63.3598994  84.0933358
  39.9687817  62.3979438  83.8768950  41.5538873  63.6868940  84.4850221
  42.2364187  63.1027412  83.8677574  41.7179278  64.7488407  84.3021034
  41.8309047  63.3901447  85.9403376  40.9918885  62.7873592  86.6164459
  43.0253561  63.7777670  86.4393585  43.7162187  64.1880472  85.8274120
  43.3953202  63.5307327  87.8451631  42.9803911  62.5944995  88.2185269
  44.9095118  63.5210409  88.0748559  45.0837174  63.3226602  89.1323992
  45.6230856  62.4840286  87.2451650  45.4497144  62.6820384  86.1874154
  46.6925474  62.5258115  87.4515744  45.2436306  61.4934234  87.4957961
  45.4316479  64.8242909  87.8348260  46.3808508  64.8201430  87.9783424
  42.7314108  64.5383072  88.7683413  42.6855242  65.7342212  88.4571545
  42.2556425  64.0530147  89.9159391  42.3200977  63.0555585  90.0609425
  41.5659832  64.8560819  90.9226859  40.7664397  65.3707612  90.3898307
  40.9427708  63.9494414  91.9790965  41.7313807  63.4339954  92.5272843
  40.3524418  64.5497491  92.6713700  40.2984874  63.2157399  91.4946586
  42.4362605  65.9228512  91.5939494  41.8930117  66.9365408  92.0366074
  43.7665957  65.6928375  91.6921731  44.1320751  64.8042039  91.3809587
  44.6799645  66.6245086  92.3586861  44.2919428  66.8625420  93.3490792
  46.0865540  66.0220794  92.5136641  45.9583005  64.9744059  92.7857496
  46.5721734  66.0872376  91.5399966  46.9559619  66.7200740  93.5656025
  46.8910445  67.7968026  93.4089430  46.5682614  66.4732154  94.5539603
  48.4033563  66.2820054  93.4672396  48.6901765  66.2817688  92.4156536
  49.0163285  67.0013200  94.0103336  48.6458838  64.9444495  94.0211689
  47.8795929  64.4982652  94.5047154  49.8012857  64.2910988  93.9227759
  50.8256260  64.8279293  93.2707290  50.7282384  65.7390082  92.8458162
  51.6975628  64.3227719  93.2025977  49.9412922  63.0983219  94.4779312
  49.1679176  62.6834112  94.9777720  50.8208973  62.6082058  94.3993201
  44.7406518  68.0012031  91.6958028  44.7598786  69.0113780  92.4046956
  44.7501010  68.0450762  90.3611958  44.7778271  67.2024595  89.8050235
  44.8717874  69.3183026  89.6841892  45.0249535  70.1113032  90.4161656
  46.0739161  69.3050585  88.7109784  45.7723092  68.7755567  87.8072304
  46.2878769  70.3457343  88.4674326  47.3181452  68.6545220  89.2865201
  48.1914425  69.3684364  90.1083467  47.9902427  70.4228302  90.2977450
  49.3066742  68.7559071  90.6842244  49.9516158  69.3122212  91.3644204
  49.5769966  67.4270428  90.4054996  50.6973447  66.8102175  90.9108268
  51.2348504  67.3933926  91.4517465  48.7256499  66.7034086  89.5866221
  48.9283112  65.6522302  89.3815542  47.6121252  67.3188322  89.0262269
  46.9502591  66.7543458  88.3694252  43.5783933  69.7686896  88.9895596
  43.6076035  70.7826876  88.2987400  42.4458361  69.0514956  89.1965087
  42.5134047  68.2303606  89.7806928  41.1405925  69.3774785  88.5991684
  41.2429597  69.4181551  87.5147489  40.1280784  68.3069017  88.9499481
  40.0079067  68.2603973  90.0323048  39.1701640  68.5468801  88.4885256
  40.4765161  67.3419377  88.5817974  40.6258285  70.7306004  89.0733436
  40.8835071  71.1077078  90.2130579  39.9054716  71.4751992  88.2095726
  39.7773775  71.1941708  87.2479519  39.3648227  72.7672837  88.6325189
  40.1252831  73.3204065  89.1837487  38.9374917  73.5976725  87.4234872
  38.6606845  74.5901341  87.7791513  39.7928197  73.6781684  86.7526412
  37.8442293  73.0235390  86.7277982  37.6135925  73.5792413  85.9797330
  38.1951158  72.5547568  89.6243375  37.6936855  71.4322869  89.7425158
  37.7822088  73.6064880  90.3493390  38.3129729  74.4656533  90.3343844
  36.6533073  73.5035244  91.2774882  36.7393116  72.6382922  91.9348129
  36.5220975  74.7891563  92.1313545  36.7387770  75.6435293  91.4901078
  35.1090834  74.9487891  92.7430812  34.8918574  74.0949585  93.3848653
  35.0690331  75.8649805  93.3322245  34.3699907  74.9989896  91.9435056
  37.5977930  74.8070962  93.2236037  37.2169356  74.2236813  94.0618611
  38.4822953  74.3191715  92.8141105  37.9515361  76.1500213  93.6851140
  37.0675754  76.6384340  94.0951950  38.7179533  76.0793866  94.4569396
  38.3329331  76.7339252  92.8474432  35.3659774  73.1423289  90.5002872
  34.6265042  72.2459693  90.9256457  35.1359782  73.8098804  89.3426964
  35.7436842  74.5791958  89.0999075  33.9552900  73.5746907  88.5190082
  33.0774520  73.5448499  89.1644609  33.7505637  74.6596168  87.4682387
  34.6955213  74.8371739  86.9547917  33.0090280  74.3065189  86.7516170
  33.2694948  75.9629844  88.0572841  32.5404910  75.9911488  89.0656417
  33.6732524  77.0752284  87.4456035  33.3812159  77.9758231  87.7973758
  34.2695873  77.0128903  86.6328308  33.9350822  72.1902593  87.9168727
  32.8608929  71.5832098  87.8859135  35.1059659  71.6453784  87.5134672
  35.9501712  72.1997199  87.5245287  35.1814050  70.2719474  86.9979381
  34.4874906  70.1578352  86.1651354  36.5819895  69.9488716  86.5100454
  37.2870430  70.0498734  87.3351503  36.6090778  68.9266168  86.1327372
  36.8570275  70.6377967  85.7113993  34.7432154  69.2796212  88.0993769
  34.0792895  68.2993269  87.7736292  35.0553055  69.5760605  89.3935614
  35.6503039  70.3756917  89.5568591  34.6437994  68.7667034  90.5484726
  34.8861417  67.7226922  90.3499529  35.3472661  69.1965385  91.8503311
  35.4718550  70.2764573  91.9300326  34.7285715  68.8409073  92.6742506
  36.7061387  68.5926130  92.0425630  36.8696066  67.2377203  92.2675500
  38.1716446  67.0524064  92.4158258  38.5175297  66.0330202  92.5870402
  38.8425351  68.1982461  92.3235529  39.8399632  68.3401686  92.3949330
  37.9184049  69.1921447  92.1071118  38.2430077  70.2293133  92.0233529
  33.1230221  68.8038149  90.7511301  32.5261806  67.7658075  91.0389457
  32.4961058  69.9823701  90.5512361  33.0826729  70.7808038  90.3549150
  31.0422809  70.1955757  90.6701247  30.6684992  69.7133563  91.5733693
  30.7294728  71.7044293  90.7511811  31.0603468  72.0762424  89.7814509
  29.6482357  71.8156790  90.8327280  31.4052158  72.5004027  91.8561483
  32.4841251  72.3699088  91.7723213  31.0686221  73.9578856  91.7503028
  29.9898463  74.0892265  91.8345109  31.5644149  74.5049789  92.5521627
  31.4065977  74.3403560  90.7871884  31.0298658  71.9782376  93.2242718
  31.3371222  70.9362022  93.3129006  31.5309205  72.5706132  93.9898674
  29.9505303  72.0508638  93.3579108  30.2293774  69.5512516  89.5142116
  28.9948641  69.6019369  89.5128356  30.9382991  68.9550106  88.5578123
  31.9450093  68.9491573  88.6390505  30.3370722  68.3121449  87.4028313
  31.0322344  67.5454651  87.0607046  29.4136116  67.8406372  87.7389867
  30.0231888  69.2449692  86.2478516  29.4525721  68.7997668  85.2476034
  30.3812023  70.5503389  86.3798557  30.7094196  70.8260697  87.2943749
  30.2089575  71.5965293  85.3536728  29.2356815  71.6045944  84.8629916
  30.4860382  73.0046927  85.9884137  31.4286843  72.9408307  86.5319580
  30.5701010  74.1347338  84.9476195  29.6275886  74.1995171  84.4039522
  30.7633236  75.0810626  85.4528202  31.3790270  73.9253195  84.2477028
  29.4542152  73.3235012  87.1113992  28.4891415  73.3911362  86.6092447
  29.4611621  72.4538285  87.7684537  29.6949155  74.6260324  87.9627603
  29.6876390  75.4962317  87.3064066  28.9043090  74.7258918  88.7064463
  30.6596613  74.5589248  88.4656141  31.1043471  71.2387426  84.1262287
  32.1673511  70.6199112  84.2983223  30.6491248  71.5495053  82.8923011
  29.7163714  71.9145661  82.7626822  31.4371330  71.2061258  81.6960927
  31.8199594  70.1920615  81.8110562  30.6097004  71.2773321  80.3898726
  29.6864528  70.7220907  80.5554627  30.3746557  72.3258503  80.2069422
  31.3380771  70.7021746  79.1814971  31.8836047  71.5328987  78.7338390
  32.0458832  69.9887834  79.6036141  30.5016501  70.0153428  78.1182163
  29.4724778  70.5806606  77.6786685  30.8983365  68.9014182  77.7067094
  32.7189335  72.0291869  81.6149514  32.7114980  73.2458954  81.8653116
  33.8240247  71.3385965  81.2976451  33.7433905  70.3348488  81.2196198
  35.1422178  71.9367725  81.1623624  35.2933928  72.6578014  81.9657071
  36.2493769  70.8843428  81.2355430  36.0428661  70.1367515  80.4696710
  37.1920277  71.3832916  81.0106886  36.3469456  70.2038343  82.5962378
  36.0980320  70.8605907  83.4297927  35.6102353  69.4030012  82.5327846
  37.7004524  69.5936884  82.8516482  38.7250952  70.2858560  82.9080053
  37.7201601  68.3065486  83.1397588  38.6007585  67.8459722  83.3200845
  36.8545600  67.7875862  83.1786930  35.2899304  72.7685373  79.8993590
  34.7305894  72.4417561  78.8535117  36.0303993  73.8684941  80.0192620
  36.3270671  74.1227783  80.9506196  36.3578792  74.7627685  78.9249781
  36.4019841  74.1968772  77.9944293  35.3123132  75.8587156  78.7785476
  35.5673610  76.4592026  77.9053551  34.3423074  75.3863922  78.6233079
  35.2540751  76.6896240  79.9207725  34.5854260  77.3660642  79.7906305
  37.7737738  75.3146865  79.1687093  38.4685110  74.8404832  80.0804788
  38.2062589  76.2902713  78.3600642  37.6095298  76.5760460  77.5969478
  39.5467875  76.8646024  78.4434720  40.2815286  76.0971792  78.1999225
  39.7199795  78.0221726  77.4834251  38.8925195  78.7140821  77.6404935
  40.6594889  78.5194392  77.7245638  39.7401999  77.5814453  76.0380595
  40.6303722  76.9863742  75.8341370  38.8509621  76.9951237  75.8065748
  39.7592796  78.8061232  75.1950381  40.4997440  79.5060442  75.5822359
  40.0128337  78.5406232  74.1687246  38.4574119  79.4546462  75.2005523
  37.7798792  79.1552528  75.8871470  38.1136145  80.4096488  74.3467424
  38.9736781  80.8301182  73.4278278  39.8955390  80.4204546  73.3783484
  38.7024686  81.5578739  72.7821369  36.9084496  80.9593700  74.4105725
  36.2515728  80.6487293  75.1120818  36.6530261  81.6861433  73.7573818
  39.9681239  77.2642103  79.8220039  41.0739225  76.9265293  80.2132619
  39.0858706  77.9240640  80.5729315  38.2283142  78.1935926  80.1124420
  39.3008392  78.3644073  81.9598847  40.1322283  79.0686126  81.9912892
  38.0478944  79.0565751  82.5280432  38.2551924  79.2903404  83.5723040
  37.9106178  79.9823759  81.9693412  36.7928362  78.2252763  82.4389406
  36.5477820  78.0740358  81.3876673  36.9786146  77.2603440  82.9106333
  35.6513602  78.9018713  83.1233454  35.9722720  79.2585563  84.1020641
  35.3140496  79.7462095  82.5221682  34.5332295  77.9803888  83.3047585
  34.6212296  77.0497639  82.9222764  33.4160306  78.2992613  83.9407153
  33.2728654  79.5081355  84.4766470  34.0193310  80.1838797  84.3975330
  32.4183458  79.7448023  84.9602632  32.4331840  77.4160694  84.0477374
  32.5379418  76.4969379  83.6423695  31.5841612  77.6663999  84.5341463
  39.7469022  77.2545338  82.9184361  40.5738325  77.5036767  83.8010618
  39.2359146  76.0386900  82.7182923  38.5293273  75.9376704  82.0037094
  39.5339963  74.8864108  83.5653211  39.5678159  75.1872721  84.6124304
  38.4413576  73.8258600  83.3956927  38.4501739  73.3536218  82.4133421
  38.6759171  73.0825850  84.1576797  37.0568055  74.4123400  83.6660029
  36.7411012  74.6989085  84.8688105  36.3305128  74.6895098  82.6801587
  40.9357790  74.3360151  83.3433329  41.5590450  73.9106341  84.3050749
  41.4576005  74.4124017  82.0949033  40.8703850  74.7447236  81.3433453
  42.8360849  74.0191103  81.7791367  43.0181473  73.0085386  82.1447829
  43.0906513  74.0459899  80.2462905  42.5051619  74.9025373  79.9121828
  44.1498191  74.2442266  80.0820777  42.6774914  72.8102130  79.4574639
  42.2985541  71.7851245  80.0906125  42.7889289  72.8405696  78.2238752
  43.7927147  74.9876828  82.4755122  44.7698840  74.5558935  83.0867569
  43.4765198  76.2894990  82.4019430  42.6931340  76.5251544  81.8095980
  44.2306601  77.3762369  83.0156874  45.2797402  77.2933107  82.7316920
  43.7020022  78.7592355  82.5592175  42.6688779  78.8358719  82.8981575
  44.3055913  79.5153536  83.0612788  43.7598626  78.9817323  81.0518594
  42.9187290  78.4369569  80.6231231  43.6212525  80.0504330  80.8882497
  45.2949064  78.4469654  80.2387721  46.3761984  79.7719185  80.6081169
  46.4757010  79.8698340  81.6891399  47.3548159  79.5758741  80.1699672
  45.9726788  80.6966679  80.1956710  44.2517028  77.2689256  84.5391881
  45.3043942  77.4678589  85.1449169  43.1087958  76.9192953  85.1502594
  42.2734661  76.7982723  84.5955731  42.9960328  76.8141820  86.6108541
  43.4388563  77.6908160  87.0836324  41.5245699  76.7305747  87.0176905
  40.9783000  77.4345995  86.3899665  41.1896830  75.7161064  86.8013462
  41.2644154  77.0476110  88.4757528  42.1014636  76.6571138  89.0545128
  41.2312329  78.1327900  88.5726275  39.9739700  76.4561021  88.9947798
  38.8895115  76.7939591  88.4700205  40.0508289  75.6420562  89.9355725
  43.8252997  75.6283205  87.1451712  44.5147205  75.7554173  88.1624629
  43.7897645  74.5015199  86.4150537  43.1188535  74.4916247  85.6601498
  44.5911499  73.3035271  86.6442340  44.3839297  72.9096184  87.6392189
  44.2649357  72.2278178  85.6174815  44.2908677  72.6588620  84.6166679
  44.9981709  71.4241766  85.6855032  42.9716270  71.7097054  85.8748240
  42.7642671  71.0311348  85.2281837  46.0756518  73.6411177  86.5908696
  46.8063697  73.2067815  87.4764284  46.5075400  74.4738862  85.6187738
  45.8744976  74.7111904  84.8684117  47.8931681  74.9369886  85.5302420
  48.5600525  74.0749768  85.5129224  48.1313965  75.7685553  84.2578123
  47.9551463  75.0173051  83.4879693  47.3895833  76.5620132  84.1670497
  49.5380461  76.3606303  84.0825269  49.6805406  77.1340875  84.8372189
  50.6383154  75.2836485  84.2342360  50.4967459  74.5100336  83.4795328
  51.6179322  75.7433267  84.1032874  50.5765616  74.8377203  85.2269268
  49.6410702  77.1313233  82.7643675  48.9145006  77.9438371  82.7602009
  50.6453517  77.5421197  82.6606067  49.4368391  76.4577062  81.9321244
  48.3443540  75.6955726  86.8100867  49.4969259  75.5206807  87.2354477
  47.4245094  76.4804521  87.4149992  46.5229042  76.5704049  86.9687751
  47.6532612  77.2000176  88.6637534  48.5141250  77.8560654  88.5348579
  46.7705812  77.7993169  88.8869478  47.9188887  76.2580431  89.8273143
  48.7703034  76.5210444  90.6852731  47.2226860  75.1194900  89.8298810
  46.4903491  74.9762279  89.1492504  47.4176445  74.1060087  90.8585543
  47.4568957  74.5863940  91.8361987  46.2730814  73.0827736  90.8603214
  46.2170645  72.6652631  89.8550123  46.5074237  72.2894430  91.5701174
  44.9436565  73.7054736  91.2218352  44.8683091  74.7509308  92.1395649
  45.7886124  75.1062094  92.6031579  43.6532829  75.3390411  92.4677396
  43.6199801  76.1833556  93.1563076  42.4836744  74.8607567  91.9017395
  41.2941306  75.4324106  92.2674487  41.3990253  76.1390580  92.9087335
  42.5265843  73.8101161  90.9977914  41.6087902  73.4335634  90.5461694
  43.7559711  73.2335948  90.6667066  43.7960079  72.4012741  89.9640407
  48.7605783  73.4277774  90.7088702  49.4080054  73.1684827  91.7279062
  49.1789681  73.1583805  89.4361780  48.5076483  73.3402016  88.7038050
  50.4444696  72.5041876  89.0746817  50.5860979  71.5802650  89.6354024
  50.5303433  72.1806884  87.5507526  50.3862023  73.1073390  86.9951977
  51.8760971  71.5679262  87.1764090  52.0207562  70.6409339  87.7312602
  51.8952344  71.3574870  86.1070870  52.6753400  72.2668589  87.4229971
  49.4025167  71.2498797  87.1303618  48.4431569  71.7254131  87.3343196
  49.4833779  71.0387098  86.0640746  49.4719190  70.3177604  87.6911092
  51.6025586  73.3643886  89.6003328  52.4739957  72.8352505  90.2942026
  51.5407290  74.7010765  89.3604378  50.7986879  75.0180969  88.7530068
  52.5328631  75.6872211  89.8250383  53.5311571  75.3434360  89.5542617
  52.3026116  77.0735491  89.1963723  51.3033915  77.2700306  89.5850280
  52.9944385  77.8245063  89.5778678  52.2763625  77.1340885  87.6849663
  51.7016628  76.2872933  87.3097878  51.6346123  78.4436020  87.1997377
  52.2090670  79.2908967  87.5741604  51.6274390  78.4633068  86.1099390
  50.6115460  78.5066466  87.5704952  53.6552406  76.8400269  87.0934782
  53.9752407  75.8425875  87.3948318  53.6030811  76.8912006  86.0059296
  54.3718221  77.5763529  87.4573928  52.6036533  75.7985914  91.3449967
  53.6992566  75.9167739  91.8931420  51.4454877  75.7472041  92.0224559
  50.5848300  75.7912913  91.4957453  51.3676712  75.7980417  93.4971942
  52.0547814  76.5640665  93.8566170  49.9569886  76.1263848  94.0064008
  49.2591908  75.4464070  93.5177212  49.9413155  75.9509969  95.0820836
  49.5432085  77.5795123  93.7181154  49.2744006  77.6462852  92.6638932
  48.6698572  77.8047182  94.3301953  50.8592604  78.7931144  94.0801959
  51.2200368  78.4009598  95.9692351  51.5437191  77.3650590  96.0704194
  52.0044290  79.0635495  96.3350279  50.3125986  78.5561820  96.5528131
  51.9288710  74.5591686  94.1322078  52.6279680  74.6478509  95.1353328
  51.7217694  73.4227572  93.4724721  51.0914118  73.4845345  92.6857497
  52.2715309  72.1114283  93.8198865  52.0489662  71.8652124  94.8581263
  51.6297634  71.0461126  92.9133718  50.5826555  70.9127031  93.1851553
  51.6929273  71.4983096  91.9236101  52.3201365  69.7039607  92.8979373
  52.1586340  68.8042383  93.9497498  51.5669408  69.1079106  94.8133363
  52.7369407  67.5365246  93.9120878  52.6009797  66.8458665  94.7443184
  53.4761630  67.1529204  92.8097723  54.0398584  65.9095449  92.7993346
  53.8553777  65.4073552  93.5964369  53.6453844  68.0255042  91.7436450
  54.2297748  67.7267199  90.8734058  53.0620250  69.2916667  91.7907444
  53.1820032  69.9785165  90.9529242  53.8109078  72.1299556  93.6845446
  54.4724993  71.5186088  94.4913902  54.3959133  72.7970746  92.6547743
  53.8702504  73.1889609  91.8865277  55.8661092  72.8816762  92.6102353
  56.2790628  71.8995414  92.8404089  56.3908361  73.3239642  91.2484537
  55.9157760  74.2869695  91.0612696  57.4736511  73.4487393  91.2549959
  56.0638146  72.4421980  90.0629452  56.1035355  71.0541009  90.1718239
  56.3701431  70.6028327  91.1275316  55.8078396  70.2450550  89.0786163
  55.8101873  69.1607727  89.1900931  55.5130674  70.8106291  87.8595190
  55.2837629  70.1723449  87.0062237  55.5073306  72.1850090  87.7156130
  55.2728288  72.6336450  86.7502972  55.8029383  72.9994743  88.8107237
  55.8316765  74.0826448  88.6923362  56.3893677  73.8321409  93.7185070
  57.4272313  73.5524539  94.3250475  55.6052491  74.9001556  94.0263001
  54.7904121  75.0149174  93.4406640  55.9110273  75.9449186  94.9994086
  56.9359755  76.2905398  94.8647745  54.9649065  77.1342965  94.8116947
  54.0151921  76.6791689  94.5306244  54.8341059  77.7104851  95.7276630
  55.3975561  78.0760093  93.7043747  56.5632132  78.1311886  93.3312090
  54.4955235  78.9141848  93.2235702  54.7491497  79.5554359  92.4856200
  53.5568581  78.9094757  93.5963784  55.9445949  75.4291311  96.4387409
  56.9619142  75.5753668  97.1188052  54.8386227  74.8329740  96.8870783
  54.0890454  74.7544529  96.2147185  54.6839454  74.1653325  98.1789447
  55.2685814  74.6815541  98.9404007  53.2120513  74.1807884  98.5984419
  52.7529184  73.3512050  98.0607731  53.2169437  73.9626378  99.6663775
  52.4146016  75.4537179  98.3441619  52.5506892  76.1295790  99.1884325
  52.7873117  75.9277846  97.4361696  50.9235020  75.1359714  98.1793986
  50.3581301  76.0669323  98.2214148  50.7693806  74.6613135  97.2103548
  50.4273074  74.2369024  99.2274940  50.4985257  73.2453390  99.0490861
  49.9064104  74.6372667 100.3815320  49.7474388  75.9296029 100.6343980
  50.0242899  76.6137446  99.9449028  49.3502722  76.2235657 101.5152749
  49.5322353  73.7488233 101.2878517  49.6437361  72.7627233 101.1000368
  49.1368444  74.0608559 102.1632947  55.0053169  72.7069183  97.8616479
  54.4544991  72.2184618  96.8851290  55.8176121  71.9762424  98.6380146
  56.3515420  72.3638147  99.4027406  56.0540719  70.5598630  98.2611856
  56.5988605  70.4686532  97.3215126  56.8235540  69.8334098  99.3372358
  56.8564423  68.7762766  99.0736298  58.2463723  70.3634451  99.4912218
  58.2142868  71.4204846  99.7553003  58.7583083  69.8084560 100.2773565
  58.7841820  70.2405000  98.5511442  56.0896756  69.9420814 100.5637948
  56.5641404  69.4851157 101.2621256  54.7508438  69.8005820  97.8775442
  54.6891906  69.1427786  96.8337302  53.6979412  69.9765732  98.7026674
  53.8430915  70.5591401  99.5148537  52.3863755  69.3622906  98.5168339
  52.3709466  68.7748617  97.5987989  52.0845387  68.4357000  99.6948740
  51.4189199  67.6378597  99.3654779  53.0153351  68.0032859 100.0619381
  51.4617850  69.1709353 100.7365705  51.2742603  68.5852406 101.4737246
  51.2512048  70.4029948  98.3937749  51.4573303  71.5885306  98.6340373
  50.0374364  69.9127307  98.1068024  49.9929102  68.9356002  97.8551422
  48.8161624  70.6973141  98.0412446  49.0560579  71.7597753  98.0827835
  48.0724021  70.4157563  96.7382642  48.1845890  69.3374433  96.6253291
  47.0154170  70.6619107  96.8397064  48.6377813  71.1123505  95.5180339
  49.7239086  71.1532971  95.6002035  48.2595878  70.3655398  94.2779321
  47.1735333  70.3245741  94.1948273  48.6711791  70.8749743  93.4066286
  48.6581396  69.3522346  94.3276255  48.2066539  72.5712249  95.4642695
  48.5629868  73.0889904  96.3548004  48.6288876  73.0429461  94.5769707
  47.1189302  72.6278826  95.4224841  47.9265716  70.4409462  99.2786114
  48.0150848  69.3600473  99.8764016  47.0832392  71.4178647  99.6990953
  46.9293247  72.7192361  99.1960917  46.2379001  72.6889375  98.3540024
  47.9001000  73.0795224  98.8556682  46.3924419  73.5214380 100.3595121
  45.8273929  74.3844126 100.0072430  47.2038357  73.8579019 101.0049060
  45.4889113  72.5213553 101.0920720  44.4733494  72.3941568 100.7171672
  45.4548515  72.7917274 102.1474575  46.2713486  71.2308050 100.9124198
  46.9852500  71.1706200 101.7338945  45.3383061  70.0090041 100.9545305
  45.0017800  69.5520133 102.0521619  44.9322974  69.4894211  99.7728058
  45.2901557  69.9651173  98.9568707  44.0212754  68.3558044  99.5737534
  43.5264950  68.0980319 100.5101534  42.9496856  68.7383546  98.5413693
  42.4062759  67.8317667  98.2750924  42.2509041  69.4794392  98.9294389
  43.5049666  69.2996308  97.2599014  43.9663743  68.6018385  96.1844931
  43.8966938  67.5152231  96.2346069  44.4411713  69.4684997  95.2271660
  44.8145398  69.2021758  94.3272954  44.2801470  70.7549488  95.6732524
  44.5541391  71.9744799  95.0463934  44.9739155  71.9601464  94.0405699
  44.2732573  73.1256960  95.7469602  44.4857355  74.0941870  95.2942151
  43.7203302  73.0841736  97.0291823  43.4995049  74.0018672  97.5743191
  43.4361230  71.8765758  97.6462819  43.0052049  71.9007761  98.6471938
  43.7020384  70.6830927  96.9571396  44.7267410  67.0872988  99.1054917
  44.0586717  66.1512529  98.6451413  46.0686324  67.0515019  99.2128973
  46.5462477  67.8779087  99.5431015  46.8742650  65.9251256  98.7486175
  46.4669465  65.5463477  97.8112178  48.3233945  66.3501638  98.5150040
  48.3245272  67.4179208  98.2959312  48.8750178  66.1684528  99.4373884
  48.9876796  65.5962054  97.3693382  49.2384273  64.5910426  97.7082690
  48.3089947  65.5335151  96.5187156  50.2475095  66.2816846  96.9280948
  50.2559734  67.4835164  96.6530192  51.3395066  65.5358722  96.8331151
  52.2100711  65.9556048  96.5397835  51.2958058  64.5514092  97.0545295
  46.8128000  64.6850857  99.6370976  46.5651169  63.5985735  99.1129245
  47.0414886  64.8456675 100.9401682  47.2045262  65.7778824 101.2930046
  47.0676868  63.7294752 101.8888390  47.4599478  62.8675868 101.3490437
  47.7618072  64.0075128 102.6819287  45.7339852  63.3588044 102.5078933
  45.6521390  63.1242141 103.7222728  44.6772571  63.3367676 101.6698967
  44.8656257  63.5923944 100.7111102  43.2967690  63.0208557 102.0462506
  43.2119771  63.0163494 103.1329379  42.2965053  64.0641784 101.4743071
  42.3088706  63.8484202 100.4059463  41.3239925  63.7963196 101.8873089
  42.5509416  65.5576087 101.6959938  43.4877206  65.8330643 101.2115663
  41.4254882  66.3778782 101.1165762  40.4883854  66.1032931 101.6008697
  41.6235520  67.4366489 101.2835376  41.3500842  66.1872857 100.0460207
  42.7076408  65.8961872 103.1609061  43.5513913  65.3433508 103.5738909
  42.8864061  66.9658784 103.2700156  41.7982746  65.6238127 103.6965966
  42.9357755  61.6173085 101.5484306  42.5827582  61.4355409 100.3766404
  43.0511671  60.6240438 102.4333493  43.4800003  60.8154647 103.3275302
  42.7277662  59.2431653 102.1044432  42.7787480  59.1086986 101.0239717
  43.7144522  58.2545414 102.7732613  43.9763716  58.6655603 103.7482285
  43.1877780  57.3097083 102.9074430  44.9973475  58.0150828 101.9561523
  45.3083501  58.9624234 101.5157844  45.7746248  57.6560231 102.6307025
  44.7687186  56.9759007 100.8341115  44.5638675  56.0207310 101.3176255
  43.8894779  57.2952754 100.2746161  45.9364431  56.8214738  99.8903758
  46.1826727  57.8034576  99.4864210  46.7858049  56.4384777 100.4560592
  45.6242663  55.8890691  98.7719894  44.8375264  56.2439998  98.2474284
  46.4270626  55.8118901  98.1639914  45.3964932  54.9789678  99.1460670
  41.2641231  58.8960436 102.3987227  40.6421420  59.4515350 103.3102022
  40.7196970  58.0044439 101.5616444  41.3364530  57.7067348 100.8192963
  39.3745059  57.4386986 101.6127823  39.0313219  57.2268437 102.6254231
  38.3835390  58.3765739 100.9516624  38.7088240  58.5908467  99.9336364
  37.3997173  57.9079655 100.9271415  38.3286298  59.3061327 101.5182350
  39.4332165  56.1062682 100.8614966  40.2233134  55.9734063  99.9129310
  38.6336759  55.1165228 101.3040889  38.0847858  55.2926575 102.1334234
  38.5942007  53.7775593 100.7181842  39.5740977  53.3350411 100.8972898
  37.5395817  52.9285135 101.4224398  36.5518884  53.3539286 101.2447214
  37.5718881  51.9110906 101.0326869  37.7406617  52.9132498 102.4936228
  38.3696123  53.7827296  99.1923640  39.2291195  53.2972643  98.4408617
  37.2487823  54.3735100  98.7427901  36.5689913  54.6868542  99.4208748
  36.8908208  54.4282648  97.3260066  37.5356355  53.7814481  96.7310769
  35.4195814  53.9948911  97.1094271  35.3424297  52.9454771  97.3938179
  34.4236874  54.8116766  97.9142083  34.4999317  55.8612100  97.6300146
  33.4136875  54.4540284  97.7139909  34.6416817  54.7068281  98.9770281
  35.1060079  54.1010255  95.7228403  34.1950878  53.8340807  95.5794339
  37.2259591  55.7853554  96.6885864  37.2670887  56.8096470  97.3793137
  37.4472730  55.7729910  95.3552777  37.4570228  54.8670681  94.9088385
  37.7503949  56.9521842  94.5404019  38.6440869  57.4391175  94.9306706
  37.9990612  56.5739951  93.0683629  37.0700716  56.1514178  92.6856019
  38.2245647  57.4973558  92.5348339  39.1317852  55.5791625  92.8610118
  40.0211622  55.9607374  93.3625197  38.8418456  54.6289918  93.3095792
  39.4328838  55.3713050  91.3824176  38.5174064  55.0436100  90.8898568
  39.7503348  56.3250113  90.9607915  40.5173857  54.3397148  91.1676844
  41.4124191  54.6720169  91.6936037  40.1773175  53.3948182  91.5915041
  40.8308574  54.1517893  89.7264348  41.1464022  55.0271360  89.3336252
  41.5573555  53.4571265  89.6277224  40.0017374  53.8434596  89.2390008
  36.6361638  58.0072230  94.6444223  36.9435504  59.1911897  94.6290214
  35.3564861  57.5883911  94.7857235  35.1840445  56.5945872  94.7335997
  34.1984510  58.4934440  94.9133754  34.2173844  59.2321340  94.1120778
  32.8872235  57.7047735  94.8216574  32.9035775  57.1446679  93.8867170
  32.8607875  57.0095038  95.6607053  31.6382782  58.6015617  94.8598607
  31.6072855  59.0899232  95.8338440  31.7440037  59.3550702  94.0793806
  30.3509057  57.8245100  94.6421073  30.4489033  57.2216732  93.7392876
  30.1819081  57.1711516  95.4980640  29.1641909  58.7837786  94.4895108
  29.3796452  59.4507635  93.6547586  28.2810644  58.1878518  94.2591680
  28.9116682  59.5928688  95.7211139  29.7297195  60.1454673  95.9344839
  28.1231212  60.2046620  95.5661860  28.7115820  58.9750294  96.4946377
  34.2437347  59.3346130  96.2045799  33.7599150  60.4770823  96.2207465
  34.8222145  58.7427143  97.2811221  35.1132944  57.7865663  97.1356820
  35.0256634  59.3390409  98.6100879  34.1833742  59.9815994  98.8665377
  35.1363163  58.2217172  99.6730878  35.8270132  57.4709848  99.2891114
  35.5515489  58.6684691 100.5764673  33.8008916  57.5632051  99.9998794
  33.1753154  58.3461727 100.4285017  33.3441502  57.1963937  99.0806739
  33.8879949  56.4159091 100.9895030  34.9052301  55.7223779 101.1499275
  32.7812902  56.1643575 101.6550444  32.7619279  55.4149304 102.3318646
  31.9562163  56.7218467 101.4860466  36.3049131  60.2146712  98.6150568
  36.3544184  61.2416780  99.3005423  37.3408574  59.7645992  97.8686811
  37.1831864  58.8879746  97.3924789  38.6474616  60.4133106  97.7166388
  39.1415838  60.5008370  98.6842552  39.5391765  59.5622698  96.7812579
  39.2061465  58.5301039  96.8899951  39.3376558  59.9034613  95.7658379
  41.0410797  59.6447998  97.0577817  41.5559425  59.6556869  96.0971056
  41.2316611  60.5811645  97.5821879  41.5622250  58.4626435  97.9082781
  42.5023642  58.7805226  98.3590443  40.8268915  58.2816274  98.6922535
  41.7859647  57.1848012  97.1200665  40.8323479  56.8807218  96.6884982
  42.4944502  57.3990901  96.3199242  42.3174892  56.0861414  97.9718302
  41.6609400  55.8871286  98.7130702  42.4508727  55.2582232  97.4089268
  43.2013377  56.3675413  98.3714863  38.4899230  61.8326878  97.1375267
  39.2067598  62.7403411  97.5533061  37.5311529  62.0070873  96.1934262
  37.0145000  61.1676756  95.9730692  37.2036779  63.2389697  95.4619975
  38.1146481  63.7953641  95.2414123  36.5052520  62.8951975  94.1370360
  35.6738370  62.2127081  94.3132645  36.1178436  63.8706123  93.8427899
  37.3828038  62.3463958  93.0312966  38.3699161  61.4017730  93.2973981
  38.5391874  61.0992482  94.3308029  39.1355803  60.8441960  92.2729371
  39.9083966  60.1107761  92.5030504  38.9136517  61.2282039  90.9600020
  39.6734733  60.7161764  89.9358731  40.3388866  60.0934467  90.2375893
  37.9117537  62.1368739  90.6705386  37.7209745  62.4305287  89.6383222
  37.1446244  62.6778054  91.7029231  36.3390669  63.3758790  91.4751721
  36.3101215  64.1741040  96.2613384  36.4631697  65.3887133  96.1420642
  35.3645590  63.6235732  97.0438015  35.2256240  62.6244251  96.9938073
  34.4424992  64.4142459  97.8690920  33.9324515  65.1372036  97.2324739
  33.3844070  63.5418274  98.5682823  33.9217536  62.7255896  99.0511009
  32.9159903  64.1674088  99.3281071  32.3068247  62.9674310  97.6454984
  31.7981776  63.8032767  97.1651434  32.8181372  62.3711473  96.8897839
  31.2855058  62.1007525  98.3699824  31.0664586  60.9328084  97.9586979
  30.7022734  62.5833544  99.3641884  35.2139179  65.2877386  98.8717708
  34.7653129  66.3862468  99.2075955  36.3931295  64.7966608  99.3144190
  36.6196565  63.8517702  99.0387985  37.2865138  65.4791064 100.2499085
  36.6930046  66.0600668 100.9558342  38.1527377  64.4735109 101.0429153
  38.5361636  63.7368882 100.3368906  38.9852651  65.0250139 101.4797707
  37.3744285  63.7592712 102.1537679  36.9490739  64.5263641 102.8008712
  36.5696561  63.1969286 101.6802554  38.2346656  62.8130022 102.9851091
  38.6396649  62.0436534 102.3277074  39.0535133  63.3830395 103.4240229
  37.4290187  62.1625012 104.0839605  37.0285546  62.9483682 104.7243839
  36.6063948  61.6140972 103.6250027  38.2504955  61.2318035 104.8980628
  39.0125656  61.7398534 105.3237789  37.6764676  60.8191044 105.6193612
  38.6213198  60.5032825 104.3048970  38.1248786  66.5310965  99.5230975
  38.1201137  67.6844007  99.9409981  38.8020021  66.1410936  98.4166824
  38.7978995  65.1518745  98.2128979  39.6046005  67.0260632  97.5595606
  40.4173999  67.5056724  98.1049332  40.1853374  66.2412263  96.3487242
  39.3835497  65.6573026  95.8967616  40.7834444  67.1995552  95.2921363
  41.5856635  67.7835300  95.7432665  41.1808994  66.6200672  94.4588753
  40.0058531  67.8713586  94.9286378  41.2321442  65.1999696  96.8207854
  42.0802005  65.7710697  97.1986030  40.7683472  64.6531171  97.6417265
  41.7225273  64.1982293  95.7452637  42.1868899  64.7443540  94.9241578
  42.4511236  63.5182167  96.1866585  40.8750356  63.6264027  95.3672794
  38.7544090  68.2306673  97.1217052  39.1493983  69.3778175  97.3586539
  37.5661634  67.9490296  96.5344984  37.3651166  66.9720494  96.3757874
  36.6025107  68.9403222  96.0614464  37.0514386  69.5415939  95.2708546
  35.3563424  68.2574252  95.5065489  35.5849170  67.8812186  94.5093922
  35.1013344  67.4227877  96.1595811  34.2580422  69.1532712  95.4335667
  33.4926315  68.6931106  95.0814324  36.2164347  69.9269688  97.1548350
  36.2992969  71.1396353  96.9374785  35.7999892  69.4035229  98.3339625
  35.6523769  68.4060142  98.3912888  35.3984596  70.2293901  99.4698970
  34.7863592  71.0541929  99.1050237  34.5890777  69.4412333 100.5155136
  35.0890162  68.4821092 100.6505755  34.6319861  70.0069793 101.4462071
  33.1233653  69.2036411 100.1289311  33.2064226  68.6379200  99.2009430
  32.7187846  68.5608429 100.9107393  32.1917305  70.3945933  99.9169133
  32.4553010  71.4863450 100.4747188  31.1705309  70.2215453  99.2116093
  36.5793651  70.9758921 100.0986402  36.3856738  72.0922605 100.5725013
  37.8041599  70.3991957 100.0510582  37.8696032  69.4497621  99.7128387
  39.0180316  71.0371906 100.5715357  38.7933349  71.5032407 101.5309146
  40.1585906  70.0207118 100.7729854  39.7666650  69.2347926 101.4186049
  40.3839198  69.6048222  99.7909658  41.4379492  70.5968365 101.3891371
  42.1710457  69.7909658 101.4243889  41.7933141  71.3816318 100.7213690
  41.2447785  71.1711441 102.7923661  40.3701531  71.8215534 102.7825048
  41.0752396  70.3456122 103.4836354  42.4510453  71.9584682 103.2366794
  43.2631784  71.2579220 103.4310383  42.7372047  72.6301844 102.4273530
  42.1768809  72.7488964 104.4610458  41.9121183  72.1266182 105.2112259
  43.0071466  73.2599978 104.7247392  41.4246560  73.3983983 104.2810341
  39.4235499  72.1958336  99.6612416  39.7446601  73.2686909 100.1672766
  39.3328188  72.0025993  98.3230348  39.0827777  71.0771560  98.0050199
  39.5818929  73.0433017  97.3136234  40.6085835  73.4003351  97.3944493
  39.3686340  72.4782409  95.9020003  38.4538864  71.8857915  95.9204387
  39.2397927  73.3236519  95.2261452  40.5122563  71.6213947  95.4220213
  41.3968278  72.2537859  95.3464208  40.6846130  70.8439311  96.1662965
  40.2403342  70.9954845  94.1094941  39.5881818  70.1318173  94.2393986
  39.7600475  71.7165560  93.4480713  41.5380878  70.5543601  93.5079381
  42.0349184  71.4298615  93.0898983  42.1548330  70.1312715  94.3008572
  41.3422398  69.5484756  92.4486563  40.7711312  69.9404630  91.7136185
  42.2391213  69.2787312  92.0705803  40.8822631  68.7369601  92.8359070
  38.6358851  74.2281281  97.5203525  39.0500772  75.3916995  97.4508071
  37.3592290  73.9154171  97.7878410  37.0970931  72.9403096  97.7644003
  36.3143400  74.9061043  98.0042382  36.4293404  75.7315824  97.3017711
  34.9509537  74.2735017  97.7904043  34.8604751  73.4343429  98.4801328
  34.1948254  75.0217236  98.0281731  34.7497595  73.7885500  96.3834670
  34.9178445  74.6227440  95.7023145  35.4771433  73.0024512  96.1808256
  33.0947424  73.1415723  96.1271620  32.1803855  74.7154655  95.9367926
  32.5803212  75.2680690  95.0866280  31.1243472  74.5046495  95.7681496
  32.2911400  75.3123942  96.8420610  36.3982930  75.5852475  99.3650653
  35.9438496  76.7259460  99.4995572  36.9553648  74.8931492 100.3812523
  37.2041327  73.9228709 100.2517385  37.1071209  75.4770441 101.7169499
  36.3188763  76.2124536 101.8780164  37.0158151  74.4165086 102.8111718
  37.0480382  74.9307023 103.7717266  36.0557711  73.9120998 102.7016848
  38.0620187  73.4595978 102.7519192  37.9525803  72.8215346 103.4607904
  38.4017105  76.2841585 101.8257852  38.4783091  77.1616115 102.6840846
  39.3957520  76.0125357 100.9255621  39.2538004  75.2110008 100.3276567
  40.6944774  76.6971417 100.8758648  40.9288068  77.1318416 101.8475772
  41.8414520  75.7301785 100.4752647  41.7017911  75.4643705  99.4274378
  43.2161816  76.3377099 100.6627591  43.3567624  76.6033663 101.7105011
  43.9767256  75.6153111 100.3664285  43.3057785  77.2322826 100.0464696
  41.7694946  74.5375660 101.2444907  42.4826423  73.9481178 100.9884214
  40.6604583  77.9638790  99.9936323  40.7600486  77.8493247  98.7612472
  40.5780062  79.1821926 100.6011311  40.2109867  79.5568374 101.9495661
  41.1114198  79.5438173 102.5636922  39.5033305  78.8189630 102.3275385
  39.6022048  80.9365293 101.8408651  39.6956017  81.4766670 102.7830049
  38.5506119  80.8746786 101.5608149  40.4262626  81.6003640 100.7306448
  41.3794189  81.9798345 101.0988760  39.8995088  82.3946067 100.2016754
  40.6642179  80.4244418  99.7968336  39.8598618  80.4291174  99.0612469
  42.0093451  80.4997734  99.0792998  42.9931749  79.9623640  99.6027892
  42.0538430  81.1180203  97.8662348  41.1809278  81.4047863  97.4468500
  43.2819092  81.1867515  97.0454191  43.7866102  80.2255989  96.9476354
  43.1143344  81.8080402  95.6257483  43.9235043  81.4219760  95.0058308
  41.7749305  81.4908177  94.9683999  40.9652331  81.8770072  95.5875517
  41.7331587  81.9572367  93.9841190  41.6679209  80.4112024  94.8631317
  43.4028914  83.2856786  95.6055148  44.4289814  83.4604888  95.9290619
  43.2714548  83.6682435  94.5933547  42.7174291  83.7995226  96.2794634
  44.4392243  81.8200285  97.8594014  45.5741746  81.3566438  97.7750307
  44.1056245  82.8067154  98.7081470  43.1295831  83.0649629  98.6807491
  44.9965670  83.5496963  99.6056558  45.8225402  83.9836645  99.0421499
  44.2113013  84.6915333 100.2890524  43.3179910  84.2450023 100.7257515
  44.8470054  85.0824039 101.0835336  43.8059879  85.8310502  99.3541175
  43.3888339  86.5964820 100.0084856  44.7599283  86.1755884  98.9548803
  42.8408794  85.5647021  98.2045896  41.9810264  84.6572190  98.3208058
  42.9369653  86.2916006  97.1884217  45.6242806  82.6362179 100.6654496
  46.7540770  82.8875807 101.0976043  44.8897083  81.5744360 101.0713288
  43.9265803  81.5217341 100.7718188  45.3639619  80.6014255 102.0439449
  46.0438956  81.0630588 102.7599645  44.2086119  79.9050965 102.8304190
  43.5170951  79.4701293 102.1088185  44.7335842  78.8058088 103.7614334
  45.4248587  79.2401217 104.4836611  43.8979839  78.3467081 104.2897319
  45.2516538  78.0479843 103.1737196  43.3985199  80.9254773 103.6289069
  42.9658513  81.6591327 102.9487234  42.6001659  80.4150150 104.1675708
  44.0508700  81.4311777 104.3408109  46.3142288  79.6313221 101.3504912
  47.4067830  79.3739384 101.8655795  45.9161290  79.1151874 100.1782299
  44.9813679  79.3111645  99.8497273  46.7546983  78.2187633  99.3864349
  47.0328346  77.3448722  99.9755475  45.9765560  77.7458223  98.1392339
  45.2355400  77.0507738  98.5340783  45.4721031  78.6253825  97.7392325
  46.7834228  77.0539720  97.0088012  47.6910546  77.6317015  96.8340614
  47.1491323  75.6457122  97.3646594  46.2419392  75.0672071  97.5391050
  47.7129731  75.1982965  96.5461220  47.7589922  75.6453754  98.2680813
  46.0120165  77.0339859  95.7299858  45.7898327  78.0560139  95.4230778
  46.6026086  76.5431405  94.9564400  45.0798493  76.4881975  95.8758568
  48.1064463  78.8830231  98.9709950  49.1590092  78.2384152  99.0741354
  48.0616922  80.1683003  98.5278160  47.1457238  80.5909038  98.4777413
  49.2080179  80.9232886  97.9984464  49.9849333  80.2321207  97.6716613
  48.7830104  81.7809768  96.8047882  48.0788244  82.5508342  97.1202890
  49.6521868  82.2509190  96.3445852  47.9587459  80.8566995  95.4902870
  47.7624809  81.8998341  94.6888829  49.9629310  81.7629572  99.0409811
  50.8381838  82.5567272  98.6523825  49.6630276  81.5735981 100.3418662
  48.9240736  80.9237280 100.5692756  50.2952340  82.3204762 101.4374949
  50.1882154  83.3903127 101.2583413  49.6378371  81.9785486 102.7947557
  48.5591744  81.9428259 102.6420796  49.9941310  80.9941018 103.0981024
  49.9640398  82.9969396 103.8869958  50.9414864  83.4260041 103.6665359
  49.2076497  83.7810577 103.8533077  49.9857130  82.3730457 105.2742174
  48.9950956  81.9699803 105.4847270  50.7147356  81.5627215 105.2746986
  50.3540330  83.3812176 106.3349820  51.3089299  83.8305794 106.0623163
  49.5833561  84.1517400 106.3562345  50.4667295  82.7559822 107.6798010
  51.1811040  82.0422639 107.6604360  50.7137271  83.4612227 108.3593068
  49.5818820  82.3399059 107.9328319  51.7957510  82.0754979 101.4963712
  52.2303059  80.9257409 101.4413990  52.5568198  83.1641751 101.5926011
  52.0965999  84.0626585 101.6246103  54.0161169  83.1308623 101.6542384
  54.3496810  83.9939612 102.2303413  54.3117452  82.2158322 102.1674860
  54.6748475  83.1651513 100.2866507  55.9036916  83.2621353 100.1814733
  53.8544472  83.0898395  99.2240635  52.8705005  82.9369027  99.3930561
  54.3254094  83.0987446  97.8449144  55.4115165  83.0085607  97.8265456
  53.7170516  81.9154125  97.0521754  52.6351459  81.8193609  97.1435726
  53.9842117  82.0231075  96.0009251  54.3079798  80.6049574  97.5161855
  55.5660068  80.2043035  97.0907429  56.1131506  80.8235839  96.3799508
  56.1337672  79.0162621  97.5660722  57.1138181  78.7052063  97.2043470
  55.4584848  78.2385132  98.4894840  55.9118240  77.3254810  98.8754318
  54.2131369  78.6206735  98.9193109  53.6723182  78.0037861  99.6369914
  53.6359988  79.8032637  98.4364755  52.6475419  80.1074159  98.7807780
  54.0541149  84.4382090  97.1885848  53.2389280  85.1863117  97.7291528
  54.7133136  84.7935250  96.0502270  55.8188852  84.1908805  95.3532442
  55.4265466  83.4328000  94.6753912  56.4722211  83.7184965  96.0868003
  56.4985392  85.3269300  94.6229867  57.0400211  84.9584763  93.7517013
  57.1881282  85.8534754  95.2827731  55.3313612  86.2340815  94.2145854
  54.8178755  85.8966727  93.3142594  55.6277185  87.2761009  94.0943049
  54.4124789  86.0916381  95.4178024  54.6751082  86.8831288  96.1197044
  52.9336380  86.2142667  95.0415435  52.2932864  85.2250329  94.6824441
  52.3863719  87.4299565  95.1846523  52.9886077  88.1494394  95.5584916
  50.9899375  87.7652114  94.9181900  50.3943923  87.2728727  95.6869733
  50.7909974  89.2648827  95.0369788  51.3740462  89.7713240  94.2677770
  49.7352511  89.5032316  94.9077901  51.1205932  89.5988434  96.0208163
  50.4887493  87.2786587  93.5660073  49.3027306  86.9670078  93.4458469
  51.3920360  87.1858273  92.5691240  52.3247131  87.4888561  92.8107569
  51.1245153  86.7818100  91.1650917  50.4158249  87.4760021  90.7134785
  52.4070107  86.7920419  90.3431392  53.1760129  86.2916756  90.9316700
  52.2168844  86.2211736  89.4342600  52.8801983  88.1880654  89.9743221
  53.5181074  88.0500713  89.1013213  51.9565680  88.6829647  89.6741874
  53.6038712  89.0454105  90.9997517  53.8055793  88.5974449  92.1533867
  54.0003313  90.1719318  90.6260898  50.4307785  85.4279110  91.0390658
  49.5791609  85.2623485  90.1616226  50.7956557  84.4705258  91.9190284
  51.5987001  84.6575323  92.5023359  50.1920115  83.1473075  91.9793678
  50.1516934  82.7157199  90.9792649  51.0102626  82.2213307  92.8781360
  51.2304730  82.6552227  93.8535048  50.4864584  81.2748557  93.0119800
  52.3386647  81.8933506  92.2416511  52.4232296  80.9516229  91.2065662
  51.5207163  80.4254772  90.8955350  53.6473970  80.6818485  90.5723724
  53.6964510  79.9569197  89.7598623  54.7914206  81.3388952  90.9817632
  55.7468343  81.1294013  90.5007258  54.7207906  82.2737071  92.0151189
  55.6253257  82.7916663  92.3339210  53.4984115  82.5484845  92.6419797
  53.4520075  83.2797343  93.4489619  48.7164673  83.2067116  92.3833658
  47.8898642  82.4957549  91.7906830  48.3671802  84.0982590  93.3462489
  49.0821705  84.6097066  93.8435512  46.9795356  84.2982947  93.7348053
  46.4882388  83.3309544  93.8395879  46.8890925  85.0341283  95.0590511
  47.3688226  86.0085761  94.9673420  45.8418400  85.1693050  95.3294024
  47.3915653  84.4537442  95.8328564  46.2438386  85.0591017  92.6334296
  45.1260305  84.6857531  92.2959360  46.8904778  86.0726953  92.0233577
  47.7899111  86.3496360  92.3899950  46.3228321  86.8477670  90.9012386
  45.3953259  87.3190315  91.2264174  47.2908895  87.9481101  90.4131907
  48.2514212  87.4702805  90.2204292  46.8877072  88.3416830  89.4801074
  47.4803189  89.0818335  91.3987092  46.5360035  89.6185161  91.4900385
  47.7500981  88.6552442  92.3648059  48.7773770  90.2404926  90.8744007
  48.9788293  91.2397159  92.4189847  49.2784357  90.5864343  93.2384711
  49.7438326  92.0003500  92.2630793  48.0330400  91.7217382  92.6664485
  45.9335431  85.9223286  89.7321159  44.8502851  86.0801241  89.1553042
  46.8154905  84.9365068  89.4265260  47.6965541  84.9723017  89.9190145
  46.6421653  83.9227059  88.3918826  46.4398596  84.4080368  87.4370918
  47.9149761  83.0530204  88.2450290  48.7544673  83.6988507  87.9876249
  48.0982253  82.5886776  89.2140004  47.7650456  81.9804520  87.1938606
  47.1371165  80.7693698  87.4902015  46.8228025  80.5787720  88.5163490
  46.9107271  79.8164695  86.5066686  46.3752960  78.8971144  86.7437369
  47.3836562  80.0295796  85.2270909  47.1778434  79.0737660  84.2764535
  46.7006633  78.3101951  84.6094073  48.0420407  81.2090001  84.9130299
  48.4142455  81.3806908  83.9030367  48.2266402  82.1776300  85.8976487
  48.7402650  83.1084215  85.6569898  45.3934745  83.0748670  88.6538852
  44.5041072  83.0648485  87.8020357  45.3062959  82.4052053  89.8385097
  46.1216460  82.4029141  90.4345788  44.1530566  81.5670704  90.2260067
  43.9338250  80.8668396  89.4199586  44.4304334  80.7716659  91.5023870
  44.9468790  81.5221154  92.1008924  43.5179893  80.4648541  92.0136719
  45.3426416  79.5545737  91.3113584  46.1388367  79.8241752  90.6174642
  45.9495092  79.1054542  92.6268342  45.1538830  78.8352278  93.3211363
  46.5906208  78.2407706  92.4553734  46.5407699  79.9171462  93.0507061
  44.6243608  78.4290104  90.5560454  44.3174770  78.7881380  89.5737271
  45.2995738  77.5815312  90.4378609  43.7449406  78.1164714  91.1191071
  42.8292126  82.3424640  90.3300393  41.8062391  81.8497988  89.8506728
  42.8483587  83.5530219  90.8949748  43.6918492  83.8614125  91.3570553
  41.6678462  84.4074244  90.9677239  40.8371496  83.8486019  91.3987226
  41.9376724  85.6353222  91.8422266  42.9546883  85.9490708  91.6069823
  41.2411521  86.4281581  91.5695167  41.8383498  85.3964109  93.3297744
  41.0572094  84.5639280  93.8214174  42.6158080  86.1745929  94.0723889
  42.6087484  86.0783020  95.0777635  43.2109310  86.8594928  93.6287206
  41.1371903  84.8305401  89.5821799  39.9187929  84.8990535  89.3883865
  42.0491881  85.1149638  88.6248412  43.0232079  85.1118006  88.8920018
  41.7073333  85.4967524  87.2559169  41.0481070  86.3647014  87.2694950
  42.9847452  85.8572954  86.4544897  43.3099288  86.8098651  86.8727789
  43.7663859  85.1115860  86.5995943  42.7143872  86.0224880  84.9758184
  42.3100445  87.2463461  84.4533633  42.2418713  88.1052301  85.1210235
  41.9938041  87.3870294  83.0991069  41.6889889  88.3563620  82.7046658
  42.0386739  86.2845339  82.2656729  41.7183683  86.4125923  80.9424502
  41.4775627  87.3096944  80.6999213  42.4369512  85.0597320  82.7626855
  42.4862085  84.1912355  82.1058842  42.7767467  84.9356285  84.1091785
  43.0995761  83.9719834  84.5032207  40.9084243  84.3727705  86.5454324
  39.8832844  84.6536361  85.9077516  41.4265788  83.1112378  86.6523716
  42.2875955  83.0777766  87.1792776  40.9389019  81.8717271  86.0372898
  40.7686699  82.0280821  84.9720794  41.9687373  80.7534254  86.2088165
  42.1788262  80.5873846  87.2654112  41.6050953  79.8283624  85.7614654
  43.5659149  81.0953241  85.4269663  44.1431545  79.9515510  85.7840036
  39.6037155  81.4605520  86.5698444  38.7464229  80.9523170  85.8351086
  39.4416199  81.6493712  87.8747472  40.2274030  81.9676628  88.4236868
  38.2211501  81.2923893  88.5662112  37.8071872  80.3749457  88.1478441
  38.5139294  81.0644466  90.0485861  39.2171532  81.8279669  90.3811703
  37.5805317  81.1649163  90.6024585  39.1035116  79.6925904  90.2985492
  38.3209384  78.9644248  90.0853476  39.9224861  79.5626628  89.5910878
  39.6161682  79.4838398  91.7070414  39.8554300  78.4271869  91.8267804
  40.5224778  80.0770893  91.8285215  38.6591972  79.8696404  92.7483432
  37.8644026  80.4206068  92.4570754  38.7865558  79.5711082  94.0404838
  39.8097164  78.8228582  94.4599908  40.4888353  78.4826027  93.7943153
  39.8998819  78.6005242  95.4410807  37.8835535  79.9840662  94.9171015
  37.0928366  80.5290494  94.6042753  37.9898717  79.7520722  95.8943292
  37.1400802  82.3297398  88.3101865  35.9508614  82.0320315  88.4496803
  37.5775923  83.5127443  87.8795213  38.5808141  83.6109210  87.8162227
  36.7454257  84.6511054  87.5008264  35.8692902  84.6554048  88.1492609
  37.3247647  85.5591902  87.6677023  36.2888173  84.6155325  86.0539981
  35.4201682  85.4034643  85.6684254  36.8504907  83.7038555  85.2349998
  37.5993455  83.1124550  85.5660000  36.4509104  83.5986537  83.8235774
  36.3537960  84.6068207  83.4207533  37.4577072  82.8127602  82.9512995
  37.5125464  81.8509107  83.4611402  36.9774145  82.6824922  81.9815319
  38.8609615  83.3605591  82.7516604  39.2311420  83.7515574  83.6993880
  39.7780282  82.2692190  82.2668653  39.4087266  81.8780162  81.3188803
  40.7810730  82.6722458  82.1269676  39.8091184  81.4662192  83.0032926
  38.8855196  84.4994326  81.7922491  38.2565630  85.3060774  82.1688622
  39.9084210  84.8589647  81.6803983  38.5095730  84.1679516  80.8243217
  35.0693844  82.9695151  83.6405486  34.6934586  82.0321340  84.3687727
  34.3333517  83.4645722  82.6138844  34.6758321  84.2652087  82.1022325
  33.0520751  82.8968183  82.2281243  32.4884732  82.6388635  83.1247354
  32.2243814  83.8855321  81.3961760  32.8524908  84.1919738  80.5597125
  31.3635035  83.3328104  81.0200271  31.7438093  85.1233343  82.1519845
  31.1251031  84.7836921  82.9826147  32.6239817  85.6353666  82.5408567
  30.9366536  86.0890382  81.2751170  29.9425058  85.6686356  81.1233579
  30.8518098  87.0415008  81.7982956  31.5537743  86.3265405  79.9606133
  31.2674368  85.7001634  79.2218563  32.4408865  87.2836403  79.6765218
  32.8442224  88.1302103  80.6242524  32.4767325  88.0467614  81.5613156
  33.5154078  88.8510966  80.4007956  32.9317420  87.4016155  78.4453692
  32.6316052  86.7637530  77.7220785  33.6022019  88.1284816  78.2398262
  33.3531671  81.6329784  81.4162362  34.4200835  81.5090969  80.8148655
  32.4013804  80.7052836  81.4044654  31.6179564  80.8805175  82.0173596
  32.4490591  79.4360686  80.6896640  33.1307192  78.7497891  81.1921171
  31.0416324  78.7961089  80.6528989  30.7348164  78.5473170  81.6688052
  30.3125446  79.4742999  80.2095165  30.9794980  77.5143896  79.8566928
  31.6133227  76.3599937  80.3123125  32.1373120  76.3840045  81.2678012
  31.5833919  75.1867523  79.5644229  32.0800121  74.2901304  79.9352843
  30.9300975  75.1593753  78.3630991  30.9243940  74.2456670  77.7687890
  30.2783911  76.2867482  77.9026829  29.7370042  76.2511020  76.9573101
  30.3113918  77.4652800  78.6414297  29.8104135  78.3577574  78.2664567
  33.0499171  79.5301741  79.2867247  34.0285144  78.8476132  79.0242345
  32.4699906  80.3510400  78.4035472  31.6439334  80.8348171  78.7255543
  32.8868050  80.5390039  77.0111696  33.2902056  79.6143552  76.5983840
  31.6587406  80.9458804  76.1917806  31.9100128  80.7679687  75.1461665
  30.8510437  80.2773032  76.4896569  31.2090875  82.3997773  76.3683421
  32.0756989  82.9517165  76.0044072  30.3769257  82.5342137  75.6773047
  30.8156903  82.9224756  77.7442611  30.1937738  82.1700774  78.5354291
  31.0969052  84.1152334  78.0078992  34.0428764  81.5715012  76.7996532
  34.5141102  81.7524425  75.6657233  34.4727743  82.2474764  77.8849842
  33.9896150  82.0656428  78.7530816  35.4883515  83.2965867  77.8645056
  35.3358840  83.9464881  77.0028322  35.3966451  84.1384051  79.1317458
  34.3412095  84.3727175  79.2705000  35.7377853  83.5031839  79.9491915
  36.2039020  85.4261312  79.1204387  37.2374862  85.1483069  78.9139970
  35.8166964  86.0227882  78.2945020  36.1447799  86.2376042  80.4015141
  35.3798097  85.8731924  81.3270441  36.8803122  87.2481701  80.4788626
  36.9238231  82.8022813  77.6393624  37.4077919  81.8552764  78.2693441
  37.6110799  83.5078257  76.7455670  37.1183100  84.2708039  76.3038188
  38.9912818  83.2718132  76.3697884  39.1990947  82.2082909  76.2521733
  39.2712954  83.9704960  75.0489346  39.0764673  85.0378394  75.1534341
  40.3139246  83.8175757  74.7702952  38.6245431  83.5577268  74.2747044
  39.9314635  83.8220919  77.4273921  39.8318510  85.0110178  77.7799166
  40.9157204  83.0278809  77.8866493  40.9993040  81.5655225  77.9468315
  41.5967201  81.2188454  77.1036179  39.9911710  81.1584627  77.8689279
  41.6429616  81.2589607  79.2789451  42.1461285  80.2924011  79.2527786
  40.9003922  81.2599482  80.0768743  42.6441432  82.4069428  79.4612377
  43.5510899  82.2194302  78.8864457  42.9097133  82.6388592  80.4926382
  41.8754790  83.5679011  78.8498417  41.3478219  84.0692223  79.6612314
  42.7774598  84.5797700  78.1235813  42.9591854  84.4857336  76.9222250
  43.2493340  85.6119840  78.8227544  42.9733043  85.6840238  79.7916286
  44.1787729  86.6128703  78.2882528  44.0135964  86.7282461  77.2170365
  43.9704744  87.9824503  78.9699010  42.8983698  88.1368108  78.8479839
  44.2032349  87.8737593  80.0291974  44.7251847  89.1838799  78.4037410
  45.6969265  88.9813199  77.6478857  44.3854163  90.3344183  78.7845596
  45.5305361  86.0349762  78.6724296  46.0179996  86.2782780  79.7950286
  46.0917696  85.2081285  77.7616010  45.5661194  84.9954191  76.9258104
  47.3706143  84.5251673  77.9702620  47.3407384  83.9820982  78.9148690
  47.6622210  83.5282060  76.8403882  47.8598115  84.1417239  75.9613814
  48.5589831  82.9650602  77.0988155  46.5311648  82.5661379  76.5403902
  46.4310063  81.3441812  77.2037597  47.1756632  81.0878084  77.9573235
  45.3951497  80.4536754  76.9145717  45.3275935  79.5004811  77.4389368
  44.4589127  80.7774724  75.9333415  43.4157525  79.9518510  75.6166823
  43.4051056  79.1447072  76.1363026  44.5481370  81.9756376  75.2573466
  43.8155143  82.2317973  74.4920056  45.5806446  82.8603722  75.5565083
  45.6610428  83.8056575  75.0197850  48.5421483  85.4883576  78.1449352
  49.4725293  85.1828972  78.9050083  48.4980513  86.6394615  77.4438666
  47.7450089  86.7738876  76.7843546  49.5355371  87.6562555  77.5227342
  50.4994243  87.1848894  77.3308104  49.3338497  88.8029505  76.5027113
  49.1948997  88.3496817  75.5212128  48.4284869  89.3398320  76.7858663
  50.5342929  89.7993880  76.4500592  50.3891673  90.4655521  75.5996094
  50.5361264  90.3821185  77.3712127  52.1633209  88.9326202  76.2741063
  52.0208660  88.4988925  74.4665547  51.9194331  89.4120935  73.8801467
  52.9148053  87.9616802  74.1497327  51.1449502  87.8689555  74.3114668
  49.6278558  88.1966976  78.9216143  50.7260559  88.2878473  79.4501768
  48.4624603  88.5210743  79.5265261  47.6456691  88.5043829  78.9326634
  48.3097743  88.9848005  80.8950026  48.8966258  89.8911601  81.0440557
  46.8208446  89.3014363  81.2027214  46.5639103  90.2081447  80.6550317
  46.2304172  88.4680226  80.8220415  46.5244170  89.4990442  82.6697343
  46.8176053  90.7012062  83.3085912  47.2395926  91.5172592  82.7220048
  46.5814323  90.8721574  84.6709245  46.8678982  91.8032379  85.1599319
  46.0730773  89.8201386  85.4231018  45.7818558  89.9963129  86.7627550
  45.9684316  90.8852854  87.0734269  45.7644594  88.6182823  84.8021008
  45.3806075  87.7816462  85.3858801  45.9468722  88.4829679  83.4266966
  45.6350400  87.5680243  82.9229715  48.9076827  87.9780236  81.8691457
  49.7427679  88.3570193  82.6792543  48.5357114  86.7009040  81.7632396
  47.8104056  86.4646188  81.1012728  49.0341545  85.6492171  82.6515296
  48.9267766  85.9631785  83.6897962  48.2399963  84.3426590  82.4469901
  48.4153242  84.1533371  81.3879733  48.6739510  83.5351250  83.0366275
  46.7157839  84.4141490  82.7129035  46.2906730  85.2188911  82.1130937
  46.0492673  83.1115270  82.3501674  46.4735600  82.3063269  82.9499402
  44.9792143  83.1837693  82.5447658  46.2124265  82.9013003  81.2931508
  46.3985880  84.8623193  84.2000203  46.8241062  85.8493422  84.3811819
  45.3191000  84.9001979  84.3462122  46.8341465  84.1460152  84.8966523
  50.5396724  85.4107885  82.5354028  51.1782752  85.2051607  83.5572637
  51.1094963  85.4686560  81.3020001  50.4968308  85.5711883  80.5056162
  52.5475706  85.3163418  81.0578512  52.9076523  84.4302233  81.5805695
  52.8545692  85.1646170  79.5752179  52.0384658  85.6168609  79.0117023
  53.7809415  85.6988182  79.3641171  53.0065662  83.6991651  79.1644935
  53.6191037  83.2058983  79.9192030  52.0120577  83.2530882  79.1561089
  53.6542291  83.5259583  77.7898294  54.6887406  83.8680971  77.8185675
  53.6269861  82.4773482  77.4935626  52.9339697  84.3065529  76.8025420
  53.2066671  85.2708117  76.6762860  51.9245464  83.8369949  76.0872317
  51.5770516  82.5570103  76.1755772  52.0863988  81.9400120  76.7920011
  50.8052688  82.2073300  75.6258730  51.2736969  84.6356789  75.2492193
  51.5514917  85.6025721  75.1595107  50.5039235  84.2725132  74.7054746
  53.3118557  86.4869401  81.6429161  54.3287175  86.2757651  82.3145337
  52.7875940  87.7203182  81.4177736  51.9862839  87.7188045  80.8029572
  53.2710464  89.0019686  81.9210680  54.2833724  89.1825769  81.5595768
  52.3671223  90.1438914  81.4385263  51.3441216  89.7690418  81.4710324
  52.4786834  90.9566683  82.1561945  52.6730781  90.6546729  80.0465312
  52.6132274  89.7999524  79.3727570  51.9463121  91.4079614  79.7424428
  54.0521099  91.2493440  79.9476952  54.2459732  92.4246040  80.2765524
  55.0183576  90.4644203  79.4485738  55.9598097  90.8200335  79.3630837
  54.8001352  89.5212974  79.1604774  53.3552472  89.0590265  83.4297428
  54.2960562  89.6759353  83.9413822  52.3599690  88.4722371  84.1612976
  51.5980568  88.0262925  83.6706626  52.3637431  88.4275733  85.6322333
  52.2451056  89.4409091  86.0158671  51.2241270  87.5489928  86.1970142
  51.2839949  86.6667204  85.5597462  51.5300204  87.2864897  87.2097438
  49.7930069  88.0630889  86.2173004  49.4709103  88.2879194  85.2005379
  48.8839319  86.9964844  86.8132546  49.2051440  86.7714432  87.8302492
  47.8569459  87.3613632  86.8295013  48.9381197  86.0921486  86.2071682
  49.6820930  89.3582895  86.9980946  50.3153551  90.1163519  86.5372042
  48.6465922  89.6986050  86.9931203  50.0044935  89.1922326  88.0259964
  53.6739874  87.8127565  86.0833720  54.4012010  88.4265390  86.8703970
  54.0034976  86.6222488  85.5027278  53.3194301  86.2003034  84.8910800
  55.2035313  85.8563480  85.8330474  55.3922683  85.9203584  86.9046725
  55.0407664  84.3930936  85.4550669  54.8746901  84.3058369  84.3813331
  55.9181724  83.8101085  85.7350438  53.8526613  83.7404541  86.1318991
  53.6506260  83.8734586  87.5029876  54.3396333  84.4886005  88.0817529
  52.5839067  83.2325641  88.1383404  52.4525256  83.3324189  89.2157766
  51.7006941  82.4766840  87.4056068  50.8738214  81.9719505  87.9052322
  51.8595809  82.3553388  86.0339959  51.1416344  81.7800442  85.4494541
  52.9430589  82.9723786  85.4000920  53.0840007  82.8563646  84.3254869
  56.4907573  86.4492239  85.2716204  57.5222607  86.3731267  85.9396891
  56.4368627  87.0671588  84.0927142  55.5724970  87.0273854  83.5717637
  57.5921147  87.6956965  83.4667030  58.4522669  87.0273332  83.5057911
  57.2761683  88.0054687  81.9914142  57.0360516  87.0596715  81.5057076
  56.3999558  88.6536454  81.9766257  58.4129966  88.6775633  81.2520744
  58.0973270  89.6822904  80.9710460  59.2715636  88.7407069  81.9206382
  58.7899731  87.9189837  80.0337351  59.0383763  86.8922210  80.3023488
  57.9583517  87.9186102  79.3291040  59.9480128  88.5263891  79.3892130
  60.4885743  89.1967462  79.9169572  60.3337002  88.2333420  78.1592319
  59.6449885  87.3738168  77.4306288  58.8190863  86.9381151  77.8155310
  59.9473472  87.1561239  76.4918590  61.4088963  88.8146417  77.6414316
  61.9320200  89.4820157  78.1901151  61.6989042  88.5868858  76.7011543
  58.0533581  88.9338905  84.2429943  59.2591939  89.1161064  84.4489152
  57.0865708  89.7676424  84.6992027  56.1522554  89.6124329  84.3483980
  57.3371213  90.9732216  85.5134117  58.1934647  91.5271501  85.1287841
  56.0923869  91.9094472  85.5614112  55.2249727  91.3216762  85.8617748
  56.3012586  93.0521345  86.5538321  57.1682853  93.6406714  86.2538493
  55.4169815  93.6893126  86.5664344  56.4677382  92.6428088  87.5502438
  55.7764030  92.4715049  84.1322312  56.5289724  93.2301194  83.9171868
  55.8878969  91.6417432  83.4342598  54.3879891  93.0775930  83.9818639
  54.2759049  93.9077743  84.6792417  54.2577371  93.4401717  82.9622216
  53.6348290  92.3193981  84.1963172  57.8950225  90.5629112  86.8926538
  58.8133301  91.2128454  87.3869722  57.3975077  89.4488804  87.4730230
  56.5914263  89.0188639  87.0424213  57.8968214  88.8856770  88.7284822
  57.9299558  89.6588322  89.4960969  56.9629975  87.7474077  89.2120947
  56.0745181  88.3240304  89.4694075  56.7380966  87.0897087  88.3724808
  57.3954913  86.9006049  90.4265967  58.3158382  86.3798918  90.1621720
  57.6270620  87.7337676  91.6578090  56.7069642  88.2544589  91.9231382
  57.9293492  87.0882198  92.4824248  58.4128770  88.4630851  91.4611082
  56.4186374  85.8045487  90.6687295  56.3665027  85.1627564  89.7892500
  56.7378790  85.2160804  91.5288987  55.4349516  86.2307887  90.8656575
  59.3528353  88.4030973  88.5843977  60.1858054  88.7498225  89.4232490
  59.6574401  87.6412622  87.4938775  58.8834240  87.4371731  86.8779668
  60.9771990  87.0912880  87.1591689  61.3133535  86.3781268  87.9118311
  60.8412442  86.3774720  85.8510543  59.9055138  85.8257519  85.7609826
  60.8632339  87.1777326  85.1113249  61.9413867  85.4213440  85.4831093
  61.9654372  84.1289175  86.0066391  61.1989656  83.8314466  86.7222733
  62.9470324  83.2273654  85.6280635  62.9865451  82.2363119  86.0801171
  63.8757875  83.5879302  84.6758933  64.6266540  82.8655232  84.3558503
  63.8592543  84.8535907  84.1285714  64.6074254  85.1401904  83.3895174
  62.8854613  85.7648433  84.5213956  62.8572306  86.7587303  84.0747507
  62.0632702  88.1905136  87.0517935  63.1731718  88.0508258  87.5950905
  61.7008391  89.2974097  86.3951210  60.7698659  89.2767114  86.0040201
  62.5013484  90.4915641  86.2022765  63.4368183  90.2554358  85.6950894
  61.7003870  91.4712093  85.3259307  61.5327649  90.9695785  84.3728469
  60.7450071  91.6264770  85.8271704  62.3687297  92.8168779  85.0801295
  62.6355358  93.2512116  86.0435969  63.2726406  92.6517017  84.4938157
  61.4521714  93.7634892  84.3371558  62.0596677  94.4831215  83.7883601
  60.8474189  93.1892283  83.6353023  60.5579033  94.4947131  85.2384428
  60.8785133  94.6548156  86.1827286  59.3685263  94.9738931  84.8817486
  58.9032316  94.7702838  83.6524020  59.4557060  94.2492895  82.9864913
  57.9995874  95.1376097  83.3904888  58.6243625  95.6417184  85.7582500
  58.9639745  95.7854753  86.6985147  57.7229138  96.0021615  85.4797366
  62.7887721  91.1125873  87.5725257  63.9455368  91.3934223  87.8936304
  61.7246301  91.3132514  88.3720573  60.8247127  91.1599552  87.9399135
  61.7588491  91.8686911  89.7360448  62.2475657  92.8429402  89.7457370
  60.3250358  92.0353668  90.2474082  59.8672512  91.0464953  90.2732240
  60.2514287  92.6628513  91.6277076  60.7086358  93.6520072  91.6025715
  59.2084457  92.7528484  91.9313295  60.7842786  92.0348990  92.3417436
  59.6384677  92.8691273  89.3178381  58.7324387  92.9948227  89.6092356
  62.6771675  91.0488426  90.6877122  63.3943605  91.6310913  91.4952360
  62.6910502  89.7218760  90.5393449  62.0003317  89.3191923  89.9222120
  63.5350068  88.8213217  91.3122643  63.6600451  89.2055827  92.3245923
  62.8867168  87.4207287  91.3922487  62.7025212  87.1529496  90.3518327
  63.5978049  86.7184105  91.8272233  61.5596902  87.3641056  92.1808273
  60.9039297  88.1519381  91.8101534  60.8789155  86.0281742  92.0226277
  61.5339256  85.2398310  92.3935396  59.9487189  86.0242726  92.5908002
  60.6612364  85.8532331  90.9690093  61.7586386  87.6619540  93.6459825
  62.1792714  88.6609988  93.7603376  60.7994187  87.6110018  94.1611546
  62.4412043  86.9294133  94.0767807  64.9913124  88.7697289  90.8052621
  65.8326467  88.1129190  91.4404143  65.2886014  89.4881984  89.6821305
  64.4645187  89.8341551  89.2117039  66.6016631  89.6705624  89.0229823
  66.4721201  90.3176797  88.1554818  67.6580096  90.3109051  89.9671699
  67.8117758  89.5996009  90.7786509  68.5895515  90.4394422  89.4159822
  67.2597411  91.6453981  90.5623234  67.4797173  91.9123820  91.7495808
  66.6311050  92.5051317  89.7574701  66.3465282  93.4074204  90.1110106
  66.4429486  92.2493628  88.7986791  67.1341614  88.4000643  88.3595352
  68.3424399  88.2142030  88.2401959  66.2114726  87.5981046  87.8202940
  65.2551797  87.8975882  87.9464400  66.4578882  86.3475280  87.0999896
  67.4043181  85.9112300  87.4193852  65.3135428  85.3293815  87.3983423
  64.3378378  85.7114423  87.0981282  65.5458272  84.4341985  86.8214615
  65.1833692  84.8965246  88.8282765  66.2956272  84.6975521  89.6340346
  65.8220602  84.3102404  90.8053791  66.5430120  84.1229918  91.6011589
  64.4959577  84.2182096  90.7905304  63.8869837  83.9424093  91.5476200
  64.0763672  84.5729451  89.5302444  63.0150698  84.5506143  89.2827563
  66.5470082  86.5427267  85.5656751  65.8338668  87.3701308  84.9892614
  67.3679525  85.7093006  84.9078861  67.8773408  85.0385472  85.4653023
  67.5617996  85.6953696  83.4537588  67.0526258  86.5523611  83.0128430
  69.0436935  85.7675125  83.0895106  69.4217042  84.7501834  83.1907461
  69.0751490  86.0635899  82.0409646  69.9190142  86.7249676  83.9193898
  69.8532495  86.3690499  84.9475427  70.9529763  86.6640719  83.5798076
  69.4831169  88.1681292  83.8801979  69.0907430  88.6980142  82.8338697
  69.5931486  88.8514342  85.0175757  69.3157420  89.8220883  85.0488432
  69.9535179  88.3959973  85.8439004  66.9943984  84.3936298  82.8950117
  67.0103968  83.3650868  83.5757505  66.4869253  84.4274109  81.6613330
  66.3948671  85.3070610  81.1736443  65.9621256  83.2268502  81.0250429
  65.5667333  82.5482734  81.7808853  64.8228291  83.5946348  80.0468047
  65.2443133  84.4457957  79.5120380  64.6592965  82.7729268  79.3495579
  63.4953331  83.9977101  80.6765148  62.5791256  83.0286544  81.1099533
  62.8392722  81.9762018  80.9969633  61.3504528  83.3894604  81.6786037
  60.6852930  82.6247280  82.0796631  60.9840710  84.7314899  81.7377829
  59.7540996  85.0811232  82.2562189  59.2388299  84.3235801  82.5429683
  61.8583059  85.7099558  81.2656178  61.5724437  86.7613131  81.2977282
  63.1082122  85.3384355  80.7484295  63.7996313  86.1022246  80.3925278
  67.1545427  82.4734009  80.3385376  67.1306044  82.2537364  79.1301852
  68.2077665  82.1084725  81.1391347  68.1379162  82.4544531  82.0854527
  69.4391909  81.3909872  80.7440106  69.7221208  81.6852253  79.7333307
  70.5974364  81.7161258  81.6904160  71.4706662  81.1698038  81.3339034
  70.7567783  82.7854154  81.5513841  70.3850354  81.4233983  83.1678098
  69.4117472  80.6942419  83.5055346  71.2168549  81.8870143  83.9884891
  69.2972526  79.8617112  80.6007157  70.2826295  79.1869425  80.2680094
  68.0868555  79.3291429  80.8426411  67.4184721  79.9790465  81.2312131
  67.7181571  77.9063224  80.7750433  66.7161248  77.7881247  81.1874263
  67.7284100  77.3462094  79.3318447  68.7002570  77.3646993  78.8386198
  67.4134231  76.3124756  79.4742444  66.7161239  78.0667464  78.4752419
  65.3469281  77.9002132  78.6915692  65.0183354  77.1580042  79.4190664
  64.4057403  78.6613940  77.9978593  63.3414654  78.5230193  78.1883146
  64.8288502  79.6080912  77.0718958  63.9204085  80.3678306  76.3690965
  63.0091484  80.1656092  76.5933981  66.1830062  79.7863118  76.8368279
  66.5206153  80.5108020  76.0957243  67.1161776  79.0337941  77.5533126
  68.1826469  79.1964674  77.3974894  68.5172423  77.0300243  81.7526703
  68.7049922  75.8307525  81.5272236  68.9286709  77.6344975  82.8710368
  68.8640106  78.6403452  82.9357576  69.5863221  76.9197775  83.9415933
  69.9392780  75.9657124  83.5500822  70.7907360  77.6979070  84.5002789
  70.4266680  78.6497581  84.8869756  71.4980089  76.9512249  85.5942683
  71.8627902  75.9994014  85.2081773  72.3395457  77.5433971  85.9537777
  70.8058489  76.7680658  86.4161368  71.7249443  77.9086488  83.4464019
  72.4821715  78.3938103  83.7822972  68.4666679  76.6138799  84.9346906
  68.0921661  77.4792593  85.7307910  67.8542023  75.4221379  84.8046562
  68.1249466  74.8097904  84.0484635  66.7937941  74.9843413  85.7016203
  66.2024663  75.8434866  86.0183220  65.8699767  73.9867286  85.0006614
  66.5146444  73.1733403  84.6676413  65.1084729  73.5936131  85.6742133
  65.1467848  74.4905111  83.7800256  63.9470879  75.1853895  83.8984038
  63.5343871  75.3702606  84.8901702  63.2698008  75.6463383  82.7598352
  62.3571870  76.2313950  82.8736135  63.7562637  75.3608320  81.4946625
  63.2144818  75.6968429  80.6105420  64.9302580  74.6488902  81.3553744
  65.3259447  74.4340192  80.3627201  65.6191920  74.1985040  82.5027624
  66.5331320  73.6143043  82.3954104  67.4551792  74.3466154  86.9130312
  68.6820390  74.3042586  86.9744077  66.6749712  73.8754457  87.8859693
  65.6720602  73.9735556  87.8178283  67.2328571  73.2454643  89.0899696
  67.9567309  73.9159288  89.5532009  66.1300013  72.9429176  90.1026777
  65.3977640  72.3655475  89.5382563  66.5450386  72.3239229  90.8980956
  65.4600555  74.1520380  90.7049123  66.0442087  75.2541568  90.6448438
  64.3825979  73.9911381  91.2823352  67.9742862  71.9570024  88.7605978
  69.0009615  71.6476114  89.3871008  67.4277019  71.1912652  87.7983077
  66.5513123  71.4827718  87.3895726  67.9878995  69.9048219  87.3912052
  68.3208564  69.3583781  88.2736099  66.9516073  69.0593762  86.6563106
  67.4158366  68.1670642  86.2363467  66.1609198  68.7661766  87.3469244
  66.2849284  69.7716484  85.5187428  66.7632043  69.9282205  84.2527616
  67.7449301  69.5033522  84.0434745  65.8582973  70.6201321  83.4842288
  66.0110253  70.9238258  82.5331537  64.7452753  70.8859761  84.2340782
  63.5560387  71.5413321  83.8927472  63.4077794  71.8593481  82.8607668
  62.6390578  71.7432216  84.9000121  61.7061746  72.2619619  84.6792466
  62.8768902  71.2941648  86.2155386  62.1365717  71.4558833  86.9990404
  64.0465998  70.6394492  86.5530899  64.1803872  70.3111033  87.5838132
  65.0057929  70.4173226  85.5470853  69.2305784  70.0780821  86.5708107
  70.1016777  69.2069991  86.6095075  69.3252794  71.2050907  85.8470585
  68.5122181  71.8040381  85.8299499  70.4670380  71.5640720  85.0112112
  70.7309362  70.7926757  84.2877440  70.1370659  72.8589881  84.2504479
  69.7475459  73.5745020  84.9746125  71.3347854  73.4614828  83.5382029
  71.7245963  72.7466756  82.8134977  71.0309616  74.3722436  83.0221554
  72.1099523  73.6987174  84.2668569  69.0817681  72.5740970  83.3197877
  68.8601585  73.3715267  82.8333769  71.6939741  71.6439569  85.9109557
  72.7380223  71.0501306  85.6110977  71.4988541  72.2809890  87.0718981
  70.5916347  72.7158334  87.1611319  72.4742574  72.4969229  88.1295379
  73.4085884  72.8721974  87.7120527  71.9346324  73.5235935  89.1139185
  70.9731312  73.1666795  89.4830080  72.6367481  73.5988332  89.9442632
  71.7569480  74.8844756  88.4797566  72.7200251  75.1631379  88.0520526
  71.0248833  74.7686810  87.6805227  71.2092639  76.1825579  89.6004339
  72.5076670  76.1144891  90.8969620  73.4807859  76.3138485  90.4481920
  72.2995386  76.8644712  91.6600544  72.5145457  75.1246797  91.3533952
  72.9197184  71.2182861  88.8398402  74.1078218  71.0902653  89.1165620
  71.9944549  70.2798249  89.1363445  71.0218434  70.4851450  88.9575434
  72.3295547  69.0061355  89.7980162  72.9466295  69.2103778  90.6730036
  71.0721416  68.2467252  90.2502301  70.4640463  68.2066196  89.3465095
  71.3693068  67.2367710  90.5326932  70.2631901  68.8715833  91.3784960
  70.1106919  69.9288209  91.1614848  68.9289191  68.1898876  91.5117877
  69.0806097  67.1326329  91.7292764  68.3647440  68.6498890  92.3230867
  68.3731942  68.2924701  90.5797217  71.0129546  68.8222845  92.6917678
  71.9507614  69.3695188  92.5960985  70.4058528  69.2768789  93.4746296
  71.2231553  67.7848902  92.9520130  73.1973319  68.1166755  88.9141811
  73.9339934  67.2740418  89.4247095  73.1270360  68.3468373  87.5908100
  72.4000897  68.9893900  87.3101422  73.8976630  67.6702934  86.5448958
  74.2219189  66.6920656  86.8998995  73.0321634  67.4739777  85.2720206
  72.6897091  68.4531042  84.9371540  73.6566784  67.0244694  84.4999951
  71.8189509  66.5713384  85.5382889  72.2198960  65.5975437  85.8194790
  71.2957435  67.0077118  86.3891322  70.8395322  66.4026116  84.3670518
  70.4932050  67.3807438  84.0332645  71.3370425  65.8928948  83.5419628
  69.6515551  65.5759356  84.8301265  70.0481663  64.7147682  85.3678912
  69.0741365  66.1969144  85.5150150  68.7737953  65.1086907  83.7260265
  69.3085492  64.5329059  83.0915110  68.0103845  64.5690559  84.1082544
  68.4058422  65.9065253  83.2278602  75.2375500  68.4323168  86.2819047
  76.0362665  68.0277658  85.4316838  75.4757067  69.5146162  87.0567120
  74.7279565  69.7245025  87.7024029  76.6733194  70.3589656  87.0823425
  77.3971973  69.9829034  86.3593783  76.3346709  71.8230841  86.7257825
  75.5177851  72.1204013  87.3833532  77.2217296  72.4114952  86.9603022
  75.9305044  72.0674637  85.2660507  76.8369406  71.9623830  84.6698692
  75.2068193  71.3110325  84.9624163  75.3327817  73.4462794  85.0053499
  75.1480485  74.2747386  85.9111810  74.9806999  73.7161624  83.7523202
  74.5799532  74.6152318  83.5260953  75.1155434  73.0209194  83.0322120
  77.1801826  70.2978656  88.5262004  76.5285523  70.2069733  89.2786892
  78.1600051  70.3486333  88.7197374  74.7217623  53.3922768  62.5951878
  75.0255284  54.7746238  63.1601835  76.3160020  55.3155078  62.5541213
  77.4592349  54.3611274  62.6744930  77.1334269  53.0458524  62.9289688
  75.9169894  52.4512314  62.6926077  71.3663345  52.2652201  63.6534075
  72.0992106  51.8456068  64.7467296  73.5477868  52.1579743  64.5307517
  73.5372115  52.8186711  63.2263032  72.2912864  52.8634141  62.6738343
  69.3676048  51.4977111  64.6497125  70.0975395  51.0728367  65.7594562
  71.4798086  51.2339533  65.8355460  69.9908584  52.1026984  63.5763793
  72.0256277  53.3217229  61.5660724  72.1946265  50.8169832  66.9231311
  75.8321041  51.2523130  62.5454674  78.6209575  54.7007847  62.5608687
  76.1679463  55.5186290  61.6173149  76.5493442  56.1490171  62.9920514
  74.2916396  55.3785792  62.9684699  75.1084715  54.7267664  64.1252654
  71.7917977  50.4421591  67.5840364  73.0470337  50.9299505  66.9462493
  73.9006434  52.7358933  65.2254696  74.0927495  51.3559856  64.5251895
  77.7494144  52.5501823  63.2676775  69.4890783  52.4009552  62.8020450
  69.6299965  50.6529587  66.4988932  68.4067341  51.3666903  64.6314647
  74.5343822  53.5045715  61.6503727  44.7099843  58.7365863  92.3790165
  43.3448747  50.7082739  95.0119477  63.5218062  78.9469631  68.2168066
  32.2426336  60.6752855  75.1370264  77.5192830  69.7968256  71.8644907
  35.2374131  66.3122194  60.9192954  76.4950331  46.8173305  40.0334274
  77.0995479  47.3534492  40.5466236  75.6731727  47.3079569  40.0413703
  86.2308210  50.9452134  42.7480454  86.8353359  51.4813321  43.2612417
  85.4089607  51.4358398  42.7559883  70.8675995  56.1742059  32.6721104
  71.4721143  56.7103245  33.1853067  70.0457391  56.6648323  32.6800534
  85.5363386  59.0447934  23.9808560  86.1408535  59.5809121  24.4940523
  84.7144783  59.5354198  23.9887990  88.1545738  52.0000832  22.3248477
  88.7590887  52.5362019  22.8380440  87.3327135  52.4907096  22.3327907
  54.0875925  47.1052001  61.4532131  54.6921073  47.6413188  61.9664094
  53.2657321  47.5958265  61.4611560  61.4763083  57.9136754  61.5557398
  62.0808232  58.4497941  62.0689360  60.6544480  58.4043018  61.5636827
  55.6866208  43.7012051  73.4102555  56.2911356  44.2373237  73.9234518
  54.8647604  44.1918315  73.4181984  62.9399895  60.7318630  68.2222035
  63.5445043  61.2679817  68.7353998  62.1181291  61.2224894  68.2301465
  68.0962353  59.2708273  71.9691710  68.7007502  59.8069460  72.4823673
  67.2743750  59.7614537  71.9771140  50.9357712  61.5540475  74.0615120
  51.5402861  62.0901662  74.5747083  50.1139109  62.0446739  74.0694549
  38.6438917  58.0014536  67.3648849  39.2484065  58.5375723  67.8780812
  37.8220313  58.4920800  67.3728278  57.0534844  75.1281744  65.0278232
  57.6579992  75.6642931  65.5410195  56.2316240  75.6188008  65.0357662
  64.0691945  62.4542596  70.1622787  64.6737094  62.9903783  70.6754750
  63.2473342  62.9448860  70.1702217  56.0728101  60.6828662  91.5319734
  56.6773249  61.2189849  92.0451697  55.2509497  61.1734926  91.5399164
  60.0593925  59.7376932  89.0991840  60.6639074  60.2738119  89.6123803
  59.2375322  60.2283196  89.1071270  59.8961124  64.1234396  94.9701966
  60.5006273  64.6595583  95.4833929  59.0742521  64.6140660  94.9781396
  57.9832772  71.8999817  96.3998029  58.5877920  72.4361004  96.9129992
  57.1614168  72.3906082  96.4077458  65.7965985  72.5127413  93.9010966
  66.4011133  73.0488600  94.4142929  64.9747381  73.0033677  93.9090395
  63.5542382  79.7840119  95.4558703  64.1587530  80.3201305  95.9690666
  62.7323778  80.2746383  95.4638133  59.6626882  73.8904012  95.8655452
  60.2672030  74.4265199  96.3787415  58.8408278  74.3810276  95.8734882
  59.0762933  77.6903955  94.1738215  59.6808082  78.2265142  94.6870178
  58.2544329  78.1810219  94.1817645  64.7971335  81.2625722  92.5442008
  65.4016483  81.7986909  93.0573970  63.9752731  81.7531986  92.5521437
  66.3401857  77.5817793  87.8030617  66.9447005  78.1178980  88.3162580
  65.5183253  78.0724057  87.8110047  57.8973533  83.5325390  83.4666532
  58.5018681  84.0686577  83.9798494  57.0754929  84.0231654  83.4745961
  61.3509094  78.8030131  79.7118483  61.9554242  79.3391317  80.2250446
  60.5290490  79.2936395  79.7197913  56.7087179  81.2161653  76.3082221
  57.3132327  81.7522839  76.8214184  55.8868575  81.7067917  76.3161651
  55.6883907  83.9348116  81.8845201  56.2929056  84.4709303  82.3977164
  54.8665303  84.4254380  81.8924630  57.1314931  85.9887402  77.9941976
  57.7360079  86.5248589  78.5073939  56.3096327  86.4793666  78.0021406
  60.7487893  80.8920301  78.2014817  61.3533042  81.4281488  78.7146780
  59.9269290  81.3826565  78.2094247  58.6079694  78.4312788  73.7535425
  59.2124842  78.9673975  74.2667388  57.7861090  78.9219052  73.7614855
  47.3662049  78.5353817  66.1890947  47.9707197  79.0715004  66.7022910
  46.5443445  79.0260081  66.1970377  66.2691687  73.5596865  73.9906827
  66.8736835  74.0958051  74.5038790  65.4473083  74.0503129  73.9986257
  64.3123124  65.5558210  68.1596514  64.9168272  66.0919397  68.6728477
  63.4904520  66.0464474  68.1675943  41.8278265  80.3682725  73.1371450
  42.4323414  80.9043912  73.6503413  41.0059661  80.8588989  73.1450880
  29.4833157  80.8868725  71.4447811  30.0878305  81.4229912  71.9579774
  28.6614553  81.3774989  71.4527241  36.2713783  78.4594037  76.9370368
  36.8758932  78.9955224  77.4502331  35.4495180  78.9500301  76.9449797
  22.6791308  70.4098110  82.5971215  23.2836457  70.9459297  83.1103178
  21.8572704  70.9004374  82.6050645  36.8836623  79.6232154  79.2899067
  37.4881771  80.1593341  79.8031029  36.0618019  80.1138418  79.2978496
  41.6817664  76.8249759  95.8154332  42.2862813  77.3610946  96.3286295
  40.8599061  77.3156023  95.8233762  53.5561251  90.8398778  88.0697317
  54.1606400  91.3759965  88.5829279  52.7342648  91.3305042  88.0776746
  56.3400927  92.0063477  90.7695151  56.9446076  92.5424663  91.2827114
  55.5182324  92.4969741  90.7774580  44.3079710  88.3950519  93.4096276
  44.9124858  88.9311706  93.9228238  43.4861106  88.8856783  93.4175705
  38.4372973  86.9814560  85.5877176  39.0418121  87.5175747  86.1009139
  37.6154369  87.4720824  85.5956606  38.3699678  88.4280715  83.3052789
  38.9744826  88.9641902  83.8184752  37.5481074  88.9186979  83.3132219
  45.8735617  86.9564179  74.9593791  46.4780765  87.4925365  75.4725754
  45.0517013  87.4470443  74.9673221  55.1284375  87.7883054  78.1920928
  55.7329523  88.3244241  78.7052891  54.3065771  88.2789318  78.2000358
  61.2543526  90.8537667  81.3093072  61.8588674  91.3898854  81.8225035
  60.4324922  91.3443931  81.3172502  63.2096652  90.9558547  79.3731710
  63.8141800  91.4919734  79.8863673  62.3878048  91.4464811  79.3811139
  59.5183802  92.7107588  81.9308966  60.1228950  93.2468774  82.4440929
  58.6965198  93.2013852  81.9388396  58.7184138  95.5429232  88.6659369
  59.3229286  96.0790419  89.1791332  57.8965534  96.0335496  88.6738798
  55.7411611  96.7517849  85.3145877  56.3456759  97.2879036  85.8277840
  54.9193007  97.2424113  85.3225307  64.6933018  93.9892714  90.7283995
  65.2978166  94.5253900  91.2415958  63.8714414  94.4798978  90.7363425
  68.6871864  55.7775242 132.4485158  68.0133563  56.0806939 133.0570116
  69.0737686  56.5804322 132.0990615  70.7779334  47.5683455 130.9832598
  70.1608505  46.8430283 130.8865651  70.3095822  48.3292815 130.6399672
  72.6528605  53.3560726 133.7224981  73.3479509  53.9767418 133.9412296
  72.9951755  52.5056077 133.9977359  66.7443473  53.4622477 132.6300075
  66.1717440  54.0812664 132.1770547  67.3176267  54.0121839 133.1639997
  69.9640733  53.7459627 133.7608657  70.8971406  53.6805189 133.9641533
  69.8763946  54.5815894 133.3023190  72.5928750  53.0625498 130.7212605
  72.5142381  52.7285361 131.6148362  73.4138416  53.5547266 130.7204077
  70.1632701  50.3793493 130.3422583  70.8668552  50.5843496 130.9580238
  69.4395350  50.9470255 130.6071666  72.0719399  50.8176022 132.3921043
  72.9065003  50.3857221 132.2098518  71.9103742  50.6458036 133.3197937
  73.5333254  57.2713570 132.9055996  72.6970566  57.6088256 133.2265270
  73.3938024  57.1362549 131.9683132  73.4071634  57.1160797 130.1053902
  72.5301101  56.9949598 129.7416149  73.8829388  56.3246875 129.8532791
  71.1090103  58.0559800 133.6635558  70.4159348  58.1304155 133.0075594
  70.8641855  57.2920143 134.1857075  76.1526943  58.0525184 129.9071012
  75.2458399  57.7558297 129.9833726  76.4302924  57.7555002 129.0405299
  74.9225728  54.9112119 130.0482992  75.7844892  55.2367018 130.3078809
  75.1076072  54.1243615 129.5356057  75.8755171  52.1508162 133.3362701
  75.8633841  53.0950002 133.4930972  76.7678593  51.9678308 133.0422162
  68.6871865  32.7837365 119.1730465  68.0133564  33.0869061 119.7815422
  69.0737687  33.5866445 118.8235922  70.7779335  24.5745578 117.7077905
  70.1608506  23.8492406 117.6110957  70.3095824  25.3354938 117.3644979
  72.6528606  30.3622848 120.4470288  73.3479511  30.9829541 120.6657602
  72.9951756  29.5118199 120.7222666  66.7443474  30.4684600 119.3545381
  66.1717442  31.0874787 118.9015853  67.3176268  31.0183962 119.8885303
  69.9640734  30.7521750 120.4853964  70.8971407  30.6867312 120.6886839
  69.8763947  31.5878017 120.0268496  72.5928751  30.0687620 117.4457911
  72.5142382  29.7347484 118.3393669  73.4138418  30.5609388 117.4449384
  70.1632703  27.3855616 117.0667890  70.8668553  27.5905618 117.6825545
  69.4395351  27.9532378 117.3316973  72.0719400  27.8238145 119.1166350
  72.9065004  27.3919343 118.9343824  71.9103743  27.6520159 120.0443244
  80.7003675  38.3407796 129.2121526  81.3382085  38.2214543 128.5084866
  80.5824518  39.2888640 129.2709478  77.5093382  38.2935224 129.1483051
  77.1711893  38.1776289 128.2603586  78.3783150  37.8926389 129.1284057
  73.3680197  40.1470701 125.1379942  72.8045062  40.0560637 124.3696230
  73.2532592  39.3270605 125.6182434  78.9479756  43.8141668 120.4494407
  78.2967736  44.3995749 120.0628421  79.7424119  44.3447863 120.5089444
  72.8735383  40.9030805 120.8481541  73.6466259  40.3559792 120.7094417
  73.2260782  41.7675055 121.0596003  75.2101661  37.0623472 118.4799991
  75.4627182  36.5404993 117.7183454  74.2726220  36.8989617 118.5826675
  80.2544944  36.0659250 126.2874734  81.0408033  35.6478673 125.9365151
  80.5183648  36.9705342 126.4556383  80.4255021  41.5032100 120.9863391
  79.7900854  41.5766727 121.6984296  80.0952427  42.0925699 120.3082470
  74.9297950  38.9651577 120.6824366  74.8134208  38.2896481 121.3505450
  75.0400210  38.4783951 119.8656519  77.2729491  38.4261725 124.3871055
  76.9087698  37.8992346 125.0983977  78.1296606  38.0360194 124.2137541
  76.9134978  33.4551624 119.3832404  77.0809380  34.3231861 119.7502875
  76.7232147  33.6178906 118.4593693  79.6710311  41.9168603 131.0498234
  79.3711034  42.8193642 130.9414041  79.3261370  41.6500786 131.9019387
  76.8924198  35.9109282 120.3679071  76.7723824  36.3566333 121.2064551
  76.1976787  36.2594599 119.8092609  74.6531091  48.6812924 124.0169202
  74.5755120  49.6320749 124.0957682  74.0492734  48.3358796 124.6744128
  82.5909265  36.3830755 121.1959405  83.5027121  36.6158142 121.0207102
  82.0818912  36.9667799 120.6334483  81.1978847  41.3656573 128.5872986
  80.5687709  41.5302288 127.8849054  80.8104509  41.7798183 129.3583950
  85.0768079  42.3011011 125.9417350  84.3919117  42.6809913 125.3914383
  85.1611928  42.9106338 126.6749298  76.7506809  41.1030981 125.8523071
  77.2145154  41.3818684 125.0627694  76.4863607  40.2014426 125.6696162
  75.6875695  37.2254134 122.6612636  76.3899738  37.6775178 123.1286563
  75.3556323  36.5837953 123.2892530  83.4464838  42.8242926 130.7135051
  84.2682282  42.4223113 130.4317732  83.4427241  42.7211160 131.6651167
  76.9269459  44.0395076 122.7374742  76.7915134  44.8846612 123.1659589
  77.4679272  44.2414354 121.9740675  70.3798857  41.5570515 123.3102667
  70.8923377  42.3513765 123.4608231  71.0321570  40.8596805 123.2436268
  72.1893742  44.6736271 125.3925420  72.3660370  45.5954235 125.2046404
  72.9850575  44.3594690 125.8219800  73.3125057  46.1914445 131.3935762
  73.8632482  46.0631508 130.6212756  72.4736533  46.4909334 131.0430655
  68.3447774  39.8859169 124.0862237  69.1822996  40.2956177 123.8695945
  68.5226041  38.9458611 124.0562431  80.2412206  37.5534249 119.7746070
  79.7258829  38.3238854 120.0134458  79.9689514  36.8799386 120.3979132
  77.8259317  32.3983950 124.8331309  76.9700913  32.0090801 124.6536947
  78.2386269  32.4775911 123.9731094  85.2146480  40.3066604 121.7099244
  84.4375923  39.9677764 121.2654406  85.8937961  40.3119227 121.0354209
  80.0298509  35.4261342 121.6005851  79.7248644  35.7407491 122.4515995
  80.9828951  35.5042761 121.6433184  78.4744941  41.5851565 123.2498805
  77.9466302  40.8504324 122.9372043  77.9732443  42.3626241 123.0038774
  83.4537787  39.7800585 128.3665852  82.7961461  40.4699847 128.4545980
  84.2578186  40.1697017 128.7099838  82.2643246  38.1344958 126.4169793
  82.7775127  38.7674950 126.9191503  82.9144469  37.5346154 126.0513153
  73.5333255  34.2775692 119.6301302  72.6970568  34.6150379 119.9510577
  73.3938025  34.1424672 118.6928439  76.6197541  39.4031775 116.2533778
  75.7124603  39.1721029 116.4524927  77.1168573  38.6069394 116.4407760
  79.5265620  48.1129282 119.1730465  78.8527319  48.4160979 119.7815422
  79.9131442  48.9158363 118.8235922  79.5259124  37.0085829 123.7930814
  80.2730943  37.5207226 123.4837936  79.7950714  36.6869882 124.6535208
  77.7985774  39.5044370 120.7757769  76.8896994  39.2203403 120.8730238
  77.8280858  39.9243449 119.9161075  83.0305042  43.1150960 124.5448936
  82.5767369  42.2741869 124.6014127  82.3999008  43.7512358 124.8823716
  81.9737961  34.0442946 125.7749604  81.2360718  33.5320332 126.1059846
  82.2264735  33.6043327 124.9632880  81.4737981  44.9527456 125.4798754
  81.7660955  45.5132513 124.7611120  81.9836602  45.2456017 126.2351913
  76.3470668  37.1172991 126.8767564  76.4019278  36.1646827 126.8010040
  75.5361870  37.2732430 127.3608862  77.4961862  41.0453114 118.1145847
  77.0581292  40.3288973 117.6551484  78.2372303  41.2729228 117.5530938
  74.2863028  35.7350050 124.6357943  73.4730894  36.0344221 125.0423135
  74.7822023  35.3405739 125.3532425  76.4371606  45.7307807 126.5692207
  76.3947785  45.9568654 125.6400739  77.3534305  45.4971182 126.7178009
  85.6134977  39.3210311 124.1722166  85.4752876  39.5111907 123.2443355
  85.2571196  40.0829694 124.6290217  74.5537407  42.6070836 126.3654170
  75.3478005  42.1121156 126.1636745  73.8429099  42.0788699 126.0021876
  79.3732251  44.9888932 130.7166538  79.4269274  45.5579868 131.4844254
  78.5047033  45.1590817 130.3520575  70.8620170  36.7513918 122.4413923
  69.9317759  36.6898374 122.6583885  70.9577642  36.2289871 121.6450564
  77.1308683  43.1799858 130.0452007  76.9919769  42.8118643 130.9177945
  76.3423279  43.6947498 129.8735965  77.7256835  48.2808955 121.3877544
  77.9008591  47.8096998 122.2023166  77.0389623  48.9074721 121.6158804
  78.6813898  42.5581461 127.4340845  78.3463731  42.5182231 128.3298495
  78.1817844  41.8926177 126.9611255  81.6173090  39.9037495 117.7077905
  81.0002260  39.1784323 117.6110957  81.1489578  40.6646856 117.3644979
  72.2917920  51.4298318 128.1617404  72.5314518  52.0616842 128.8396422
  71.4487117  51.0786358 128.4482763  73.4071636  34.1222920 116.8299209
  72.5301102  34.0011720 116.4661456  73.8829389  33.3308998 116.5778098
  76.8045782  47.2377440 130.5658908  76.7315954  48.0432411 131.0778212
  76.3623175  47.4369406 129.7406929  76.5935562  46.4749210 124.0761729
  75.8103084  47.0170890 124.1699954  77.2928307  46.9923190 124.4755971
  79.9032212  32.2843839 126.7195935  80.4000911  31.5313802 126.3997005
  79.1319193  32.3208156 126.1539144  79.2644466  47.1364274 132.7217067
  79.9772438  47.7711739 132.6492968  78.7734494  47.2328140 131.9057068
  80.9861993  41.0415527 124.2934358  80.0518271  41.1616989 124.1239063
  81.1638661  40.1387993 124.0294368  84.3734544  36.8832846 124.8284392
  84.8394996  37.7160838 124.7544695  84.8242044  36.4177828 125.5329651
  82.4410775  43.2276667 121.8270544  82.7170619  43.1133262 122.7364418
  81.5715274  42.8294152 121.7882717  79.0764839  47.4763018 125.4703358
  79.2587234  46.6584674 125.9331110  79.8997825  47.6930710 125.0328248
  79.4107005  46.4031203 122.7318407  79.9394771  45.8923658 122.1188569
  79.6735224  46.0873733 123.5963940  72.7662752  47.4546320 125.4916182
  72.0973128  47.9392448 125.0080222  72.6275622  47.7015540 126.4059561
  76.9068021  49.4890063 132.0898841  77.4586329  49.6521685 132.8547926
  77.2474214  50.0794501 131.4178866  68.1350330  35.7164775 122.2712115
  68.4303771  34.8075453 122.2179168  67.2338365  35.6952514 121.9493117
  80.0436408  47.4372039 129.0762523  79.9187548  46.6361779 128.5673468
  80.7015499  47.9318232 128.5876493  82.1071317  45.2381059 130.7042073
  81.1601652  45.1186410 130.6320400  82.4554090  44.3503557 130.7868334
  69.8638171  33.3978873 122.3951440  69.5350877  32.5176251 122.2126546
  70.2177542  33.3426541 123.2827829  79.1117750  45.0333775 126.9046425
  78.9642712  44.1050483 127.0853995  79.9371243  45.0553866 126.4203501
  72.9779994  33.6851842 122.7626917  73.3176067  34.2137764 122.0405526
  73.4252115  34.0232248 123.5385484  82.7151872  45.8562334 127.9911298
  83.6398419  45.6505195 127.8535749  82.5467175  45.6078735 128.9000640
  74.9648141  32.1826464 120.9620210  75.6856504  32.5607717 120.4583927
  74.3413446  32.9015341 121.0655188  79.1079264  32.8871613 121.8978543
  79.3242879  33.7696251 121.5967371  78.6273331  32.4957826 121.1684185
  82.5047188  46.3748001 123.3473389  82.6784066  45.8094424 122.5947242
  82.9976079  47.1748896 123.1652879  75.1111764  31.7174254 123.7917747
  75.2327676  30.7890901 123.9908634  74.8213807  31.7312940 122.8796062
  88.3586579  39.1384424 124.9663689  88.8017725  38.3891750 124.5682813
  87.4813090  39.1294561 124.5837421  83.4922361  45.6914766 120.4470288
  84.1873265  46.3121458 120.6657602  83.8345511  44.8410117 120.7222666
  85.3913784  43.1414471 121.9757619  85.9165108  43.4801744 121.2506939
  85.3036136  42.2061487 121.7920753  77.0754444  49.2086455 126.3352872
  76.6359435  48.7162833 127.0285728  77.8262561  48.6659422 126.0944947
  69.5546783  45.3997995 126.3377500  70.3804803  45.1001767 125.9576143
  69.2040835  44.6305618 126.7867288  74.5228317  44.7524464 128.4075173
  73.9008326  44.0895169 128.1077401  75.1933183  44.7785596 127.7248821
  67.7555388  43.3184322 127.2966433  66.9187297  42.8906496 127.1150435
  67.7279034  43.5116765 128.2337225  74.0841823  43.3028387 121.8833634
  74.2329944  43.9863851 121.2300307  74.8908267  43.2833477 122.3983090
  71.8394456  39.3293565 122.8894703  71.5940498  38.4255895 123.0874913
  72.0090371  39.3310715 121.9474181  71.1090104  35.0621922 120.3880864
  70.4159349  35.1366277 119.7320900  70.8641856  34.2982266 120.9102381
  77.5837229  45.7976517 119.3545381  77.0111196  46.4166705 118.9015853
  78.1570023  46.3475879 119.8885303  80.8034489  46.0813668 120.4853964
  81.7365162  46.0159229 120.6886839  80.7157702  46.9169934 120.0268496
  83.4322505  45.3979538 117.4457911  83.3536137  45.0639402 118.3393669
  84.2532172  45.8901306 117.4449384  77.9684027  37.1337330 116.6961434
  78.9143132  37.0043538 116.7649852  77.5898272  36.3951992 117.1730862
  76.1526945  35.0587307 116.6316319  75.2458400  34.7620419 116.7079033
  76.4302926  34.7617125 115.7650605  77.7689010  29.6024196 122.7860560
  76.9589739  29.2571281 123.1615806  78.4573427  29.2931740 123.3748172
  74.9225729  31.9174242 116.7728298  75.7844893  32.2429140 117.0324116
  75.1076073  31.1305738 116.2601364  83.0758366  30.7902768 123.9163521
  82.4957035  31.4487572 123.5341574  82.8094298  29.9680113 123.5050939
  81.8583244  32.9502859 122.9719870  80.9709099  33.2352509 122.7540064
  82.2737233  32.7896622 122.1247146  69.8667494  47.5310610 128.0591314
  69.7321962  46.7711011 127.4929312  69.4499556  48.2551510 127.5920103
  81.0026457  42.7147533 117.0667890  81.7062307  42.9197536 117.6825545
  80.2789106  43.2824295 117.3316973  81.8324267  38.4657395 123.1870160
  81.7759469  38.9225946 122.3477792  82.3852610  37.7048079 123.0093002
  85.6429073  34.2547127 124.0120279  85.3866008  33.8543762 124.8428487
  85.0181941  34.9690920 123.8870418  73.0236620  48.4279927 128.2709757
  72.9069004  49.3725359 128.1688447  72.2029066  48.1253488 128.6595556
  82.9113155  43.1530063 119.1166350  83.7458759  42.7211261 118.9343824
  82.7497498  42.9812076 120.0443244  82.5659047  39.6562176 120.4822689
  82.5107851  39.4906447 119.5411133  81.9405102  40.3638209 120.6384879
  75.8755172  29.1570285 120.0608007  75.8633842  30.1012125 120.2176278
  76.7678594  28.9740430 119.7667468  74.0491134  49.0808189 131.4865685
  74.9518381  49.1131799 131.8032180  73.8228504  48.1508640 131.5012021
  75.8044736  47.8339175 128.1475764  74.8540367  47.8341037 128.0340136
  76.1077222  47.0871910 127.6311799  88.3487136  53.6227142 129.1483051
  88.0105648  53.5068206 128.2603586  89.2176904  53.2218307 129.1284057
  84.2073952  55.4762618 125.1379942  83.6438817  55.3852555 124.3696230
  84.0926347  54.6562523 125.6182434  81.7538384  56.9713810 127.9764162
  82.5459676  56.6304634 127.5610462  81.9935034  57.0808785 128.8966316
  89.7873510  59.1433586 120.4494407  89.1361490  59.7287666 120.0628421
  90.5817873  59.6739781 120.5089444  83.7129138  56.2322723 120.8481541
  84.4860014  55.6851710 120.7094417  84.0654536  57.0966972 121.0596003
  86.0495415  52.3915389 118.4799991  86.3020936  51.8696910 117.7183454
  85.1119974  52.2281535 118.5826675  91.0938698  51.3951168 126.2874734
  91.8801787  50.9770591 125.9365151  91.3577403  52.2997260 126.4556383
  91.2648776  56.8324018 120.9863391  90.6294609  56.9058644 121.6984296
  90.9346182  57.4217617 120.3082470  85.7691704  54.2943495 120.6824366
  85.6527962  53.6188399 121.3505450  85.8793964  53.8075869 119.8656519
  88.1123245  53.7553642 124.3871055  87.7481452  53.2284263 125.0983977
  88.9690361  53.3652111 124.2137541  87.7528732  48.7843542 119.3832404
  87.9203134  49.6523778 119.7502875  87.5625901  48.9470824 118.4593693
  83.9616547  53.6974318 127.0834939  83.0367043  53.5650532 127.2912630
  84.2100960  54.4768537 127.5804881  87.7317953  51.2401199 120.3679071
  87.6117578  51.6858250 121.2064551  87.0370541  51.5886517 119.8092609
  81.3225358  53.3407591 127.9178728  81.4517739  53.5942070 128.8318139
  80.6422809  53.9335299 127.5983383  85.4924845  64.0104841 124.0169202
  85.4148875  64.9612666 124.0957682  84.8886489  63.6650714 124.6744128
  93.4303019  51.7122673 121.1959405  94.3420875  51.9450059 121.0207102
  92.9212666  52.2959717 120.6334483  87.5900563  56.4322899 125.8523071
  88.0538909  56.7110602 125.0627694  87.3257361  55.5306344 125.6696162
  84.4824644  55.9794381 128.7902835  85.0526001  56.4081649 128.1520319
  85.0732756  55.6976965 129.4887020  86.5269449  52.5546052 122.6612636
  87.2293493  53.0067095 123.1286563  86.1950078  51.9129870 123.2892530
  80.2694783  50.8129604 127.9629770  79.4793837  51.0687133 127.4869881
  80.7606031  51.6277942 128.0681811  82.2209529  51.1774183 124.9213247
  81.4240692  51.2892878 125.4396742  81.9935121  51.5160836 124.0554137
  78.5532486  51.0660095 130.3944761  78.8040525  51.9507105 130.6602337
  79.0892035  50.8864696 129.6219853  87.7663214  59.3686994 122.7374742
  87.6308889  60.2138530 123.1659589  88.3073026  59.5706272 121.9740675
  81.2192611  56.8862432 123.3102667  81.7317132  57.6805682 123.4608231
  81.8715324  56.1888723 123.2436268  83.0287496  60.0028188 125.3925420
  83.2054124  60.9246153 125.2046404  83.8244330  59.6886608 125.8219800
  79.1841528  55.2151086 124.0862237  80.0216750  55.6248095 123.8695945
  79.3619796  54.2750529 124.0562431  91.0805960  52.8826167 119.7746070
  90.5652584  53.6530772 120.0134458  90.8083269  52.2091303 120.3979132
  88.6653071  47.7275868 124.8331309  87.8094668  47.3382718 124.6536947
  89.0780023  47.8067829 123.9731094  86.4395104  45.3460941 128.2389050
  87.3048101  45.1503750 127.8794940  86.5072613  45.1171293 129.1658407
  96.0540234  55.6358522 121.7099244  95.2769677  55.2969681 121.2654406
  96.7331715  55.6411145 121.0354209  90.8692263  50.7553259 121.6005851
  90.5642399  51.0699408 122.4515995  91.8222706  50.8334679 121.6433184
  89.3138695  56.9143483 123.2498805  88.7860057  56.1796242 122.9372043
  88.8126198  57.6918159 123.0038774  84.0457423  47.5763149 125.6105417
  84.6201175  47.3538330 124.8778610  84.6328405  47.6451843 126.3634018
  93.1037000  53.4636876 126.4169793  93.6168882  54.0966868 126.9191503
  93.7538224  52.8638071 126.0513153  84.3727010  49.6067610 119.6301302
  83.5364322  49.9442296 119.9510577  84.2331780  49.4716590 118.6928439
  86.3480091  44.4504398 124.3380486  85.6944503  44.1353415 123.7137101
  86.3060565  43.8280138 125.0640309  87.4591295  54.7323693 116.2533778
  86.5518357  54.5012946 116.4524927  87.9562327  53.9361312 116.4407760
  90.3659374  63.4421200 119.1730465  89.6921073  63.7452897 119.7815422
  90.7525196  64.2450280 118.8235922  89.5817831  50.9386331 128.6628134
  88.6640392  51.1601278 128.5049822  89.9977975  51.0132642 127.8039841
  90.3652879  52.3377747 123.7930814  91.1124698  52.8499144 123.4837936
  90.6344468  52.0161800 124.6535208  88.6379529  54.8336288 120.7757769
  87.7290748  54.5495320 120.8730238  88.6674613  55.2535366 119.9161075
  92.8131716  49.3734863 125.7749604  92.0754473  48.8612249 126.1059846
  93.0658489  48.9335245 124.9632880  79.2067699  52.5541802 124.7572971
  79.0092099  51.9611163 124.0324037  78.6514363  52.2494012 125.4748909
  87.1864423  52.4464908 126.8767564  87.2413033  51.4938745 126.8010040
  86.3755625  52.6024347 127.3608862  88.3355617  56.3745031 118.1145847
  87.8975047  55.6580890 117.6551484  89.0766058  56.6021146 117.5530938
  85.1256783  51.0641968 124.6357943  84.3124648  51.3636139 125.0423135
  85.6215777  50.6697657 125.3532425  96.4528731  54.6502228 124.1722166
  96.3146630  54.8403824 123.2443355  96.0964950  55.4121611 124.6290217
  84.6170858  48.6360324 130.2519178  85.2570237  48.4949083 129.5542141
  83.7848388  48.3494837 129.8757780  85.3931161  57.9362754 126.3654170
  86.1871760  57.4413074 126.1636745  84.6822854  57.4080617 126.0021876
  81.7013925  52.0805836 122.4413923  80.7711513  52.0190291 122.6583885
  81.7971397  51.5581788 121.6450564  81.6199474  48.6060649 125.0292164
  81.8806291  49.5205982 124.9201325  82.4416646  48.1385091 125.1788777
  83.0924399  50.0198406 132.1990989  83.7647453  49.8115768 131.5503638
  82.2654186  49.8220492 131.7596221  88.5650589  63.6100872 121.3877544
  88.7402345  63.1388916 122.2023166  87.8783377  64.2366639 121.6158804
  92.4566844  55.2329413 117.7077905  91.8396015  54.5076241 117.6110957
  91.9883333  55.9938773 117.3644979  84.2465390  49.4514837 116.8299209
  83.3694857  49.3303638 116.4661456  84.7223143  48.6600916 116.5778098
  75.7667530  54.2391997 126.9240716  76.4538570  53.9253727 126.3361731
  75.6115659  55.1433362 126.6507968  80.5702252  49.1282194 131.3525740
  80.4860441  48.5207863 130.6176150  79.7484959  49.6191212 131.3535236
  87.4329316  61.8041128 124.0761729  86.6496838  62.3462808 124.1699954
  88.1322061  62.3215107 124.4755971  90.7425966  47.6135757 126.7195935
  91.2394666  46.8605719 126.3997005  89.9712948  47.6500074 126.1539144
  91.8255747  56.3707444 124.2934358  90.8912026  56.4908907 124.1239063
  92.0032415  55.4679911 124.0294368  87.3260935  49.7553140 126.4467619
  86.9558723  49.2024180 127.1348525  87.8220028  49.1511274 125.8942619
  95.2128298  52.2124764 124.8284392  95.6788751  53.0452755 124.7544695
  95.6635799  51.7469745 125.5329651  93.2804529  58.5568585 121.8270544
  93.5564373  58.4425179 122.7364418  92.4109028  58.1586070 121.7882717
  90.2500759  61.7323121 122.7318407  90.7788525  61.2215575 122.1188569
  90.5128979  61.4165651 123.5963940  75.3435506  52.3192590 129.1958183
  75.3819606  51.7856181 129.9895301  74.8375799  51.7927796 128.5769160
  82.7226269  47.1657131 132.6920726  82.7867595  48.0271962 132.2798123
  82.6593389  46.5531133 131.9593084  78.9744084  51.0456693 122.2712115
  79.2697525  50.1367371 122.2179168  78.0732120  51.0244432 121.9493117
  82.5038331  49.1212689 128.2539663  81.7824917  49.7348657 128.1147137
  83.2931587  49.6570454 128.1756309  80.7031926  48.7270790 122.3951440
  80.3744632  47.8468169 122.2126546  81.0571296  48.6718459 123.2827829
  83.8173749  49.0143760 122.7626917  84.1569821  49.5429681 122.0405526
  84.2645869  49.3524166 123.5385484  85.8041896  47.5118382 120.9620210
  86.5250258  47.8899634 120.4583927  85.1807200  48.2307258 121.0655188
  89.9473019  48.2163531 121.8978543  90.1636633  49.0988168 121.5967371
  89.4667086  47.8249744 121.1684185  84.6872240  51.1749244 128.4749287
  84.5416821  51.4889547 129.3673569  84.2097444  51.7934144 127.9220186
  86.5468623  48.1651792 128.5230177  86.5330192  47.2692885 128.1862475
  87.2641051  48.1722456 129.1568463  88.3994754  48.5989132 130.5683304
  88.1412532  49.5206203 130.5667635  87.8679794  48.2019567 131.2583768
  79.1617902  53.7154588 131.4136948  78.6171370  54.4914396 131.5457223
  80.0397252  54.0625393 131.2556070  85.9505519  47.0466172 123.7917747
  86.0721430  46.1182818 123.9908634  85.6607561  47.0604858 122.8796062
  88.8196709  44.7321082 126.9284467  88.8418406  44.7960416 125.9736446
  89.2364768  43.8925591 127.1224973  94.3316115  61.0206684 120.4470288
  95.0267020  61.6413376 120.6657602  94.6739265  60.1702035 120.7222666
  96.2307538  58.4706389 121.9757619  96.7558862  58.8093662 121.2506939
  96.1429891  57.5353404 121.7920753  80.3940538  60.7289913 126.3377500
  81.2198558  60.4293685 125.9576143  80.0434590  59.9597536 126.7867288
  78.5949143  58.6476240 127.2966433  77.7581051  58.2198414 127.1150435
  78.5672788  58.8408683 128.2337225  84.9235578  58.6320305 121.8833634
  85.0723698  59.3155769 121.2300307  85.7302021  58.6125395 122.3983090
  82.6788211  54.6585482 122.8894703  82.4334253  53.7547812 123.0874913
  82.8484125  54.6602633 121.9474181  81.9483858  50.3913840 120.3880864
  81.2553103  50.4658195 119.7320900  81.7035610  49.6274184 120.9102381
  88.4230983  61.1268435 119.3545381  87.8504951  61.7458622 118.9015853
  88.9963777  61.6767797 119.8885303  91.6428243  61.4105585 120.4853964
  92.5758916  61.3451147 120.6886839  91.5551456  62.2461852 120.0268496
  94.2716260  60.7271456 117.4457911  94.1929891  60.3931319 118.3393669
  95.0925927  61.2193224 117.4449384  88.8077782  52.4629248 116.6961434
  89.7536887  52.3335456 116.7649852  88.4292027  51.7243910 117.1730862
  86.9920699  50.3879224 116.6316319  86.0852155  50.0912337 116.7079033
  87.2696680  50.0909042 115.7650605  77.9098640  51.7085588 127.0815365
  77.5901424  50.8550896 126.7889739  77.3632068  51.9234166 127.8373333
  81.6878547  54.4248029 130.7984872  81.9064557  55.3565137 130.8172906
  82.1004321  54.0656003 131.5839676  88.6082765  44.9316114 122.7860560
  87.7983493  44.5863199 123.1615806  89.2967182  44.6223658 123.3748172
  90.5373313  44.0094161 124.4084857  91.0904352  44.4289614 125.0674880
  90.7743399  43.0829909 124.4507813  85.7619484  47.2466160 116.7728298
  86.6238648  47.5721058 117.0324116  85.9469828  46.4597655 116.2601364
  77.7786900  55.3288499 129.0508487  77.0850371  54.9142452 128.5378441
  78.5259891  55.3709036 128.4541906  93.9152120  46.1194686 123.9163521
  93.3350789  46.7779490 123.5341574  93.6488053  45.2972031 123.5050939
  79.6923642  55.2606753 126.9274502  79.6694330  55.3594440 125.9756385
  80.0024279  56.1071904 127.2491668  92.6976998  48.2794776 122.9719870
  91.8102853  48.5644427 122.7540064  93.1130987  48.1188540 122.1247146
  91.8420212  58.0439451 117.0667890  92.5456062  58.2489454 117.6825545
  91.1182860  58.6116213 117.3316973  92.6718022  53.7949312 123.1870160
  92.6153223  54.2517864 122.3477792  93.2246364  53.0339997 123.0093002
  96.4822828  49.5839044 124.0120279  96.2259762  49.1835680 124.8428487
  95.8575696  50.2982838 123.8870418  93.7506909  58.4821980 119.1166350
  94.5852513  58.0503179 118.9343824  93.5891252  58.3103994 120.0443244
  93.4052801  54.9854094 120.4822689  93.3501605  54.8198365 119.5411133
  92.7798857  55.6930126 120.6384879  78.1945316  50.2222158 134.3084111
  78.8404180  49.7121112 134.7971336  77.9862467  50.9590840 134.8827536
  86.7148927  44.4862203 120.0608007  86.7027597  45.4304042 120.2176278
  87.6072349  44.3032348 119.7667468  90.5301046  41.0804979 124.3153944
  89.7633442  40.5263466 124.4610626  90.9411751  41.1526848 125.1768096
  95.2120764  64.9359528 119.6301302  94.3758077  65.2734214 119.9510577
  95.0725534  64.8008507 118.6928439  95.0859145  64.7806755 116.8299209
  94.2088611  64.6595556 116.4661456  95.5616898  63.9892833 116.5778098
  92.7877613  65.7205758 120.3880864  92.0946858  65.7950113 119.7320900
  92.5429365  64.9566101 120.9102381  97.8314454  65.7171142 116.6316319
  96.9245909  65.4204255 116.7079033  98.1090435  65.4200960 115.7650605
  96.6013238  62.5758077 116.7728298  97.4632402  62.9012976 117.0324116
  96.7863582  61.7889573 116.2601364  97.5542681  59.8154120 120.0608007
  97.5421351  60.7595960 120.2176278  98.4466103  59.6324266 119.7667468
  68.6871867   9.7899487 105.8975771  68.0133565  10.0931184 106.5060729
  69.0737689  10.5928568 105.5481228  70.7779337   1.5807700 104.4323211
  70.1608507   0.8554528 104.3356264  70.3095825   2.3417061 104.0890286
  72.6528607   7.3684971 107.1715594  73.3479512   7.9891663 107.3902909
  72.9951757   6.5180322 107.4467972  66.7443476   7.4746722 106.0790688
  66.1717443   8.0936910 105.6261160  67.3176269   8.0246084 106.6130610
  69.9640736   7.7583873 107.2099270  70.8971409   7.6929434 107.4132146
  69.8763948   8.5940139 106.7513803  72.5928752   7.0749743 104.1703218
  72.5142384   6.7409607 105.0638976  73.4138419   7.5671511 104.1694690
  70.1632704   4.3917738 103.7913196  70.8668554   4.5967741 104.4070852
  69.4395353   4.9594500 104.0562280  72.0719401   4.8300268 105.8411656
  72.9065005   4.3981466 105.6589131  71.9103744   4.6582281 106.7688551
  80.7003676  15.3469919 115.9366833  81.3382086  15.2276666 115.2330173
  80.5824519  16.2950763 115.9954785  77.5093383  15.2997347 115.8728358
  77.1711894  15.1838411 114.9848893  78.3783151  14.8988512 115.8529364
  73.3680198  17.1532823 111.8625249  72.8045064  17.0622760 111.0941536
  73.2532594  16.3332728 112.3427741  78.9479757  20.8203791 107.1739714
  78.2967737  21.4057871 106.7873727  79.7424120  21.3509986 107.2334751
  72.8735384  17.9092928 107.5726848  73.6466260  17.3621915 107.4339724
  73.2260783  18.7737177 107.7841309  75.2101662  14.0685594 105.2045298
  75.4627183  13.5467115 104.4428761  74.2726221  13.9051740 105.3071981
  80.2544945  13.0721372 113.0120041  81.0408034  12.6540796 112.6610458
  80.5183649  13.9767465 113.1801689  80.4255022  18.5094223 107.7108698
  79.7900855  18.5828849 108.4229602  80.0952429  19.0987822 107.0327777
  74.9297951  15.9713700 107.4069673  74.8134209  15.2958603 108.0750757
  75.0400211  15.4846074 106.5901826  77.2729492  15.4323847 111.1116362
  76.9087699  14.9054468 111.8229283  78.1296608  15.0422316 110.9382847
  76.9134979  10.4613747 106.1077710  77.0809381  11.3293983 106.4748182
  76.7232148  10.6241029 105.1839000  79.6710312  18.9230726 117.7743541
  79.3711035  19.8255765 117.6659348  79.3261372  18.6562909 118.6264694
  76.8924200  12.9171404 107.0924377  76.7723825  13.3628455 107.9309858
  76.1976788  13.2656722 106.5337915  74.6531092  25.6875046 110.7414509
  74.5755121  26.6382871 110.8202989  74.0492735  25.3420919 111.3989435
  82.5909266  13.3892878 107.9204711  83.5027122  13.6220264 107.7452409
  82.0818913  13.9729922 107.3579790  81.1978848  18.3718696 115.3118293
  80.5687711  18.5364410 114.6094361  80.8104510  18.7860306 116.0829257
  85.0768080  19.3073134 112.6662657  84.3919118  19.6872035 112.1159690
  85.1611929  19.9168460 113.3994604  76.7506810  18.1093104 112.5768378
  77.2145156  18.3880807 111.7873000  76.4863608  17.2076549 112.3941469
  75.6875696  14.2316256 109.3857943  76.3899739  14.6837300 109.8531869
  75.3556325  13.5900075 110.0137836  83.4464840  19.8305048 117.4380357
  84.2682283  19.4285236 117.1563039  83.4427242  19.7273282 118.3896473
  76.9269461  21.0457199 109.4620048  76.7915135  21.8908735 109.8904896
  77.4679273  21.2476477 108.6985982  70.3798858  18.5632637 110.0347973
  70.8923379  19.3575887 110.1853538  71.0321571  17.8658928 109.9681575
  72.1893743  21.6798393 112.1170727  72.3660371  22.6016358 111.9291710
  72.9850576  21.3656813 112.5465106  73.3125058  23.1976567 118.1181069
  73.8632483  23.0693631 117.3458063  72.4736534  23.4971456 117.7675962
  68.3447775  16.8921291 110.8107544  69.1822997  17.3018300 110.5941252
  68.5226043  15.9520734 110.7807738  80.2412207  14.5596372 106.4991377
  79.7258830  15.3300977 106.7379764  79.9689515  13.8861508 107.1224438
  77.8259318   9.4046073 111.5576615  76.9700914   9.0152923 111.3782254
  78.2386270   9.4838034 110.6976401  85.2146481  17.3128727 108.4344550
  84.4375924  16.9739886 107.9899712  85.8937962  17.3181350 107.7599515
  80.0298510  12.4323464 108.3251158  79.7248646  12.7469613 109.1761301
  80.9828952  12.5104884 108.3678491  78.4744942  18.5913687 109.9744112
  77.9466304  17.8566447 109.6617349  77.9732445  19.3688364 109.7284080
  83.4537788  16.7862708 115.0911158  82.7961462  17.4761969 115.1791287
  84.2578187  17.1759140 115.4345145  82.2643247  15.1407081 113.1415100
  82.7775129  15.7737072 113.6436810  82.9144471  14.5408276 112.7758460
  73.5333257  11.2837815 106.3546609  72.6970569  11.6212501 106.6755884
  73.3938026  11.1486795 105.4173746  76.6197542  16.4093898 102.9779085
  75.7124604  16.1783151 103.1770234  77.1168574  15.6131517 103.1653067
  79.5265621  25.1191405 105.8975771  78.8527320  25.4223102 106.5060729
  79.9131443  25.9220485 105.5481228  79.5259125  14.0147952 110.5176121
  80.2730944  14.5269349 110.2083243  79.7950715  13.6932005 111.3780514
  77.7985776  16.5106493 107.5003075  76.8896995  16.2265525 107.5975545
  77.8280859  16.9305571 106.6406382  83.0305043  20.1213082 111.2694243
  82.5767370  19.2803992 111.3259433  82.3999010  20.7574480 111.6069023
  81.9737963  11.0505068 112.4994910  81.2360719  10.5382454 112.8305153
  82.2264736  10.6105450 111.6878187  81.4737982  21.9589579 112.2044061
  81.7660957  22.5194636 111.4856426  81.9836603  22.2518140 112.9597220
  76.3470670  14.1235113 113.6012870  76.4019279  13.1708950 113.5255347
  75.5361872  14.2794552 114.0854169  77.4961863  18.0515236 104.8391154
  77.0581293  17.3351095 104.3796791  78.2372304  18.2791351 104.2776245
  74.2863030  12.7412173 111.3603249  73.4730895  13.0406343 111.7668441
  74.7822024  12.3467862 112.0777732  76.4371607  22.7369930 113.2937514
  76.3947786  22.9630776 112.3646046  77.3534306  22.5033304 113.4423315
  85.6134978  16.3272433 110.8967472  85.4752877  16.5174029 109.9688662
  85.2571197  17.0891816 111.3535523  74.5537408  19.6132959 113.0899477
  75.3478007  19.1183279 112.8882052  73.8429101  19.0850822 112.7267182
  79.3732253  21.9951054 117.4411844  79.4269275  22.5641991 118.2089560
  78.5047034  22.1652939 117.0765882  70.8620172  13.7576041 109.1659229
  69.9317760  13.6960496 109.3829192  70.9577644  13.2351993 108.3695871
  77.1308684  20.1861981 116.7697314  76.9919770  19.8180765 117.6423252
  76.3423280  20.7009620 116.5981272  77.7256836  25.2871077 108.1122850
  77.9008592  24.8159121 108.9268473  77.0389624  25.9136844 108.3404111
  78.6813899  19.5643584 114.1586152  78.3463732  19.5244354 115.0543802
  78.1817845  18.8988299 113.6856562  81.6173091  16.9099618 104.4323211
  81.0002262  16.1846446 104.3356264  81.1489580  17.6708978 104.0890286
  72.2917921  28.4360440 114.8862711  72.5314520  29.0678964 115.5641729
  71.4487118  28.0848480 115.1728070  73.4071637  11.1285042 103.5544516
  72.5301103  11.0073843 103.1906762  73.8829390  10.3371121 103.3023404
  76.8045783  24.2439563 117.2904215  76.7315955  25.0494534 117.8023519
  76.3623176  24.4431528 116.4652236  76.5935563  23.4811333 110.8007036
  75.8103085  24.0233013 110.8945261  77.2928308  23.9985312 111.2001277
  79.9032213   9.2905962 113.4441241  80.4000913   8.5375924 113.1242312
  79.1319195   9.3270279 112.8784451  79.2644467  24.1426397 119.4462373
  79.9772439  24.7773861 119.3738275  78.7734496  24.2390263 118.6302375
  80.9861994  18.0477649 111.0179665  80.0518273  18.1679112 110.8484369
  81.1638662  17.1450116 110.7539675  84.3734545  13.8894969 111.5529699
  84.8394997  14.7222960 111.4790002  84.8242046  13.4239950 112.2574958
  82.4410776  20.2338790 108.5515851  82.7170620  20.1195384 109.4609725
  81.5715275  19.8356275 108.5128024  79.0764840  24.4825141 112.1948665
  79.2587235  23.6646797 112.6576417  79.8997826  24.6992833 111.7573555
  79.4107006  23.4093326 109.4563713  79.9394772  22.8985780 108.8433875
  79.6735225  23.0935856 110.3209246  72.7662754  24.4608442 112.2161489
  72.0973129  24.9454570 111.7325529  72.6275623  24.7077663 113.1304868
  76.9068022  26.4952186 118.8144147  77.4586330  26.6583808 119.5793233
  77.2474216  27.0856624 118.1424172  68.1350331  12.7226897 108.9957421
  68.4303772  11.8137576 108.9424475  67.2338367  12.7014637 108.6738424
  80.0436410  24.4434162 115.8007830  79.9187549  23.6423901 115.2918775
  80.7015501  24.9380355 115.3121800  82.1071318  22.2443182 117.4287380
  81.1601653  22.1248533 117.3565706  82.4554091  21.3565680 117.5113641
  69.8638172  10.4040995 109.1196746  69.5350879   9.5238374 108.9371852
  70.2177543  10.3488664 110.0073136  79.1117751  22.0395898 113.6291732
  78.9642714  21.1112605 113.8099302  79.9371245  22.0615989 113.1448807
  72.9779996  10.6913965 109.4872224  73.3176068  11.2199886 108.7650832
  73.4252116  11.0294371 110.2630791  82.7151873  22.8624457 114.7156605
  83.6398421  22.6567318 114.5781056  82.5467176  22.6140858 115.6245946
  74.9648143   9.1888587 107.6865517  75.6856505   9.5669839 107.1829234
  74.3413447   9.9077463 107.7900495  79.1079266   9.8933735 108.6223849
  79.3242880  10.7758373 108.3212677  78.6273333   9.5019949 107.8929491
  82.5047189  23.3810124 110.0718696  82.6784067  22.8156546 109.3192549
  82.9976081  24.1811019 109.8898186  75.1111766   8.7236377 110.5163053
  75.2327677   7.7953023 110.7153941  74.8213808   8.7375063 109.6041369
  88.3586580  16.1446547 111.6908996  88.8017727  15.3953872 111.2928119
  87.4813091  16.1356683 111.3082728  83.4922362  22.6976888 107.1715594
  84.1873266  23.3183581 107.3902909  83.8345512  21.8472240 107.4467972
  85.3913785  20.1476594 108.7002925  85.9165109  20.4863867 107.9752245
  85.3036137  19.2123609 108.5166060  77.0754446  26.2148577 113.0598178
  76.6359436  25.7224956 113.7531035  77.8262563  25.6721545 112.8190254
  69.5546785  22.4060118 113.0622806  70.3804805  22.1063890 112.6821450
  69.2040837  21.6367741 113.5112595  74.5228318  21.7586586 115.1320480
  73.9008327  21.0957291 114.8322708  75.1933185  21.7847718 114.4494128
  67.7555390  20.3246445 114.0211740  66.9187298  19.8968619 113.8395741
  67.7279035  20.5178888 114.9582531  74.0841825  20.3090510 108.6078941
  74.2329945  20.9925974 107.9545613  74.8908268  20.2895600 109.1228396
  71.8394458  16.3355687 109.6140009  71.5940500  15.4318017 109.8120220
  72.0090372  16.3372838 108.6719487  71.1090105  12.0684045 107.1126171
  70.4159350  12.1428400 106.4566207  70.8641857  11.3044389 107.6347688
  77.5837230  22.8038640 106.0790688  77.0111197  23.4228827 105.6261160
  78.1570024  23.3538002 106.6130610  80.8034490  23.0875790 107.2099270
  81.7365163  23.0221352 107.4132146  80.7157703  23.9232057 106.7513803
  83.4322507  22.4041661 104.1703218  83.3536138  22.0701524 105.0638976
  84.2532173  22.8963428 104.1694690  77.9684029  14.1399453 103.4206740
  78.9143133  14.0105661 103.4895159  77.5898274  13.4014115 103.8976169
  76.1526946  12.0649429 103.3561626  75.2458401  11.7682542 103.4324339
  76.4302927  11.7679247 102.4895912  77.7689012   6.6086319 109.5105867
  76.9589740   6.2633404 109.8861113  78.4573429   6.2993863 110.0993479
  74.9225731   8.9236364 103.4973605  75.7844895   9.2491263 103.7569422
  75.1076075   8.1367860 102.9846671  83.0758367   7.7964891 110.6408828
  82.4957036   8.4549695 110.2586880  82.8094300   6.9742236 110.2296245
  81.8583245   9.9564981 109.6965176  80.9709100  10.2414632 109.4785371
  82.2737234   9.7958745 108.8492453  69.8667495  24.5372732 114.7836621
  69.7321963  23.7773133 114.2174619  69.4499558  25.2613632 114.3165410
  81.0026458  19.7209656 103.7913196  81.7062309  19.9259658 104.4070852
  80.2789107  20.2886418 104.0562280  81.8324269  15.4719517 109.9115466
  81.7759470  15.9288069 109.0723099  82.3852611  14.7110202 109.7338309
  85.6429075  11.2609249 110.7365586  85.3866009  10.8605885 111.5673794
  85.0181943  11.9753043 110.6115725  73.0236621  25.4342049 114.9955064
  72.9069005  26.3787482 114.8933754  72.2029068  25.1315611 115.3840863
  82.9113156  20.1592185 105.8411656  83.7458760  19.7273384 105.6589131
  82.7497499  19.9874199 106.7688551  82.5659048  16.6624298 107.2067996
  82.5107852  16.4968570 106.2656440  81.9405103  17.3700331 107.3630185
  75.8755174   6.1632407 106.7853314  75.8633843   7.1074247 106.9421585
  76.7678595   5.9802553 106.4912775  74.0491135  26.0870311 118.2110992
  74.9518382  26.1193922 118.5277487  73.8228506  25.1570762 118.2257328
  75.8044737  24.8401298 114.8721071  74.8540368  24.8403160 114.7585443
  76.1077224  24.0934032 114.3557105  91.5397431  30.6761836 115.9366833
  92.1775841  30.5568584 115.2330173  91.4218274  31.6242680 115.9954785
  88.3487137  30.6289264 115.8728358  88.0105649  30.5130329 114.9848893
  89.2176905  30.2280429 115.8529364  84.2073953  32.4824741 111.8625249
  83.6438818  32.3914678 111.0941536  84.0926348  31.6624645 112.3427741
  81.7538385  33.9775932 114.7009469  82.5459677  33.6366757 114.2855768
  81.9935035  34.0870907 115.6211622  89.7873512  36.1495709 107.1739714
  89.1361491  36.7349789 106.7873727  90.5817874  36.6801903 107.2334751
  83.7129139  33.2384846 107.5726848  84.4860015  32.6913833 107.4339724
  84.0654538  34.1029095 107.7841309  85.5514181  34.5661228 120.7793747
  85.2604047  35.4706859 120.6640413  86.1871166  34.6077756 121.4937817
  86.4770388  31.9438076 117.3695107  87.0733960  31.7194099 116.6552070
  86.5345360  31.2022822 117.9720555  86.0495417  29.3977512 105.2045298
  86.3020937  28.8759033 104.4428761  85.1119976  29.2343657 105.3071981
  91.0938699  28.4013290 113.0120041  91.8801789  27.9832713 112.6610458
  91.3577404  29.3059382 113.1801689  91.2648777  33.8386140 107.7108698
  90.6294610  33.9120767 108.4229602  90.9346183  34.4279739 107.0327777
  85.7691705  31.3005618 107.4069673  85.6527963  30.6250521 108.0750757
  85.8793965  30.8137992 106.5901826  88.1123246  30.7615765 111.1116362
  87.7481454  30.2346386 111.8229283  88.9690362  30.3714234 110.9382847
  87.7528733  25.7905665 106.1077710  87.9203136  26.6585901 106.4748182
  87.5625902  25.9532946 105.1839000  90.5104066  34.2522643 117.7743541
  90.2104790  35.1547682 117.6659348  90.1655126  33.9854827 118.6264694
  83.9616548  30.7036440 113.8080245  83.0367044  30.5712654 114.0157937
  84.2100961  31.4830660 114.3050188  87.7317954  28.2463322 107.0924377
  87.6117579  28.6920373 107.9309858  87.0370543  28.5948640 106.5337915
  81.3225359  30.3469714 114.6424034  81.4517740  30.6004193 115.5563446
  80.6422810  30.9397422 114.3228689  85.4924846  41.0166964 110.7414509
  85.4148876  41.9674789 110.8202989  84.8886490  40.6712836 111.3989435
  93.4303020  28.7184795 107.9204711  94.3420876  28.9512182 107.7452409
  92.9212667  29.3021839 107.3579790  86.2388448  30.9980283 122.9593842
  86.9803133  31.5365327 122.6828666  85.5325434  31.6246571 123.1165394
  88.0674858  28.0782030 118.9299561  88.9136053  28.5021443 119.0734210
  88.0073496  27.4215654 119.6238124  92.0372603  33.7010614 115.3118293
  91.4081465  33.8656328 114.6094361  91.6498265  34.1152223 116.0829257
  95.9161835  34.6365052 112.6662657  95.2312873  35.0163953 112.1159690
  96.0005684  35.2460378 113.3994604  87.5900565  33.4385022 112.5768378
  88.0538910  33.7172725 111.7873000  87.3257363  32.5368466 112.3941469
  84.4824646  32.9856503 115.5148141  85.0526003  33.4143772 114.8765626
  85.0732757  32.7039088 116.2132327  86.5269451  29.5608174 109.3857943
  87.2293494  30.0129218 109.8531869  86.1950079  28.9191993 110.0137836
  80.2694785  27.8191727 114.6875077  79.4793839  28.0749255 114.2115187
  80.7606032  28.6340065 114.7927117  94.2858594  35.1596966 117.4380357
  95.1076038  34.7577153 117.1563039  94.2820997  35.0565200 118.3896473
  82.2209530  28.1836306 111.6458553  81.4240693  28.2955000 112.1642049
  81.9935122  28.5222958 110.7799444  88.0515198  34.7081009 119.5941068
  88.1159630  35.1701416 120.4299240  87.3426121  34.0778374 119.7223378
  78.5532488  28.0722217 117.1190067  78.8040526  28.9569227 117.3847643
  79.0892036  27.8926819 116.3465159  87.7663215  36.3749117 109.4620048
  87.6308890  37.2200652 109.8904896  88.3073028  36.5768394 108.6985982
  81.2192613  33.8924555 110.0347973  81.7317133  34.6867805 110.1853538
  81.8715325  33.1950845 109.9681575  83.0287497  37.0090311 112.1170727
  83.2054126  37.9308276 111.9291710  83.8244331  36.6948730 112.5465106
  82.3139854  29.0554943 121.9932890  82.1993369  28.1540200 122.2939989
  81.4584372  29.3018640 121.6417706  89.3931692  36.9972683 123.5920390
  88.9495546  36.2109062 123.2741295  90.0548905  37.1851834 122.9264281
  84.1518813  38.5268485 118.1181069  84.7026238  38.3985548 117.3458063
  83.3130289  38.8263374 117.7675962  87.9485984  34.7919613 122.4625300
  88.4814321  34.0307901 122.2324608  87.4200065  34.4993264 123.2049454
  79.1841529  32.2213209 110.8107544  80.0216751  32.6310217 110.5941252
  79.3619797  31.2812651 110.7807738  91.0805961  29.8888290 106.4991377
  90.5652585  30.6592894 106.7379764  90.8083270  29.2153426 107.1224438
  88.6653073  24.7337991 111.5576615  87.8094669  24.3444841 111.3782254
  89.0780024  24.8129951 110.6976401  86.4395105  22.3523064 114.9634357
  87.3048102  22.1565872 114.6040246  86.5072614  22.1233415 115.8903713
  96.0540236  32.6420644 108.4344550  95.2769678  32.3031804 107.9899712
  96.7331717  32.6473268 107.7599515  90.8692265  27.7615382 108.3251158
  90.5642400  28.0761531 109.1761301  91.8222707  27.8396802 108.3678491
  89.3138696  33.9205605 109.9744112  88.7860058  33.1858365 109.6617349
  88.8126199  34.6980281 109.7284080  94.2931543  32.1154626 115.0911158
  93.6355217  32.8053887 115.1791287  95.0971942  32.5051058 115.4345145
  84.0457424  24.5825271 112.3350724  84.6201176  24.3600453 111.6023916
  84.6328407  24.6513966 113.0879325  93.1037001  30.4698998 113.1415100
  93.6168883  31.1028990 113.6436810  93.7538225  29.8700194 112.7758460
  84.3727011  26.6129732 106.3546609  83.5364323  26.9504419 106.6755884
  84.2331781  26.4778712 105.4173746  86.3480092  21.4566520 111.0625793
  85.6944504  21.1415538 110.4382408  86.3060566  20.8342261 111.7885616
  87.4591297  31.7385815 102.9779085  86.5518358  31.5075069 103.1770234
  87.9562329  30.9423435 103.1653067  90.3659376  40.4483323 105.8975771
  89.6921074  40.7515019 106.5060729  90.7525198  41.2512403 105.5481228
  89.5817832  27.9448454 115.3873441  88.6640394  28.1663401 115.2295129
  89.9977976  28.0194764 114.5285148  90.3652880  29.3439870 110.5176121
  91.1124699  29.8561267 110.2083243  90.6344469  29.0223922 111.3780514
  88.6379530  31.8398410 107.5003075  87.7290749  31.5557443 107.5975545
  88.6674614  32.2597489 106.6406382  93.8698798  35.4505000 111.2694243
  93.4161125  34.6095910 111.3259433  93.2392764  36.0866398 111.6069023
  92.8131717  26.3796986 112.4994910  92.0754474  25.8674372 112.8305153
  93.0658491  25.9397367 111.6878187  92.3131737  37.2881496 112.2044061
  92.6054711  37.8486554 111.4856426  92.8230357  37.5810057 112.9597220
  79.2067700  29.5603924 111.4818277  79.0092100  28.9673285 110.7569344
  78.6514364  29.2556135 112.1994216  87.1864424  29.4527031 113.6012870
  87.2413034  28.5000867 113.5255347  86.3755626  29.6086470 114.0854169
  88.3355618  33.3807154 104.8391154  87.8975048  32.6643013 104.3796791
  89.0766059  33.6083269 104.2776245  85.1256784  28.0704091 111.3603249
  84.3124650  28.3698261 111.7668441  85.6215778  27.6759779 112.0777732
  87.2765362  38.0661848 113.2937514  87.2341541  38.2922694 112.3646046
  88.1928061  37.8325222 113.4423315  96.4528733  31.6564351 110.8967472
  96.3146631  31.8465947 109.9688662  96.0964952  32.4183734 111.3535523
  84.6170859  25.6422446 116.9764484  85.2570238  25.5011205 116.2787448
  83.7848389  25.3556960 116.6003086  85.3931163  34.9424877 113.0899477
  86.1871761  34.4475197 112.8882052  84.6822855  34.4142740 112.7267182
  90.2126007  37.3242972 117.4411844  90.2663029  37.8933908 118.2089560
  89.3440789  37.4944857 117.0765882  81.7013926  29.0867958 109.1659229
  80.7711514  29.0252414 109.3829192  81.7971398  28.5643911 108.3695871
  81.6199475  25.6122771 111.7537471  81.8806293  26.5268104 111.6446632
  82.4416648  25.1447214 111.9034084  83.0924401  27.0260528 118.9236296
  83.7647454  26.8177890 118.2748945  82.2654187  26.8282614 118.4841528
  89.1714107  31.4903234 118.9998776  90.1006167  31.6414394 118.8267744
  88.7505137  31.5787255 118.1447423  87.9702439  35.5153899 116.7697314
  87.8313524  35.1472683 117.6423252  87.1817035  36.0301538 116.5981272
  88.5650591  40.6162995 108.1122850  88.7402346  40.1451038 108.9268473
  87.8783379  41.2428761 108.3404111  89.5207654  34.8935501 114.1586152
  89.1857486  34.8536271 115.0543802  89.0211600  34.2280217 113.6856562
  83.4951898  30.3003131 119.6838733  83.3571696  29.5683370 120.2850272
  84.4056821  30.2112031 119.4022921  92.4566846  32.2391536 104.4323211
  91.8396016  31.5138364 104.3356264  91.9883334  33.0000896 104.0890286
  86.1234199  30.0123091 119.1722412  86.8333817  29.3716283 119.1309031
  86.0803507  30.2635985 120.0948593  84.8363132  26.9988308 120.9918052
  84.3000490  26.5479047 121.6439648  84.2479841  27.1334217 120.2488516
  83.1311676  43.7652358 114.8862711  83.3708274  44.3970882 115.5641729
  82.2880872  43.4140398 115.1728070  84.2465391  26.4576960 103.5544516
  83.3694858  26.3365761 103.1906762  84.7223145  25.6663038 103.3023404
  75.7667532  31.2454120 113.6486023  76.4538571  30.9315850 113.0607038
  75.6115660  32.1495484 113.3753274  80.5702254  26.1344316 118.0771046
  80.4860442  25.5269986 117.3421456  79.7484960  26.6253334 118.0780543
  87.6439538  39.5731480 117.2904215  87.5709709  40.3786452 117.8023519
  87.2016931  39.7723446 116.4652236  87.4329317  38.8103250 110.8007036
  86.6496839  39.3524930 110.8945261  88.1322063  39.3277230 111.2001277
  90.7425968  24.6197880 113.4441241  91.2394667  23.8667842 113.1242312
  89.9712949  24.6562196 112.8784451  90.1038221  39.4718314 119.4462373
  90.8166194  40.1065779 119.3738275  89.6128250  39.5682180 118.6302375
  91.8255748  33.3769567 111.0179665  90.8912027  33.4971029 110.8484369
  92.0032417  32.4742034 110.7539675  87.3260936  26.7615263 113.1712926
  86.9558724  26.2086303 113.8593832  87.8220029  26.1573396 112.6187926
  95.2128300  29.2186886 111.5529699  95.6788752  30.0514878 111.4790002
  95.6635800  28.7531868 112.2574958  85.1550135  37.2212758 120.2667944
  85.8559594  37.8549241 120.4197338  84.6845250  37.5627489 119.5063583
  93.2804531  35.5630708 108.5515851  93.5564375  35.4487302 109.4609725
  92.4109029  35.1648192 108.5128024  89.9158595  39.8117058 112.1948665
  90.0980989  38.9938714 112.6576417  90.7391581  40.0284751 111.7573555
  90.2500760  38.7385243 109.4563713  90.7788527  38.2277698 108.8433875
  90.5128980  38.4227774 110.3209246  80.7517853  36.7549113 117.1999047
  81.3371290  36.0092801 117.3326951  80.5542691  37.0653069 118.0835711
  83.6056508  39.7900360 112.2161489  82.9366883  40.2746488 111.7325529
  83.4669378  40.0369581 113.1304868  75.3435508  29.3254713 115.9203490
  75.3819607  28.7918304 116.7140608  74.8375801  28.7989918 115.3014467
  87.7461777  41.8244104 118.8144147  88.2980085  41.9875725 119.5793233
  88.0867970  42.4148542 118.1424172  82.7226270  24.1719253 119.4166032
  82.7867596  25.0334084 119.0043430  82.6593390  23.5593255 118.6838391
  78.9744085  28.0518815 108.9957421  79.2697526  27.1429494 108.9424475
  78.0732121  28.0306555 108.6738424  90.8830164  39.7726079 115.8007830
  90.7581304  38.9715819 115.2918775  91.5409255  40.2672273 115.3121800
  82.5038332  26.1274812 114.9784970  81.7824918  26.7410779 114.8392443
  83.2931588  26.6632577 114.9001616  92.9465072  37.5735099 117.4287380
  91.9995408  37.4540450 117.3565706  93.2947846  36.6857597 117.5113641
  80.7031927  25.7332913 109.1196746  80.3744633  24.8530292 108.9371852
  81.0571298  25.6780581 110.0073136  89.9511506  37.3687816 113.6291732
  89.8036468  36.4404523 113.8099302  90.7764999  37.3907906 113.1448807
  83.8173750  26.0205883 109.4872224  84.1569823  26.5491804 108.7650832
  84.2645871  26.3586289 110.2630791  93.5545628  38.1916374 114.7156605
  94.4792175  37.9859236 114.5781056  93.3860931  37.9432775 115.6245946
  85.8041897  24.5180504 107.6865517  86.5250260  24.8961757 107.1829234
  85.1807201  25.2369381 107.7900495  89.9473020  25.2225653 108.6223849
  90.1636634  26.1050291 108.3212677  89.4667087  24.8311867 107.8929491
  84.6872241  28.1811366 115.1994594  84.5416822  28.4951669 116.0918875
  84.2097445  28.7996267 114.6465492  86.5468624  25.1713914 115.2475483
  86.5330193  24.2755008 114.9107781  87.2641052  25.1784578 115.8813769
  88.3994755  25.6051255 117.2928611  88.1412533  26.5268325 117.2912941
  87.8679795  25.2081689 117.9829075  93.3440944  38.7102042 110.0718696
  93.5177821  38.1448464 109.3192549  93.8369835  39.5102937 109.8898186
  79.1617904  30.7216711 118.1382255  78.6171372  31.4976519 118.2702529
  80.0397253  31.0687515 117.9801376  85.9505520  24.0528295 110.5163053
  86.0721431  23.1244941 110.7153941  85.6607563  24.0666981 109.6041369
  88.8196711  21.7383205 113.6529773  88.8418407  21.8022538 112.6981753
  89.2364770  20.8987714 113.8470279  99.1980335  31.4738465 111.6908996
  99.6411481  30.7245790 111.2928119  98.3206845  31.4648601 111.3082728
  94.3316116  38.0268806 107.1715594  95.0267021  38.6475499 107.3902909
  94.6739266  37.1764157 107.4467972  79.9483925  29.8486607 121.0312412
  79.2065661  29.9969242 121.6177042  79.6276670  30.1094873 120.1679161
  96.2307539  35.4768512 108.7002925  96.7558863  35.8155784 107.9752245
  96.1429892  34.5415527 108.5166060  87.8927588  39.3902585 120.8292802
  88.2014715  39.1451732 121.7015501  88.6903070  39.5949224 120.3411672
  87.9148200  41.5440495 113.0598178  87.4753190  41.0516874 113.7531035
  88.6656317  41.0013463 112.8190254  80.3940539  37.7352036 113.0622806
  81.2198559  37.4355808 112.6821450  80.0434591  36.9659658 113.5112595
  85.3622072  37.0878504 115.1320480  84.7402082  36.4249209 114.8322708
  86.0326939  37.1139636 114.4494128  78.5949144  35.6538362 114.0211740
  77.7581052  35.2260537 113.8395741  78.5672790  35.8470806 114.9582531
  84.9235579  35.6382427 108.6078941  85.0723700  36.3217892 107.9545613
  85.7302023  35.6187517 109.1228396  82.6788212  31.6647605 109.6140009
  82.4334254  30.7609935 109.8120220  82.8484127  31.6664755 108.6719487
  81.9483860  27.3975963 107.1126171  81.2553105  27.4720318 106.4566207
  81.7035612  26.6336306 107.6347688  88.4230985  38.1330558 106.0790688
  87.8504952  38.7520745 105.6261160  88.9963778  38.6829919 106.6130610
  91.6428245  38.4167708 107.2099270  92.5758918  38.3513270 107.4132146
  91.5551457  39.2523975 106.7513803  94.2716261  37.7333578 104.1703218
  94.1929893  37.3993442 105.0638976  95.0925928  38.2255346 104.1694690
  88.8077783  29.4691371 103.4206740  89.7536888  29.3397579 103.4895159
  88.4292028  28.7306032 103.8976169  86.9920700  27.3941347 103.3561626
  86.0852156  27.0974460 103.4324339  87.2696681  27.0971165 102.4895912
  77.9098641  28.7147710 113.8060672  77.5901425  27.8613019 113.5135046
  77.3632069  28.9296288 114.5618639  81.6878548  31.4310151 117.5230179
  81.9064558  32.3627259 117.5418212  82.1004322  31.0718126 118.3084982
  88.6082766  21.9378237 109.5105867  87.7983494  21.5925322 109.8861113
  89.2967183  21.6285780 110.0993479  90.5373314  21.0156283 111.1330164
  91.0904353  21.4351737 111.7920187  90.7743401  20.0892032 111.1753120
  85.7619485  24.2528282 103.4973605  86.6238649  24.5783180 103.7569422
  85.9469829  23.4659778 102.9846671  77.7786901  32.3350622 115.7753794
  77.0850372  31.9204575 115.2623748  78.5259892  32.3771158 115.1787213
  93.9152121  23.1256809 110.6408828  93.3350791  23.7841613 110.2586880
  93.6488054  22.3034153 110.2296245  79.6923643  32.2668876 113.6519809
  79.6694331  32.3656563 112.7001692  80.0024280  33.1134026 113.9736975
  82.3511021  34.3245031 117.7666423  83.3054275  34.2928973 117.6996355
  82.1523545  33.8635654 118.5816649  82.9410403  32.8946147 120.3337221
  83.7603292  33.3890225 120.3572058  83.2147211  31.9778115 120.3054788
  92.6977000  25.2856899 109.6965176  91.8102855  25.5706550 109.4785371
  93.1130989  25.1250662 108.8492453  80.7061250  39.8664650 114.7836621
  80.5715718  39.1065051 114.2174619  80.2893312  40.5905550 114.3165410
  91.8420213  35.0501574 103.7913196  92.5456063  35.2551576 104.4070852
  91.1182862  35.6178336 104.0562280  92.6718023  30.8011435 109.9115466
  92.6153225  31.2579986 109.0723099  93.2246366  30.0402120 109.7338309
  96.4822829  26.5901167 110.7365586  96.2259763  26.1897802 111.5673794
  95.8575697  27.3044961 110.6115725  83.8630376  40.7633967 114.9955064
  83.7462760  41.7079400 114.8933754  83.0422822  40.4607529 115.3840863
  93.7506910  35.4884103 105.8411656  94.5852514  35.0565301 105.6589131
  93.5891253  35.3166117 106.7688551  93.4052803  31.9916216 107.2067996
  93.3501606  31.8260488 106.2656440  92.7798858  32.6992249 107.3630185
  78.1945318  27.2284281 121.0329418  78.8404181  26.7183235 121.5216643
  77.9862469  27.9652962 121.6072843  86.7148928  21.4924325 106.7853314
  86.7027598  22.4366165 106.9421585  87.6072350  21.3094471 106.4912775
  84.8884890  41.4162229 118.2110992  85.7912137  41.4485839 118.5277487
  84.6622260  40.4862680 118.2257328  86.6438492  40.1693216 114.8721071
  85.6934123  40.1695077 114.7585443  86.9470978  39.4225950 114.3557105
  90.5301047  18.0867102 111.0399251  89.7633443  17.5325589 111.1855933
  90.9411752  18.1588971 111.9013402 102.3791185  46.0053754 115.9366833
 103.0169595  45.8860501 115.2330173 102.2612028  46.9534598 115.9954785
  99.1880892  45.9581182 115.8728358  98.8499403  45.8422247 114.9848893
 100.0570660  45.5572347 115.8529364  95.0467707  47.8116658 111.8625249
  94.4832573  47.7206595 111.0941536  94.9320102  46.9916563 112.3427741
  92.5932139  49.3067850 114.7009469  93.3853431  48.9658675 114.2855768
  92.8328790  49.4162825 115.6211622 100.6267266  51.4787626 107.1739714
  99.9755246  52.0641707 106.7873727 101.4211629  52.0093821 107.2334751
  94.5522893  48.5676763 107.5726848  95.3253769  48.0205750 107.4339724
  94.9048292  49.4321013 107.7841309  96.3907936  49.8953146 120.7793747
  96.0997802  50.7998776 120.6640413  97.0264920  49.9369673 121.4937817
  97.3164143  47.2729994 117.3695107  97.9127715  47.0486017 116.6552070
  97.3739114  46.5314740 117.9720555  96.8889171  44.7269429 105.2045298
  97.1414692  44.2050951 104.4428761  95.9513730  44.5635575 105.3071981
 101.9332454  43.7305208 113.0120041 102.7195543  43.3124631 112.6610458
 102.1971158  44.6351300 113.1801689 102.1042531  49.1678058 107.7108698
 101.4688364  49.2412685 108.4229602 101.7739938  49.7571657 107.0327777
  96.6085460  46.6297535 107.4069673  96.4921718  45.9542439 108.0750757
  96.7187720  46.1429909 106.5901826  98.9517001  46.0907683 111.1116362
  98.5875208  45.5638303 111.8229283  99.8084117  45.7006152 110.9382847
  98.5922488  41.1197582 106.1077710  98.7596890  41.9877819 106.4748182
  98.4019657  41.2824864 105.1839000 101.3497821  49.5814561 117.7743541
 101.0498544  50.4839600 117.6659348 101.0048880  49.3146744 118.6264694
  94.8010302  46.0328358 113.8080245  93.8760799  45.9004572 114.0157937
  95.0494716  46.8122577 114.3050188  98.5711709  43.5755240 107.0924377
  98.4511334  44.0212290 107.9309858  97.8764297  43.9240557 106.5337915
  92.1619113  45.6761632 114.6424034  92.2911495  45.9296110 115.5563446
  91.4816565  46.2689340 114.3228689  96.3318601  56.3458881 110.7414509
  96.2542630  57.2966707 110.8202989  95.7280244  56.0004754 111.3989435
 104.2696775  44.0476713 107.9204711 105.1814631  44.2804100 107.7452409
 103.7606422  44.6313757 107.3579790  97.0782203  46.3272200 122.9593842
  97.8196887  46.8657244 122.6828666  96.3719188  46.9538489 123.1165394
  98.9068613  43.4073947 118.9299561  99.7529808  43.8313361 119.0734210
  98.8467250  42.7507572 119.6238124 102.8766357  49.0302531 115.3118293
 102.2475220  49.1948245 114.6094361 102.4892019  49.4444141 116.0829257
 106.7555589  49.9656969 112.6662657 106.0706627  50.3455871 112.1159690
 106.8399438  50.5752296 113.3994604  98.4294319  48.7676939 112.5768378
  98.8932665  49.0464642 111.7873000  98.1651117  47.8660384 112.3941469
  95.3218400  48.3148421 115.5148141  95.8919757  48.7435689 114.8765626
  95.9126512  48.0331006 116.2132327  97.3663205  44.8900092 109.3857943
  98.0687248  45.3421135 109.8531869  97.0343834  44.2483911 110.0137836
  91.1088539  43.1483644 114.6875077  90.3187593  43.4041173 114.2115187
  91.5999786  43.9631982 114.7927117 105.1252349  50.4888884 117.4380357
 105.9469792  50.0869071 117.1563039 105.1214751  50.3857118 118.3896473
  93.0603284  43.5128224 111.6458553  92.2634448  43.6246918 112.1642049
  92.8328877  43.8514876 110.7799444  98.8908952  50.0372927 119.5941068
  98.9553385  50.4993334 120.4299240  98.1819876  49.4070292 119.7223378
  89.3926242  43.4014135 117.1190067  89.6434280  44.2861145 117.3847643
  89.9285790  43.2218736 116.3465159  98.6056970  51.7041034 109.4620048
  98.4702644  52.5492570 109.8904896  99.1466782  51.9060312 108.6985982
  92.0586367  49.2216472 110.0347973  92.5710888  50.0159723 110.1853538
  92.7109080  48.5242763 109.9681575  93.8681252  52.3382229 112.1170727
  94.0447880  53.2600193 111.9291710  94.6638085  52.0240648 112.5465106
  93.1533608  44.3846861 121.9932890  93.0387123  43.4832118 122.2939989
  92.2978126  44.6310557 121.6417706 100.2325446  52.3264601 123.5920390
  99.7889300  51.5400979 123.2741295 100.8942660  52.5143751 122.9264281
  94.9912567  53.8560403 118.1181069  95.5419992  53.7277466 117.3458063
  94.1524043  54.1555292 117.7675962  98.7879738  50.1211530 122.4625300
  99.3208075  49.3599819 122.2324608  98.2593819  49.8285182 123.2049454
  90.0235284  47.5505127 110.8107544  90.8610506  47.9602135 110.5941252
  90.2013552  46.6104569 110.7807738 101.9199716  45.2180207 106.4991377
 101.4046339  45.9884812 106.7379764 101.6477024  44.5445344 107.1224438
  99.5046827  40.0629908 111.5576615  98.6488423  39.6736759 111.3782254
  99.9173779  40.1421869 110.6976401  97.2788860  37.6814981 114.9634357
  98.1441856  37.4857790 114.6040246  97.3466368  37.4525333 115.8903713
 106.8933990  47.9712562 108.4344550 106.1163433  47.6323722 107.9899712
 107.5725471  47.9765185 107.7599515 101.7086019  43.0907300 108.3251158
 101.4036155  43.4053449 109.1761301 102.6616461  43.1688719 108.3678491
 100.1532451  49.2497523 109.9744112  99.6253813  48.5150282 109.6617349
  99.6519954  50.0272199 109.7284080 105.1325297  47.4446543 115.0911158
 104.4748971  48.1345805 115.1791287 105.9365696  47.8342975 115.4345145
  94.8851179  39.9117189 112.3350724  95.4594931  39.6892371 111.6023916
  95.4722161  39.9805884 113.0879325 103.9430756  45.7990916 113.1415100
 104.4562638  46.4320908 113.6436810 104.5931980  45.1992112 112.7758460
  95.2120766  41.9421650 106.3546609  94.3758078  42.2796337 106.6755884
  95.0725535  41.8070630 105.4173746  97.1873846  36.7858438 111.0625793
  96.5338259  36.4707455 110.4382408  97.1454320  36.1634178 111.7885616
  98.2985051  47.0677733 102.9779085  97.3912113  46.8366987 103.1770234
  98.7956083  46.2715352 103.1653067 101.2053130  55.7775240 105.8975771
 100.5314829  56.0806937 106.5060729 101.5918952  56.5804321 105.5481228
 100.4211587  43.2740372 115.3873441  99.5034148  43.4955319 115.2295129
 100.8371730  43.3486682 114.5285148 101.2046634  44.6731787 110.5176121
 101.9518453  45.1853184 110.2083243 101.4738224  44.3515840 111.3780514
  99.4773285  47.1690328 107.5003075  98.5684504  46.8849361 107.5975545
  99.5068368  47.5889407 106.6406382 104.7092552  50.7796917 111.2694243
 104.2554879  49.9387827 111.3259433 104.0786519  51.4158316 111.6069023
 103.6525472  41.7088903 112.4994910 102.9148228  41.1966290 112.8305153
 103.9052245  41.2689285 111.6878187 103.1525491  52.6173414 112.2044061
 103.4448466  53.1778471 111.4856426 103.6624112  52.9101975 112.9597220
  90.0461455  44.8895842 111.4818277  89.8485855  44.2965203 110.7569344
  89.4908119  44.5848052 112.1994216  98.0258179  44.7818949 113.6012870
  98.0806788  43.8292785 113.5255347  97.2149381  44.9378388 114.0854169
  99.1749372  48.7099072 104.8391154  98.7368802  47.9934931 104.3796791
  99.9159813  48.9375186 104.2776245  95.9650539  43.3996008 111.3603249
  95.1518404  43.6990179 111.7668441  96.4609533  43.0051697 112.0777732
  98.1159116  53.3953765 113.2937514  98.0735295  53.6214612 112.3646046
  99.0321815  53.1617140 113.4423315 107.2922487  46.9856269 110.8967472
 107.1540386  47.1757865 109.9688662 106.9358706  47.7475651 111.3535523
  95.4564613  40.9714364 116.9764484  96.0963993  40.8303123 116.2787448
  94.6242144  40.6848877 116.6003086  96.2324917  50.2716794 113.0899477
  97.0265516  49.7767114 112.8882052  95.5216610  49.7434657 112.7267182
 101.0519762  52.6534890 117.4411844 101.1056784  53.2225826 118.2089560
 100.1834543  52.8236775 117.0765882  92.5407681  44.4159876 109.1659229
  91.6105269  44.3544331 109.3829192  92.6365153  43.8935829 108.3695871
  92.4593230  40.9414689 111.7537471  92.7200047  41.8560022 111.6446632
  93.2810402  40.4739131 111.9034084  93.9318155  42.3552446 118.9236296
  94.6041209  42.1469808 118.2748945  93.1047942  42.1574532 118.4841528
 100.0107861  46.8195152 118.9998776 100.9399921  46.9706311 118.8267744
  99.5898891  46.9079173 118.1447423  98.8096193  50.8445816 116.7697314
  98.6707279  50.4764601 117.6423252  98.0210789  51.3593456 116.5981272
  99.4044345  55.9454913 108.1122850  99.5796101  55.4742956 108.9268473
  98.7177133  56.5720679 108.3404111 100.3601408  50.2227419 114.1586152
 100.0251241  50.1828189 115.0543802  99.8605354  49.5572135 113.6856562
  94.3345652  45.6295049 119.6838733  94.1965450  44.8975288 120.2850272
  95.2450576  45.5403949 119.4022921 103.2960600  47.5683453 104.4323211
 102.6789771  46.8430281 104.3356264 102.8277088  48.3292814 104.0890286
  96.9627953  45.3415008 119.1722412  97.6727572  44.7008200 119.1309031
  96.9197261  45.5927903 120.0948593  95.6756887  42.3280226 120.9918052
  95.1394244  41.8770965 121.6439648  95.0873595  42.4626135 120.2488516
  93.9705430  59.0944275 114.8862711  94.2102029  59.7262800 115.5641729
  93.1274627  58.7432315 115.1728070  95.0859146  41.7868878 103.5544516
  94.2088612  41.6657678 103.1906762  95.5616899  40.9954956 103.3023404
  86.6061286  46.5746037 113.6486023  87.2932326  46.2607767 113.0607038
  86.4509415  47.4787402 113.3753274  91.4096008  41.4636234 118.0771046
  91.3254197  40.8561903 117.3421456  90.5878715  41.9545252 118.0780543
  98.4833292  54.9023398 117.2904215  98.4103464  55.7078369 117.8023519
  98.0410685  55.1015364 116.4652236  98.2723072  54.1395168 110.8007036
  97.4890594  54.6816848 110.8945261  98.9715817  54.6569148 111.2001277
 101.5819722  39.9489797 113.4441241 102.0788422  39.1959760 113.1242312
 100.8106704  39.9854114 112.8784451 100.9431976  54.8010232 119.4462373
 101.6559948  55.4357697 119.3738275 100.4522005  54.8974098 118.6302375
 102.6649503  48.7061485 111.0179665 101.7305782  48.8262947 110.8484369
 102.8426171  47.8033951 110.7539675  98.1654691  42.0907180 113.1712926
  97.7952478  41.5378221 113.8593832  98.6613783  41.4865314 112.6187926
 106.0522054  44.5478804 111.5529699 106.5182506  45.3806795 111.4790002
 106.5029555  44.0823785 112.2574958  95.9943889  52.5504675 120.2667944
  96.6953349  53.1841158 120.4197338  95.5239004  52.8919407 119.5063583
 104.1198285  50.8922625 108.5515851 104.3958129  50.7779220 109.4609725
 103.2502784  50.4940110 108.5128024 100.7552349  55.1408976 112.1948665
 100.9374744  54.3230632 112.6576417 101.5785335  55.3576668 111.7573555
 101.0894515  54.0677161 109.4563713 101.6182281  53.5569616 108.8433875
 101.3522734  53.7519691 110.3209246  91.5911607  52.0841030 117.1999047
  92.1765044  51.3384718 117.3326951  91.3936446  52.3944987 118.0835711
  94.4450263  55.1192278 112.2161489  93.7760638  55.6038405 111.7325529
  94.3063132  55.3661498 113.1304868  86.1829262  44.6546631 115.9203490
  86.2213362  44.1210221 116.7140608  85.6769555  44.1281836 115.3014467
  98.5855531  57.1536021 118.8144147  99.1373839  57.3167643 119.5793233
  98.9261725  57.7440459 118.1424172  93.5620024  39.5011171 119.4166032
  93.6261351  40.3626002 119.0043430  93.4987145  38.8885173 118.6838391
  89.8137840  43.3810733 108.9957421  90.1091281  42.4721411 108.9424475
  88.9125876  43.3598472 108.6738424 101.7223919  55.1017997 115.8007830
 101.5975058  54.3007737 115.2918775 102.3803010  55.5964190 115.3121800
  93.3432087  41.4566729 114.9784970  92.6218673  42.0702697 114.8392443
  94.1325343  41.9924494 114.9001616 103.7858827  52.9027017 117.4287380
 102.8389162  52.7832368 117.3565706 104.1341600  52.0149515 117.5113641
  91.5425681  41.0624830 109.1196746  91.2138388  40.1822209 108.9371852
  91.8965052  41.0072499 110.0073136 100.7905260  52.6979733 113.6291732
 100.6430223  51.7696441 113.8099302 101.6158754  52.7199824 113.1448807
  94.6567505  41.3497800 109.4872224  94.9963577  41.8783722 108.7650832
  95.1039625  41.6878206 110.2630791 104.3939382  53.5208292 114.7156605
 105.3185930  53.3151153 114.5781056 104.2254685  53.2724693 115.6245946
  96.6435652  39.8472422 107.6865517  97.3644014  40.2253675 107.1829234
  96.0200956  40.5661299 107.7900495 100.7866775  40.5517571 108.6223849
 101.0030389  41.4342209 108.3212677 100.3060842  40.1603784 107.8929491
  95.5265996  43.5103284 115.1994594  95.3810577  43.8243587 116.0918875
  95.0491200  44.1288184 114.6465492  97.3862379  40.5005832 115.2475483
  97.3723948  39.6046925 114.9107781  98.1034807  40.5076496 115.8813769
  99.2388510  40.9343172 117.2928611  98.9806287  41.8560243 117.2912941
  98.7073550  40.5373607 117.9829075 104.1834698  54.0393959 110.0718696
 104.3571576  53.4740382 109.3192549 104.6763590  54.8394854 109.8898186
  90.0011658  46.0508628 118.1382255  89.4565126  46.8268436 118.2702529
  90.8791008  46.3979433 117.9801376  96.7899275  39.3820212 110.5163053
  96.9115186  38.4536859 110.7153941  96.5001317  39.3958898 109.6041369
  99.6590465  37.0675123 113.6529773  99.6812162  37.1314456 112.6981753
 100.0758524  36.2279631 113.8470279 110.0374089  46.8030382 111.6908996
 110.4805235  46.0537708 111.2928119 109.1600600  46.7940519 111.3082728
 105.1709871  53.3560724 107.1715594 105.8660775  53.9767416 107.3902909
 105.5133021  52.5056075 107.4467972  90.7877680  45.1778525 121.0312412
  90.0459416  45.3261160 121.6177042  90.4670424  45.4386790 120.1679161
 107.0701294  50.8060429 108.7002925 107.5952618  51.1447702 107.9752245
 106.9823646  49.8707445 108.5166060  98.7321343  54.7194503 120.8292802
  99.0408469  54.4743650 121.7015501  99.5296825  54.9241141 120.3411672
  98.7541955  56.8732413 113.0598178  98.3146945  56.3808791 113.7531035
  99.5050072  56.3305380 112.8190254  91.2334294  53.0643953 113.0622806
  92.0592314  52.7647725 112.6821450  90.8828346  52.2951576 113.5112595
  96.2015827  52.4170422 115.1320480  95.5795836  51.7541127 114.8322708
  96.8720694  52.4431554 114.4494128  89.4342899  50.9830280 114.0211740
  88.5974807  50.5552454 113.8395741  89.4066544  51.1762723 114.9582531
  95.7629334  50.9674345 108.6078941  95.9117454  51.6509809 107.9545613
  96.5695777  50.9479435 109.1228396  93.5181967  46.9939523 109.6140009
  93.2728009  46.0901853 109.8120220  93.6877881  46.9956673 108.6719487
  92.7877614  42.7267880 107.1126171  92.0946859  42.8012235 106.4566207
  92.5429366  41.9628224 107.6347688  99.2624739  53.4622475 106.0790688
  98.6898706  54.0812663 105.6261160  99.8357533  54.0121837 106.6130610
 102.4821999  53.7459626 107.2099270 103.4152672  53.6805187 107.4132146
 102.3945212  54.5815892 106.7513803 105.1110016  53.0625496 104.1703218
 105.0323647  52.7285360 105.0638976 105.9319682  53.5547264 104.1694690
  99.6471538  44.7983288 103.4206740 100.5930642  44.6689496 103.4895159
  99.2685783  44.0597950 103.8976169  97.8314455  42.7233265 103.3561626
  96.9245910  42.4266377 103.4324339  98.1090436  42.4263083 102.4895912
  88.7492395  44.0439628 113.8060672  88.4295180  43.1904936 113.5135046
  88.2025823  44.2588206 114.5618639  92.5272303  46.7602069 117.5230179
  92.7458313  47.6919177 117.5418212  92.9398077  46.4010043 118.3084982
  99.4476521  37.2670154 109.5105867  98.6377249  36.9217239 109.8861113
 100.1360938  36.9577698 110.0993479 101.3767069  36.3448201 111.1330164
 101.9298107  36.7643655 111.7920187 101.6137155  35.4183949 111.1753120
  96.6013240  39.5820200 103.4973605  97.4632403  39.9075098 103.7569422
  96.7863584  38.7951696 102.9846671  88.6180655  47.6642539 115.7753794
  87.9244127  47.2496492 115.2623748  89.3653646  47.7063076 115.1787213
 104.7545876  38.4548726 110.6408828 104.1744545  39.1133530 110.2586880
 104.4881809  37.6326071 110.2296245  90.5317398  47.5960793 113.6519809
  90.5088086  47.6948481 112.7001692  90.8418034  48.4425944 113.9736975
  93.1904776  49.6536948 117.7666423  94.1448029  49.6220891 117.6996355
  92.9917299  49.1927572 118.5816649  93.7804158  48.2238064 120.3337221
  94.5997047  48.7182143 120.3572058  94.0540966  47.3070032 120.3054788
 103.5370754  40.6148817 109.6965176 102.6496609  40.8998467 109.4785371
 103.9524743  40.4542580 108.8492453  91.5455004  55.1956568 114.7836621
  91.4109472  54.4356969 114.2174619  91.1287067  55.9197468 114.3165410
 102.6813967  50.3793491 103.7913196 103.3849818  50.5843494 104.4070852
 101.9576616  50.9470253 104.0562280 103.5111778  46.1303353 109.9115466
 103.4546979  46.5871904 109.0723099 104.0640120  45.3694037 109.7338309
 107.3216584  41.9193084 110.7365586 107.0653518  41.5189720 111.5673794
 106.6969452  42.6336878 110.6115725  94.7024130  56.0925885 114.9955064
  94.5856514  57.0371317 114.8933754  93.8816577  55.7899446 115.3840863
 104.5900665  50.8176021 105.8411656 105.4246269  50.3857219 105.6589131
 104.4285008  50.6458034 106.7688551 104.2446557  47.3208134 107.2067996
 104.1895361  47.1552405 106.2656440 103.6192612  48.0284167 107.3630185
  89.0339072  42.5576198 121.0329418  89.6797936  42.0475152 121.5216643
  88.8256223  43.2944880 121.6072843  97.5542683  36.8216243 106.7853314
  97.5421352  37.7658083 106.9421585  98.4466104  36.6386388 106.4912775
  95.7278644  56.7454147 118.2110992  96.6305891  56.7777757 118.5277487
  95.5016015  55.8154598 118.2257328  97.4832246  55.4985133 114.8721071
  96.5327877  55.4986995 114.7585443  97.7864733  54.7517868 114.3557105
 101.3694802  33.4159019 111.0399251 100.6027198  32.8617506 111.1855933
 101.7805507  33.4880888 111.9013402 110.0274646  61.2873100 115.8728358
 109.6893158  61.1714164 114.9848893 110.8964414  60.8864265 115.8529364
 105.8861462  63.1408576 111.8625249 105.3226327  63.0498513 111.0941536
 105.7713857  62.3208481 112.3427741 103.4325894  64.6359768 114.7009469
 104.2247186  64.2950592 114.2855768 103.6722544  64.7454743 115.6211622
 111.4661021  66.8079544 107.1739714 110.8149000  67.3933624 106.7873727
 112.2605383  67.3385739 107.2334751 105.3916648  63.8968681 107.5726848
 106.1647524  63.3497668 107.4339724 105.7442047  64.7612930 107.7841309
 107.7282926  60.0561347 105.2045298 107.9808446  59.5342868 104.4428761
 106.7907485  59.8927493 105.3071981 112.7726208  59.0597125 113.0120041
 113.5589298  58.6416549 112.6610458 113.0364913  59.9643218 113.1801689
 112.9436286  64.4969976 107.7108698 112.3082119  64.5704602 108.4229602
 112.6133692  65.0863575 107.0327777 107.4479214  61.9589453 107.4069673
 107.3315472  61.2834356 108.0750757 107.5581474  61.4721827 106.5901826
 109.7910755  61.4199600 111.1116362 109.4268963  60.8930221 111.8229283
 110.6477871  61.0298069 110.9382847 109.4316242  56.4489500 106.1077710
 109.5990645  57.3169736 106.4748182 109.2413411  56.6116782 105.1839000
 105.6404057  61.3620276 113.8080245 104.7154553  61.2296490 114.0157937
 105.8888470  62.1414495 114.3050188 109.4105463  58.9047157 107.0924377
 109.2905088  59.3504208 107.9309858 108.7158052  59.2532475 106.5337915
 103.0012868  61.0053549 114.6424034 103.1305249  61.2588028 115.5563446
 102.3210319  61.5981257 114.3228689 107.1712355  71.6750799 110.7414509
 107.0936385  72.6258624 110.8202989 106.5673999  71.3296672 111.3989435
 115.1090529  59.3768631 107.9204711 116.0208385  59.6096017 107.7452409
 114.6000176  59.9605675 107.3579790 109.2688073  64.0968857 112.5768378
 109.7326419  64.3756560 111.7873000 109.0044872  63.1952302 112.3941469
 106.1612155  63.6440339 115.5148141 106.7313512  64.0727607 114.8765626
 106.7520266  63.3622923 116.2132327 108.2056960  60.2192009 109.3857943
 108.9081003  60.6713053 109.8531869 107.8737588  59.5775828 110.0137836
 101.9482294  58.4775562 114.6875077 101.1581347  58.7333091 114.2115187
 102.4393541  59.2923900 114.7927117 103.8997039  58.8420141 111.6458553
 103.1028202  58.9538836 112.1642049 103.6722631  59.1806794 110.7799444
 100.2319996  58.7306053 117.1190067 100.4828035  59.6153062 117.3847643
 100.7679545  58.5510654 116.3465159 109.4450724  67.0332952 109.4620048
 109.3096399  67.8784488 109.8904896 109.9860537  67.2352230 108.6985982
 102.8980122  64.5508390 110.0347973 103.4104642  65.3451640 110.1853538
 103.5502834  63.8534681 109.9681575 104.7075006  67.6674146 112.1170727
 104.8841635  68.5892111 111.9291710 105.5031840  67.3532566 112.5465106
 100.8629038  62.8797044 110.8107544 101.7004260  63.2894053 110.5941252
 101.0407306  61.9396487 110.7807738 112.7593470  60.5472125 106.4991377
 112.2440094  61.3176730 106.7379764 112.4870779  59.8737261 107.1224438
 110.3440581  55.3921826 111.5576615 109.4882178  55.0028676 111.3782254
 110.7567533  55.4713787 110.6976401 108.1182614  53.0106899 114.9634357
 108.9835611  52.8149708 114.6040246 108.1860123  52.7817251 115.8903713
 117.7327745  63.3004480 108.4344550 116.9557187  62.9615639 107.9899712
 118.4119226  63.3057103 107.7599515 112.5479774  58.4199217 108.3251158
 112.2429909  58.7345366 109.1761301 113.5010216  58.4980637 108.3678491
 110.9926205  64.5789441 109.9744112 110.4647567  63.8442200 109.6617349
 110.4913708  65.3564117 109.7284080 105.7244933  55.2409107 112.3350724
 106.2988685  55.0184288 111.6023916 106.3115916  55.3097801 113.0879325
 114.7824510  61.1282834 113.1415100 115.2956392  61.7612826 113.6436810
 115.4325734  60.5284029 112.7758460 106.0514520  57.2713568 106.3546609
 105.2151832  57.6088254 106.6755884 105.9119290  57.1362548 105.4173746
 108.0267601  52.1150356 111.0625793 107.3732013  51.7999373 110.4382408
 107.9848075  51.4926096 111.7885616 109.1378806  62.3969651 102.9779085
 108.2305867  62.1658904 103.1770234 109.6349838  61.6007270 103.1653067
 112.0446885  71.1067158 105.8975771 111.3708583  71.4098855 106.5060729
 112.4312707  71.9096238 105.5481228 111.2605341  58.6032289 115.3873441
 110.3427903  58.8247236 115.2295129 111.6765485  58.6778600 114.5285148
 112.0440389  60.0023705 110.5176121 112.7912208  60.5145102 110.2083243
 112.3131978  59.6807758 111.3780514 110.3167039  62.4982246 107.5003075
 109.4078258  62.2141278 107.5975545 110.3462123  62.9181324 106.6406382
 114.4919226  57.0380821 112.4994910 113.7541983  56.5258207 112.8305153
 114.7446000  56.5981203 111.6878187 100.8855209  60.2187760 111.4818277
 100.6879609  59.6257120 110.7569344 100.3301873  59.9139970 112.1994216
 108.8651933  60.1110866 113.6012870 108.9200543  59.1584703 113.5255347
 108.0543135  60.2670305 114.0854169 110.0143127  64.0390989 104.8391154
 109.5762557  63.3226848 104.3796791 110.7553568  64.2667104 104.2776245
 106.8044293  58.7287926 111.3603249 105.9912159  59.0282097 111.7668441
 107.3003287  58.3343615 112.0777732 118.1316242  62.3148186 110.8967472
 117.9934140  62.5049782 109.9688662 117.7752460  63.0767569 111.3535523
 106.2958368  56.3006281 116.9764484 106.9357747  56.1595041 116.2787448
 105.4635898  56.0140795 116.6003086 107.0718672  65.6008712 113.0899477
 107.8659270  65.1059032 112.8882052 106.3610364  65.0726575 112.7267182
 103.3801435  59.7451794 109.1659229 102.4499023  59.6836249 109.3829192
 103.4758907  59.2227746 108.3695871 103.2986984  56.2706606 111.7537471
 103.5593802  57.1851940 111.6446632 104.1204157  55.8031049 111.9034084
 104.7711910  57.6844364 118.9236296 105.4434963  57.4761726 118.2748945
 103.9441696  57.4866450 118.4841528 110.2438100  71.2746830 108.1122850
 110.4189855  70.8034874 108.9268473 109.5570888  71.9012597 108.3404111
 114.1354355  62.8975371 104.4323211 113.5183525  62.1722199 104.3356264
 113.6670843  63.6584731 104.0890286 105.9252900  57.1160795 103.5544516
 105.0482367  56.9949596 103.1906762 106.4010653  56.3246874 103.3023404
  97.4455041  61.9037955 113.6486023  98.1326080  61.5899685 113.0607038
  97.2903169  62.8079320 113.3753274 102.2489763  56.7928152 118.0771046
 102.1647951  56.1853821 117.3421456 101.4272469  57.2837170 118.0780543
 109.1116826  69.4687086 110.8007036 108.3284348  70.0108766 110.8945261
 109.8109572  69.9861065 111.2001277 112.4213477  55.2781715 113.4441241
 112.9182176  54.5251677 113.1242312 111.6500458  55.3146032 112.8784451
 113.5043257  64.0353402 111.0179665 112.5699536  64.1554865 110.8484369
 113.6819926  63.1325869 110.7539675 109.0048445  57.4199098 113.1712926
 108.6346233  56.8670138 113.8593832 109.5007538  56.8157232 112.6187926
 116.8915809  59.8770722 111.5529699 117.3576261  60.7098713 111.4790002
 117.3423309  59.4115703 112.2574958 114.9592040  66.2214543 108.5515851
 115.2351884  66.1071137 109.4609725 114.0896538  65.8232028 108.5128024
 111.9288269  69.3969079 109.4563713 112.4576036  68.8861533 108.8433875
 112.1916489  69.0811609 110.3209246  97.0223017  59.9838548 115.9203490
  97.0607116  59.4502139 116.7140608  96.5163310  59.4573754 115.3014467
 104.4013779  54.8303089 119.4166032 104.4655105  55.6917920 119.0043430
 104.3380899  54.2177090 118.6838391 100.6531594  58.7102650 108.9957421
 100.9485035  57.8013329 108.9424475  99.7519630  58.6890390 108.6738424
 104.1825841  56.7858647 114.9784970 103.4612427  57.3994615 114.8392443
 104.9719097  57.3216412 114.9001616 102.3819436  56.3916748 109.1196746
 102.0532142  55.5114127 108.9371852 102.7358807  56.3364417 110.0073136
 105.4961259  56.6789718 109.4872224 105.8357332  57.2075639 108.7650832
 105.9433379  57.0170124 110.2630791 107.4829406  55.1764340 107.6865517
 108.2037769  55.5545592 107.1829234 106.8594710  55.8953216 107.7900495
 111.6260529  55.8809489 108.6223849 111.8424143  56.7634126 108.3212677
 111.1454596  55.4895702 107.8929491 106.3659750  58.8395202 115.1994594
 106.2204331  59.1535505 116.0918875 105.8884954  59.4580102 114.6465492
 108.2256133  55.8297750 115.2475483 108.2117702  54.9338843 114.9107781
 108.9428561  55.8368413 115.8813769 110.0782264  56.2635090 117.2928611
 109.8200042  57.1852161 117.2912941 109.5467304  55.8665524 117.9829075
 100.8405413  61.3800546 118.1382255 100.2958881  62.1560354 118.2702529
 101.7184762  61.7271351 117.9801376 107.6293029  54.7112130 110.5163053
 107.7508940  53.7828776 110.7153941 107.3395072  54.7250816 109.6041369
 110.4984220  52.3967040 113.6529773 110.5205916  52.4606374 112.6981753
 110.9152279  51.5571549 113.8470279 116.0103625  68.6852641 107.1715594
 116.7054530  69.3059334 107.3902909 116.3526775  67.8347993 107.4467972
 117.9095048  66.1352347 108.7002925 118.4346372  66.4739620 107.9752245
 117.8217401  65.1999362 108.5166060 102.0728048  68.3935871 113.0622806
 102.8986068  68.0939643 112.6821450 101.7222100  67.6243494 113.5112595
 100.2736653  66.3122198 114.0211740  99.4368561  65.8844372 113.8395741
 100.2460299  66.5054641 114.9582531 106.6023088  66.2966263 108.6078941
 106.7511209  66.9801727 107.9545613 107.4089532  66.2771353 109.1228396
 104.3575721  62.3231440 109.6140009 104.1121763  61.4193770 109.8120220
 104.5271636  62.3248591 108.6719487 103.6271369  58.0559798 107.1126171
 102.9340614  58.1304153 106.4566207 103.3823121  57.2920142 107.6347688
 110.1018494  68.7914393 106.0790688 109.5292461  69.4104580 105.6261160
 110.6751287  69.3413755 106.6130610 113.3215753  69.0751543 107.2099270
 114.2546427  69.0097105 107.4132146 113.2338966  69.9107810 106.7513803
 115.9503770  68.3917414 104.1703218 115.8717402  68.0577277 105.0638976
 116.7713437  68.8839182 104.1694690 110.4865292  60.1275206 103.4206740
 111.4324397  59.9981414 103.4895159 110.1079537  59.3889868 103.8976169
 108.6708209  58.0525182 103.3561626 107.7639665  57.7558295 103.4324339
 108.9484190  57.7555000 102.4895912  99.5886150  59.3731546 113.8060672
  99.2688934  58.5196854 113.5135046  99.0419578  59.5880124 114.5618639
 103.3666057  62.0893987 117.5230179 103.5852067  63.0211094 117.5418212
 103.7791831  61.7301961 118.3084982 110.2870275  52.5962072 109.5105867
 109.4771003  52.2509157 109.8861113 110.9754692  52.2869616 110.0993479
 112.2160823  51.6740119 111.1330164 112.7691862  52.0935572 111.7920187
 112.4530910  50.7475867 111.1753120 107.4406994  54.9112117 103.4973605
 108.3026158  55.2367016 103.7569422 107.6257338  54.1243613 102.9846671
  99.4574410  62.9934457 115.7753794  98.7637881  62.5788410 115.2623748
 100.2047401  63.0354994 115.1787213 115.5939630  53.7840644 110.6408828
 115.0138300  54.4425448 110.2586880 115.3275563  52.9617989 110.2296245
 101.3711152  62.9252711 113.6519809 101.3481840  63.0240398 112.7001692
 101.6811789  63.7717862 113.9736975 114.3764508  55.9440734 109.6965176
 113.4890364  56.2290385 109.4785371 114.7918498  55.7834498 108.8492453
 113.5207722  65.7085409 103.7913196 114.2243572  65.9135412 104.4070852
 112.7970371  66.2762171 104.0562280 114.3505532  61.4595270 109.9115466
 114.2940734  61.9163822 109.0723099 114.9033875  60.6985955 109.7338309
 118.1610338  57.2485002 110.7365586 117.9047272  56.8481638 111.5673794
 117.5363206  57.9628796 110.6115725 115.4294419  66.1467938 105.8411656
 116.2640023  65.7149137 105.6589131 115.2678762  65.9749952 106.7688551
 115.0840312  62.6500052 107.2067996 115.0289115  62.4844323 106.2656440
 114.4586367  63.3576084 107.3630185  99.8732827  57.8868116 121.0329418
 100.5191690  57.3767070 121.5216643  99.6649978  58.6236798 121.6072843
 108.3936437  52.1508161 106.7853314 108.3815107  53.0950000 106.9421585
 109.2859859  51.9678306 106.4912775 112.2088556  48.7450937 111.0399251
 111.4420952  48.1909424 111.1855933 112.6199261  48.8172806 111.9013402
 116.8908275  72.6005485 106.3546609 116.0545587  72.9380172 106.6755884
 116.7513044  72.4654465 105.4173746 116.7646655  72.4452713 103.5544516
 115.8876121  72.3241514 103.1906762 117.2404408  71.6538791 103.3023404
 114.4665123  73.3851716 107.1126171 113.7734368  73.4596071 106.4566207
 114.2216875  72.6212059 107.6347688 119.5101964  73.3817100 103.3561626
 118.6033419  73.0850213 103.4324339 119.7877945  73.0846918 102.4895912
 118.2800748  70.2404035 103.4973605 119.1419912  70.5658933 103.7569422
 118.4651093  69.4535531 102.9846671 119.2330191  67.4800078 106.7853314
 119.2208861  68.4241918 106.9421585 120.1253613  67.2970224 106.4912775
  74.6531093   2.6937169  97.4659815  74.5755123   3.6444994  97.5448296
  74.0492737   2.3483041  98.1234741  72.2917923   5.4422563 101.6108017
  72.5314521   6.0741087 102.2887036  71.4487119   5.0910603 101.8973376
  72.7662755   1.4670565  98.9406796  72.0973130   1.9516693  98.4570836
  72.6275625   1.7139786  99.8550174  76.9068024   3.5014309 105.5389454
  77.4586332   3.6645930 106.3038539  77.2474217   4.0918746 104.8669479
  77.0754447   3.2210700  99.7843485  76.6359437   2.7287079 100.4776342
  77.8262564   2.6783667  99.5435560  69.8667497   1.5434855 101.5081928
  69.7321965   0.7835256 100.9419926  69.4499559   2.2675755 101.0410716
  73.0236623   2.4404172 101.7200370  72.9069007   3.3849605 101.6179060
  72.2029069   2.1377734 102.1086169  74.0491137   3.0932434 104.9356299
  74.9518383   3.1256044 105.2522794  73.8228507   2.1632885 104.9502634
  88.3487139   7.6351387 102.5973664  88.0105650   7.5192452 101.7094199
  89.2176907   7.2342552 102.5774670  84.2073954   9.4886863  98.5870555
  83.6438819   9.3976800  97.8186843  84.0926349   8.6686768  99.0673048
  81.7538386  10.9838055 101.4254776  82.5459678  10.6428880 101.0101075
  81.9935036  11.0933030 102.3456929  89.7873513  13.1557831  93.8985020
  89.1361493  13.7411912  93.5119034  90.5817876  13.6864026  93.9580058
  83.7129140  10.2446968  94.2972155  84.4860016   9.6975955  94.1585030
  84.0654539  11.1091218  94.5086616  85.5514183  11.5723351 107.5039054
  85.2604049  12.4768981 107.3885720  86.1871167  11.6139878 108.2183123
  86.4770390   8.9500199 104.0940413  87.0733962   8.7256221 103.3797376
  86.5345361   8.2084945 104.6965861  86.0495418   6.4039634  91.9290604
  86.3020939   5.8821156  91.1674067  85.1119977   6.2405780  92.0317288
  91.2648778  10.8448263  94.4354004  90.6294611  10.9182890  95.1474909
  90.9346184  11.4341862  93.7573084  85.7691707   8.3067740  94.1314979
  85.6527965   7.6312644  94.7996064  85.8793967   7.8200114  93.3147132
  88.1123248   7.7677887  97.8361669  87.7481455   7.2408508  98.5474590
  88.9690363   7.3776356  97.6628154  90.5104068  11.2584766 104.4988847
  90.2104791  12.1609805 104.3904655  90.1655127  10.9916949 105.3510000
  83.9616549   7.7098563 100.5325552  83.0367046   7.5774777 100.7403244
  84.2100962   8.4892782 101.0295494  81.3225360   7.3531836 101.3669341
  81.4517741   7.6066315 102.2808753  80.6422812   7.9459544 101.0473996
  85.4924848  18.0229086  97.4659815  85.4148877  18.9736911  97.5448296
  84.8886491  17.6774959  98.1234741  86.2388450   8.0042405 109.6839149
  86.9803134   8.5427449 109.4073973  85.5325435   8.6308694 109.8410701
  92.0372604  10.7072736 102.0363599  91.4081466  10.8718450 101.3339667
  91.6498266  11.1214346 102.8074563  95.9161836  11.6427174  99.3907963
  95.2312874  12.0226075  98.8404997  96.0005685  12.2522501 100.1239911
  87.5900566  10.4447144  99.3013685  88.0538911  10.7234847  98.5118307
  87.3257364   9.5430589  99.1186775  84.4824647   9.9918626 102.2393448
  85.0526004  10.4205894 101.6010932  85.0732759   9.7101211 102.9377633
  86.5269452   6.5670297  96.1103250  87.2293495   7.0191340  96.5777176
  86.1950080   5.9254116  96.7383143  80.2694786   4.8253849 101.4120383
  79.4793840   5.0811378 100.9360494  80.7606033   5.6402187 101.5172424
  94.2858595  12.1659089 104.1625664  95.1076039  11.7639276 103.8808346
  94.2820998  12.0627323 105.1141780  82.2209531   5.1898429  98.3703860
  81.4240694   5.3017123  98.8887356  81.9935123   5.5285081  97.5044750
  88.0515199  11.7143132 106.3186375  88.1159631  12.1763539 107.1544546
  87.3426123  11.0840497 106.4468684  78.5532489   5.0784340 103.8435374
  78.8040527   5.9631350 104.1092950  79.0892037   4.8988941 103.0710466
  87.7663216  13.3811239  96.1865355  87.6308891  14.2262775  96.6150203
  88.3073029  13.5830517  95.4231289  81.2192614  10.8986677  96.7593280
  81.7317134  11.6929928  96.9098845  81.8715327  10.2012968  96.6926881
  83.0287499  14.0152434  98.8416033  83.2054127  14.9370398  98.6537017
  83.8244332  13.7010853  99.2710413  82.3139855   6.0617066 108.7178196
  82.1993370   5.1602323 109.0185295  81.4584373   6.3080762 108.3663013
  89.3931693  14.0034806 110.3165697  88.9495547  13.2171184 109.9986601
  90.0548906  14.1913956 109.6509588  84.1518814  15.5330607 104.8426376
  84.7026239  15.4047671 104.0703369  83.3130290  15.8325496 104.4921268
  87.9485985  11.7981735 109.1870607  88.4814322  11.0370023 108.9569915
  87.4200066  11.5055387 109.9294761  79.1841531   9.2275332  97.5352851
  80.0216753   9.6372340  97.3186558  79.3619798   8.2874774  97.5053044
  96.0540237   9.6482767  95.1589857  95.2769680   9.3093926  94.7145019
  96.7331718   9.6535390  94.4844822  89.3138698  10.9267728  96.6989419
  88.7860059  10.1920487  96.3862656  88.8126200  11.7042404  96.4529387
  94.2931544   9.1216748 101.8156465  93.6355218   9.8116010 101.9036594
  95.0971943   9.5113180 102.1590451  87.4591298   8.7447938  89.7024392
  86.5518360   8.5137191  89.9015541  87.9562330   7.9485557  89.8898373
  90.3659377  17.4545445  92.6221078  89.6921076  17.7577142  93.2306036
  90.7525199  18.2574526  92.2726535  88.6379531   8.8460533  94.2248382
  87.7290751   8.5619566  94.3220852  88.6674615   9.2659611  93.3651689
  93.8698799  12.4567122  97.9939549  93.4161126  11.6158032  98.0504740
  93.2392765  13.0928521  98.3314329  92.3131738  14.2943619  98.9289367
  92.6054712  14.8548676  98.2101733  92.8230359  14.5872180  99.6842527
  79.2067702   6.5666047  98.2063584  79.0092102   5.9735408  97.4814651
  78.6514366   6.2618257  98.9239523  88.3355619  10.3869277  91.5636460
  87.8975049   9.6705135  91.1042098  89.0766060  10.6145391  91.0021552
  87.2765363  15.0723970 100.0182821  87.2341542  15.2984816  99.0891353
  88.1928062  14.8387345 100.1668622  85.3931164  11.9486999  99.8144783
  86.1871762  11.4537319  99.6127358  84.6822856  11.4204862  99.4512489
  90.2126008  14.3305095 104.1657151  90.2663031  14.8996031 104.9334867
  89.3440790  14.5006980 103.8011188  81.7013927   6.0930081  95.8904536
  80.7711516   6.0314536  96.1074498  81.7971399   5.5706034  95.0941177
  89.1714108   8.4965357 105.7244083  90.1006168   8.6476516 105.5513050
  88.7505138   8.5849378 104.8692729  87.9702440  12.5216021 103.4942621
  87.8313526  12.1534806 104.3668559  87.1817036  13.0363661 103.3226578
  88.5650592  17.6225118  94.8368157  88.7402348  17.1513161  95.6513780
  87.8783380  18.2490884  95.0649418  89.5207655  11.8997624 100.8831458
  89.1857488  11.8598394 101.7789108  89.0211601  11.2342340 100.4101869
  83.4951899   7.3065254 106.4084039  83.3571697   6.5745493 107.0095578
  84.4056823   7.2174154 106.1268227  92.4566847   9.2453658  91.1568518
  91.8396017   8.5200486  91.0601571  91.9883335  10.0063018  90.8135592
  86.1234200   7.0185213 105.8967719  86.8333818   6.3778405 105.8554338
  86.0803508   7.2698108 106.8193900  83.1311677  20.7714480 101.6108017
  83.3708275  21.4033005 102.2887036  82.2880874  20.4202520 101.8973376
  75.7667533   8.2516242 100.3731329  76.4538573   7.9377972  99.7852345
  75.6115662   9.1557607 100.0998581  87.6439539  16.5793603 104.0149521
  87.5709711  17.3848574 104.5268826  87.2016932  16.7785569 103.1897543
  87.4329319  15.8165373  97.5252343  86.6496841  16.3587053  97.6190567
  88.1322064  16.3339352  97.9246584  90.1038223  16.4780437 106.1707680
  90.8166195  17.1127902 106.0983581  89.6128251  16.5744303 105.3547682
  91.8255750  10.3831690  97.7424972  90.8912028  10.5033152  97.5729676
  92.0032418   9.4804156  97.4784981  85.1550136  14.2274880 106.9913251
  85.8559596  14.8611363 107.1442645  84.6845251  14.5689612 106.2308890
  93.2804532  12.5692830  95.2761158  93.5564376  12.4549425  96.1855032
  92.4109031  12.1710315  95.2373331  89.9158596  16.8179181  98.9193971
  90.0980991  16.0000837  99.3821724  90.7391582  17.0346873  98.4818861
  90.2500762  15.7447366  96.1809020  90.7788528  15.2339821  95.5679182
  90.5128981  15.4289896  97.0454553  80.7517854  13.7611235 103.9244353
  81.3371291  13.0154923 104.0572258  80.5542693  14.0715192 104.8081017
  83.6056509  16.7962483  98.9406796  82.9366885  17.2808610  98.4570836
  83.4669379  17.0431703  99.8550174  75.3435509   6.3316836 102.6448796
  75.3819608   5.7980426 103.4385915  74.8375802   5.8052041 102.0259774
  87.7461778  18.8306226 105.5389454  88.2980086  18.9937848 106.3038539
  88.0867971  19.4210664 104.8669479  78.9744087   5.0580938  95.7202728
  79.2697528   4.1491616  95.6669782  78.0732122   5.0368677  95.3983730
  90.8830165  16.7788202 102.5253136  90.7581305  15.9777942 102.0164082
  91.5409256  17.2734395 102.0367106  92.9465074  14.5797222 104.1532686
  91.9995409  14.4602573 104.0811013  93.2947847  13.6919720 104.2358948
  89.9511507  14.3749938 100.3537039  89.8036469  13.4466646 100.5344609
  90.7765001  14.3970029  99.8694114  93.5545629  15.1978497 101.4401911
  94.4792176  14.9921358 101.3026362  93.3860932  14.9494898 102.3491253
  84.6872243   5.1873489 101.9239900  84.5416823   5.5013792 102.8164182
  84.2097446   5.8058389 101.3710799  93.3440945  15.7164164  96.7964003
  93.5177823  15.1510587  96.0437855  93.8369836  16.5165059  96.6143493
  79.1617905   7.7278833 104.8627562  78.6171373   8.5038641 104.9947836
  80.0397255   8.0749638 104.7046683  94.3316118  15.0330929  93.8960901
  95.0267022  15.6537621  94.1148216  94.6739268  14.1826280  94.1713279
  79.9483927   6.8548730 107.7557718  79.2065663   7.0031365 108.3422349
  79.6276671   7.1156995 106.8924468  96.2307541  12.4830634  95.4248232
  96.7558865  12.8217907  94.6997552  96.1429893  11.5477650  95.2411366
  87.8927589  16.3964708 107.5538108  88.2014716  16.1513855 108.4260808
  88.6903071  16.6011346 107.0656979  87.9148201  18.5502618  99.7843485
  87.4753192  18.0578996 100.4776342  88.6656318  18.0075585  99.5435560
  80.3940540  14.7414158  99.7868113  81.2198560  14.4417930  99.4066757
  80.0434592  13.9721781 100.2357902  85.3622074  14.0940627 101.8565787
  84.7402083  13.4311332 101.5568015  86.0326940  14.1201758 101.1739434
  78.5949145  12.6600485 100.7457047  77.7581054  12.2322659 100.5641048
  78.5672791  12.8532928 101.6827838  84.9235580  12.6444550  95.3324247
  85.0723701  13.3280014  94.6790920  85.7302024  12.6249640  95.8473703
  82.6788213   8.6709728  96.3385316  82.4334255   7.7672058  96.5365526
  82.8484128   8.6726878  95.3964794  88.4230986  15.1392680  92.8035995
  87.8504953  15.7582868  92.3506467  88.9963780  15.6892042  93.3375917
  91.6428246  15.4229831  93.9344577  92.5758919  15.3575392  94.1377452
  91.5551459  16.2586097  93.4759110  94.2716262  14.7395701  90.8948524
  94.1929894  14.4055564  91.7884282  95.0925929  15.2317469  90.8939997
  77.9098642   5.7209833 100.5305979  77.5901426   4.8675141 100.2380353
  77.3632070   5.9358411 101.2863946  81.6878550   8.4372274 104.2475485
  81.9064559   9.3689382 104.2663519  82.1004323   8.0780248 105.0330289
  77.7786902   9.3412744 102.4999100  77.0850373   8.9266697 101.9869055
  78.5259893   9.3833281 101.9032519  79.6923645   9.2730998 100.3765115
  79.6694333   9.3718685  99.4246998  80.0024281  10.1196149 100.6982281
  82.3511022  11.3307153 104.4911730  83.3054276  11.2991096 104.4241661
  82.1523546  10.8697777 105.3061956  82.9410405   9.9008269 107.0582527
  83.7603294  10.3952348 107.0817365  83.2147212   8.9840237 107.0300095
  80.7061251  16.8726773 101.5081928  80.5715719  16.1127174 100.9419926
  80.2893313  17.5967673 101.0410716  91.8420214  12.0563696  90.5158503
  92.5456064  12.2613699  91.1316158  91.1182863  12.6240458  90.7807586
  83.8630377  17.7696090 101.7200370  83.7462761  18.7141522 101.6179060
  83.0422823  17.4669651 102.1086169  93.7506912  12.4946225  92.5656963
  94.5852516  12.0627424  92.3834438  93.5891255  12.3228239  93.4933857
  93.4052804   8.9978339  93.9313302  93.3501608   8.8322610  92.9901746
  92.7798859   9.7054372  94.0875492  78.1945319   4.2346403 107.7574724
  78.8404182   3.7245357 108.2461950  77.9862470   4.9715085 108.3318150
  84.8884891  18.4224352 104.9356299  85.7912138  18.4547962 105.2522794
  84.6622261  17.4924803 104.9502634  86.6438493  17.1755338 101.5966377
  85.6934124  17.1757200 101.4830749  86.9470979  16.4288073 101.0802412
 102.3791187  23.0115877 102.6612140 103.0169597  22.8922624 101.9575480
 102.2612030  23.9596721 102.7200092  99.1880893  22.9643305 102.5973664
  98.8499405  22.8484369 101.7094199 100.0570661  22.5634470 102.5774670
  95.0467709  24.8178781  98.5870555  94.4832574  24.7268718  97.8186843
  94.9320104  23.9978686  99.0673048  92.5932141  26.3129973 101.4254776
  93.3853433  25.9720797 101.0101075  92.8328791  26.4224948 102.3456929
 100.6267267  28.4849749  93.8985020  99.9755247  29.0703829  93.5119034
 101.4211630  29.0155944  93.9580058  94.5522895  25.5738886  94.2972155
  95.3253771  25.0267873  94.1585030  94.9048293  26.4383135  94.5086616
  96.3907937  26.9015268 107.5039054  96.0997803  27.8060899 107.3885720
  97.0264921  26.9431796 108.2183123  97.3164144  24.2792117 104.0940413
  97.9127716  24.0548139 103.3797376  97.3739116  23.5376862 104.6965861
  96.8889172  21.7331552  91.9290604  97.1414693  21.2113073  91.1674067
  95.9513731  21.5697697  92.0317288 101.9332455  20.7367330  99.7365348
 102.7195544  20.3186754  99.3855765 102.1971160  21.6413423  99.9046996
 102.1042533  26.1740181  94.4354004 101.4688366  26.2474807  95.1474909
 101.7739939  26.7633780  93.7573084  96.6085461  23.6359658  94.1314979
  96.4921719  22.9604561  94.7996064  96.7187721  23.1492032  93.3147132
  98.9517002  23.0969805  97.8361669  98.5875209  22.5700426  98.5474590
  99.8084118  22.7068274  97.6628154  98.5922489  18.1259705  92.8323017
  98.7596891  18.9939941  93.1993488  98.4019658  18.2886987  91.9084306
 101.3497822  26.5876684 104.4988847 101.0498545  27.4901723 104.3904655
 101.0048882  26.3208867 105.3510000  94.8010304  23.0390481 100.5325552
  93.8760800  22.9066695 100.7403244  95.0494717  23.8184700 101.0295494
  98.5711710  20.5817362  93.8169684  98.4511335  21.0274413  94.6555164
  97.8764298  20.9302680  93.2583222  92.1619115  22.6823754 101.3669341
  92.2911496  22.9358233 102.2808753  91.4816566  23.2751462 101.0473996
  96.3318602  33.3521004  97.4659815  96.2542632  34.3028829  97.5448296
  95.7280246  33.0066877  98.1234741 104.2696776  21.0538835  94.6450018
 105.1814632  21.2866222  94.4697716 103.7606423  21.6375880  94.0825097
  97.0782204  23.3334323 109.6839149  97.8196888  23.8719367 109.4073973
  96.3719190  23.9600612 109.8410701  98.9068614  20.4136070 105.6544868
  99.7529809  20.8375484 105.7979517  98.8467251  19.7569694 106.3483431
 102.8766358  26.0364654 102.0363599 102.2475221  26.2010368 101.3339667
 102.4892020  26.4506263 102.8074563 106.7555590  26.9719092  99.3907963
 106.0706628  27.3517993  98.8404997 106.8399440  27.5814418 100.1239911
  98.4294320  25.7739062  99.3013685  98.8932666  26.0526765  98.5118307
  98.1651118  24.8722507  99.1186775  95.3218401  25.3210544 102.2393448
  95.8919758  25.7497812 101.6010932  95.9126513  25.0393128 102.9377633
  97.3663206  21.8962214  96.1103250  98.0687250  22.3483258  96.5777176
  97.0343835  21.2546033  96.7383143  91.1088540  20.1545767 101.4120383
  90.3187594  20.4103296 100.9360494  91.5999788  20.9694105 101.5172424
 105.1252350  27.4951006 104.1625664 105.9469794  27.0931194 103.8808346
 105.1214753  27.3919240 105.1141780  93.0603286  20.5190346  98.3703860
  92.2634449  20.6309041  98.8887356  92.8328878  20.8576999  97.5044750
  98.8908953  27.0435050 106.3186375  98.9553386  27.5055457 107.1544546
  98.1819877  26.4132414 106.4468684  89.3926243  20.4076258 103.8435374
  89.6434282  21.2923267 104.1092950  89.9285792  20.2280859 103.0710466
  98.6056971  28.7103157  96.1865355  98.4702646  29.5554693  96.6150203
  99.1466783  28.9122435  95.4231289  92.0586368  26.2278595  96.7593280
  92.5710889  27.0221845  96.9098845  92.7109081  25.5304886  96.6926881
  93.8681253  29.3444351  98.8416033  94.0447881  30.2662316  98.6537017
  94.6638087  29.0302771  99.2710413  93.1533610  21.3908983 108.7178196
  93.0387125  20.4894240 109.0185295  92.2978127  21.6372680 108.3663013
 100.2325447  29.3326724 110.3165697  99.7889302  28.5463102 109.9986601
 100.8942661  29.5205874 109.6509588  94.9912568  30.8622525 104.8426376
  95.5419994  30.7339588 104.0703369  94.1524044  31.1617414 104.4921268
  98.7879740  27.1273653 109.1870607  99.3208076  26.3661941 108.9569915
  98.2593821  26.8347305 109.9294761  90.0235285  24.5567249  97.5352851
  90.8610507  24.9664258  97.3186558  90.2013553  23.6166692  97.5053044
 101.9199717  22.2242330  93.2236683 101.4046341  22.9946935  93.4625071
 101.6477026  21.5507466  93.8469745  99.5046828  17.0692031  98.2821922
  98.6488425  16.6798881  98.1027561  99.9173780  17.1483992  97.4221707
  97.2788861  14.6877104 101.6879663  98.1441858  14.4919912 101.3285553
  97.3466370  14.4587456 102.6149020 106.8933991  24.9774685  95.1589857
 106.1163434  24.6385844  94.7145019 107.5725472  24.9827308  94.4844822
 101.7086020  20.0969422  95.0496465 101.4036156  20.4115571  95.9006608
 102.6616463  20.1750842  95.0923798 100.1532452  26.2559645  96.6989419
  99.6253814  25.5212405  96.3862656  99.6519955  27.0334322  96.4529387
 105.1325298  24.4508666 101.8156465 104.4748973  25.1407927 101.9036594
 105.9365697  24.8405098 102.1590451  94.8851180  16.9179312  99.0596030
  95.4594932  16.6954493  98.3269223  95.4722162  16.9868006  99.8124631
 103.9430757  22.8053039  99.8660407 104.4562639  23.4383030 100.3682116
 104.5931981  22.2054234  99.5003767  95.2120767  18.9483773  93.0791915
  94.3758079  19.2858459  93.4001190  95.0725537  18.8132753  92.1419052
  97.1873848  13.7920561  97.7871100  96.5338260  13.4769578  97.1627714
  97.1454322  13.1696301  98.5130923  98.2985052  24.0739856  89.7024392
  97.3912114  23.8429109  89.9015541  98.7956084  23.2777475  89.8898373
 101.2053131  32.7837363  92.6221078 100.5314830  33.0869060  93.2306036
 101.5918953  33.5866443  92.2726535 100.4211588  20.2802494 102.1118747
  99.5034149  20.5017441 101.9540435 100.8371732  20.3548805 101.2530455
 101.2046636  21.6793910  97.2421427 101.9518455  22.1915307  96.9328550
 101.4738225  21.3577963  98.1025821  99.4773286  24.1752451  94.2248382
  98.5684505  23.8911483  94.3220852  99.5068370  24.5951529  93.3651689
 104.7092553  27.7859040  97.9939549 104.2554880  26.9449950  98.0504740
 104.0786520  28.4220438  98.3314329 103.6525473  18.7151026  99.2240217
 102.9148230  18.2028412  99.5550459 103.9052246  18.2751408  98.4123494
 103.1525493  29.6235537  98.9289367 103.4448467  30.1840594  98.2101733
 103.6624113  29.9164098  99.6842527  90.0461456  21.8957965  98.2063584
  89.8485856  21.3027325  97.4814651  89.4908120  21.5910175  98.9239523
  98.0258180  21.7881071 100.3258177  98.0806790  20.8354908 100.2500654
  97.2149382  21.9440510 100.8099476  99.1749374  25.7161194  91.5636460
  98.7368804  24.9997053  91.1042098  99.9159815  25.9437309  91.0021552
  95.9650540  20.4058131  98.0848556  95.1518405  20.7052301  98.4913748
  96.4609534  20.0113820  98.8023038  98.1159118  30.4015888 100.0182821
  98.0735297  30.6276734  99.0891353  99.0321817  30.1679262 100.1668622
 107.2922488  23.9918391  97.6212779 107.1540387  24.1819987  96.6933968
 106.9358707  24.7537774  98.0780830  95.4564615  17.9776486 103.7009791
  96.0963994  17.8365246 103.0032754  94.6242145  17.6911000 103.3248393
  96.2324918  27.2778917  99.8144783  97.0265517  26.7829237  99.6127358
  95.5216611  26.7496780  99.4512489 101.0519763  29.6597012 104.1657151
 101.1056785  30.2287949 104.9334867 100.1834544  29.8298897 103.8011188
  92.5407682  21.4221999  95.8904536  91.6105270  21.3606454  96.1074498
  92.6365154  20.8997951  95.0941177  92.4593231  17.9476811  98.4782778
  92.7200048  18.8622145  98.3691938  93.2810403  17.4801254  98.6279391
  93.9318156  19.3614569 105.6481602  94.6041210  19.1531931 104.9994251
  93.1047943  19.1636655 105.2086835 100.0107863  23.8257274 105.7244083
 100.9399923  23.9768434 105.5513050  99.5898893  23.9141295 104.8692729
  98.8096194  27.8507939 103.4942621  98.6707280  27.4826723 104.3668559
  98.0210791  28.3655578 103.3226578  99.4044346  32.9517035  94.8368157
  99.5796102  32.4805078  95.6513780  98.7177134  33.5782801  95.0649418
 100.3601410  27.2289542 100.8831458 100.0251242  27.1890311 101.7789108
  99.8605355  26.5634257 100.4101869  94.3345654  22.6357172 106.4084039
  94.1965452  21.9037410 107.0095578  95.2450577  22.5466072 106.1268227
 103.2960601  24.5745576  91.1568518 102.6789772  23.8492404  91.0601571
 102.8277090  25.3354936  90.8135592  96.9627954  22.3477131 105.8967719
  97.6727573  21.7070323 105.8554338  96.9197262  22.5990026 106.8193900
  95.6756888  19.3342349 107.7163359  95.1394245  18.8833087 108.3684955
  95.0873597  19.4688258 106.9733823  93.9705432  36.1006398 101.6108017
  94.2102030  36.7324922 102.2887036  93.1274628  35.7494438 101.8973376
  95.0859147  18.7931000  90.2789822  94.2088614  18.6719801  89.9152069
  95.5616900  18.0017078  90.0268711  86.6061287  23.5808160 100.3731329
  87.2932327  23.2669890  99.7852345  86.4509416  24.4849525 100.0998581
  91.4096009  18.4698356 104.8016353  91.3254198  17.8624026 104.0666763
  90.5878716  18.9607375 104.8025849  98.4833294  31.9085520 104.0149521
  98.4103465  32.7140492 104.5268826  98.0410687  32.1077486 103.1897543
  98.2723073  31.1457291  97.5252343  97.4890595  31.6878971  97.6190567
  98.9715818  31.6631270  97.9246584 101.5819723  16.9551920 100.1686548
 102.0788423  16.2021882  99.8487618 100.8106705  16.9916237  99.6029757
 100.9431977  31.8072355 106.1707680 101.6559949  32.4419819 106.0983581
 100.4522006  31.9036221 105.3547682 102.6649504  25.7123607  97.7424972
 101.7305783  25.8325070  97.5729676 102.8426172  24.8096074  97.4784981
  98.1654692  19.0969303  99.8958233  97.7952480  18.5440343 100.5839138
  98.6613785  18.4927436  99.3433233 106.0522055  21.5540926  98.2775006
 106.5182508  22.3868918  98.2035308 106.5029556  21.0885908  98.9820264
  95.9943891  29.5566798 106.9913251  96.6953350  30.1903281 107.1442645
  95.5239006  29.8981530 106.2308890 104.1198286  27.8984748  95.2761158
 104.3958130  27.7841342  96.1855032 103.2502785  27.5002233  95.2373331
 100.7552351  32.1471099  98.9193971 100.9374745  31.3292755  99.3821724
 101.5785337  32.3638791  98.4818861 101.0894516  31.0739284  96.1809020
 101.6182282  30.5631738  95.5679182 101.3522736  30.7581814  97.0454553
  91.5911609  29.0903153 103.9244353  92.1765046  28.3446841 104.0572258
  91.3936447  29.4007110 104.8081017  94.4450264  32.1254400  98.9406796
  93.7760639  32.6100528  98.4570836  94.3063134  32.3723621  99.8550174
  86.1829263  21.6608753 102.6448796  86.2213363  21.1272344 103.4385915
  85.6769556  21.1343959 102.0259774  98.5855533  34.1598144 105.5389454
  99.1373841  34.3229765 106.3038539  98.9261726  34.7502582 104.8669479
  93.5620026  16.5073294 106.1411339  93.6261352  17.3688125 105.7288736
  93.4987146  15.8947295 105.4083697  89.8137841  20.3872855  95.7202728
  90.1091282  19.4783534  95.6669782  88.9125877  20.3660595  95.3983730
 101.7223920  32.1080119 102.5253136 101.5975059  31.3069859 102.0164082
 102.3803011  32.6026313 102.0367106  93.3432088  18.4628852 101.7030276
  92.6218674  19.0764820 101.5637750  94.1325344  18.9986617 101.6246922
 103.7858828  29.9089140 104.1532686 102.8389164  29.7894491 104.0811013
 104.1341601  29.0211638 104.2358948  91.5425683  18.0686953  95.8442053
  91.2138389  17.1884332  95.6617159  91.8965053  18.0134622  96.7318442
 100.7905261  29.7041856 100.3537039 100.6430224  28.7758563 100.5344609
 101.6158755  29.7261946  99.8694114  94.6567506  18.3559923  96.2117531
  94.9963578  18.8845844  95.4896139  95.1039626  18.6940329  96.9876097
 104.3939383  30.5270415 101.4401911 105.3185931  30.3213276 101.3026362
 104.2254687  30.2786816 102.3491253  96.6435653  16.8534544  94.4110823
  97.3644015  17.2315797  93.9074540  96.0200957  17.5723421  94.5145801
 100.7866776  17.5579693  95.3469156 101.0030390  18.4404331  95.0457984
 100.3060843  17.1665907  94.6174798  95.5265997  20.5165407 101.9239900
  95.3810578  20.8305710 102.8164182  95.0491201  21.1350307 101.3710799
  97.3862380  17.5067955 101.9720790  97.3723949  16.6109048 101.6353088
  98.1034808  17.5138618 102.6059076  99.2388511  17.9405295 104.0173917
  98.9806289  18.8622365 104.0158248  98.7073551  17.5435729 104.7074382
 104.1834700  31.0456082  96.7964003 104.3571577  30.4802504  96.0437855
 104.6763591  31.8456977  96.6143493  90.0011659  23.0570751 104.8627562
  89.4565127  23.8330559 104.9947836  90.8791009  23.4041556 104.7046683
  96.7899276  16.3882335  97.2408360  96.9115187  15.4598981  97.4399248
  96.5001318  16.4021021  96.3286676  99.6590466  14.0737245 100.3775080
  99.6812163  14.1376578  99.4227059 100.0758525  13.2341754 100.5715586
 110.0374091  23.8092505  98.4154303 110.4805237  23.0599830  98.0173426
 109.1600601  23.8002641  98.0328035 105.1709872  30.3622846  93.8960901
 105.8660777  30.9829539  94.1148216 105.5133022  29.5118198  94.1713279
  90.7877681  22.1840647 107.7557718  90.0459417  22.3323283 108.3422349
  90.4670425  22.4448913 106.8924468 107.0701295  27.8122552  95.4248232
 107.5952619  28.1509825  94.6997552 106.9823648  26.8769567  95.2411366
  98.7321344  31.7256626 107.5538108  99.0408470  31.4805772 108.4260808
  99.5296826  31.9303264 107.0656979  98.7541956  33.8794535  99.7843485
  98.3146946  33.3870914 100.4776342  99.5050073  33.3367503  99.5435560
  91.2334295  30.0706076  99.7868113  92.0592315  29.7709848  99.4066757
  90.8828347  29.3013698 100.2357902  96.2015828  29.4232544 101.8565787
  95.5795837  28.7603249 101.5568015  96.8720695  29.4493676 101.1739434
  89.4342900  27.9892402 100.7457047  88.5974808  27.5614577 100.5641048
  89.4066545  28.1824846 101.6827838  95.7629335  27.9736468  95.3324247
  95.9117455  28.6571932  94.6790920  96.5695778  27.9541558  95.8473703
  93.5181968  24.0001645  96.3385316  93.2728010  23.0963975  96.5365526
  93.6877882  24.0018796  95.3964794  92.7877615  19.7330003  93.8371478
  92.0946860  19.8074358  93.1811514  92.5429367  18.9690346  94.3592995
  99.2624740  30.4684598  92.8035995  98.6898708  31.0874785  92.3506467
  99.8357534  31.0183960  93.3375917 102.4822000  30.7521748  93.9344577
 103.4152673  30.6867310  94.1377452 102.3945213  31.5878015  93.4759110
 105.1110017  30.0687619  90.8948524 105.0323648  29.7347482  91.7884282
 105.9319684  30.5609386  90.8939997  99.6471539  21.8045411  90.1452047
 100.5930644  21.6751619  90.2140465  99.2685784  21.0660073  90.6221475
  97.8314456  19.7295387  90.0806932  96.9245912  19.4328500  90.1569646
  98.1090437  19.4325205  89.2141219  88.7492397  21.0501751 100.5305979
  88.4295181  20.1967059 100.2380353  88.2025825  21.2650329 101.2863946
  92.5272304  23.7664192 104.2475485  92.7458314  24.6981299 104.2663519
  92.9398078  23.4072166 105.0330289  99.4476522  14.2732277  96.2351174
  98.6377250  13.9279362  96.6106420 100.1360939  13.9639821  96.8238785
 101.3767070  13.3510324  97.8575470 101.9298109  13.7705777  98.5165493
 101.6137157  12.4246072  97.8998426  96.6013241  16.5882322  90.2218912
  97.4632405  16.9137221  90.4814729  96.7863585  15.8013818  89.7091977
  88.6180657  24.6704662 102.4999100  87.9244128  24.2558615 101.9869055
  89.3653648  24.7125199 101.9032519 104.7545877  15.4610849  97.3654135
 104.1744546  16.1195653  96.9832187 104.4881810  14.6388193  96.9541552
  90.5317399  24.6022916 100.3765115  90.5088087  24.7010603  99.4246998
  90.8418036  25.4488067 100.6982281  93.1904777  26.6599071 104.4911730
  94.1448030  26.6283013 104.4241661  92.9917301  26.1989695 105.3061956
  93.7804159  25.2300187 107.0582527  94.5997048  25.7244266 107.0817365
  94.0540967  24.3132155 107.0300095 103.5370755  17.6210939  96.4210483
 102.6496610  17.9060590  96.2030678 103.9524744  17.4604703  95.5737760
  91.5455006  32.2018690 101.5081928  91.4109474  31.4419091 100.9419926
  91.1287068  32.9259590 101.0410716 102.6813969  27.3855614  90.5158503
 103.3849819  27.5905616  91.1316158 101.9576617  27.9532376  90.7807586
 103.5111779  23.1365475  96.6360773 103.4546980  23.5934027  95.7968405
 104.0640121  22.3756160  96.4583616 107.3216585  18.9255207  97.4610892
 107.0653519  18.5251843  98.2919100 106.6969453  19.6399001  97.3361032
  94.7024132  33.0988007 101.7200370  94.5856516  34.0433440 101.6179060
  93.8816578  32.7961569 102.1086169 104.5900666  27.8238143  92.5656963
 105.4246270  27.3919342  92.3834438 104.4285009  27.6520157  93.4933857
 104.2446558  24.3270256  93.9313302 104.1895362  24.1614528  92.9901746
 103.6192614  25.0346289  94.0875492  89.0339073  19.5638321 107.7574724
  89.6797937  19.0537275 108.2461950  88.8256224  20.3007002 108.3318150
  97.5542684  13.8278365  93.5098621  97.5421354  14.7720205  93.6666891
  98.4466106  13.6448511  93.2158082  95.7278646  33.7516269 104.9356299
  96.6305892  33.7839880 105.2522794  95.5016016  32.8216720 104.9502634
  97.4832248  32.5047256 101.5966377  96.5327879  32.5049117 101.4830749
  97.7864734  31.7579990 101.0802412 113.2184941  38.3407794 102.6612140
 113.8563351  38.2214542 101.9575480 113.1005784  39.2888638 102.7200092
 110.0274648  38.2935222 102.5973664 109.6893159  38.1776287 101.7094199
 110.8964416  37.8926387 102.5774670 105.8861463  40.1470699  98.5870555
 105.3226328  40.0560636  97.8186843 105.7713858  39.3270603  99.0673048
 103.4325895  41.6421890 101.4254776 104.2247187  41.3012715 101.0101075
 103.6722545  41.7516865 102.3456929 111.4661022  43.8141666  93.8985020
 110.8149002  44.3995747  93.5119034 112.2605385  44.3447861  93.9580058
 105.3916649  40.9030804  94.2972155 106.1647525  40.3559791  94.1585030
 105.7442048  41.7675053  94.5086616 107.2301692  42.2307186 107.5039054
 106.9391558  43.1352817 107.3885720 107.8658676  42.2723713 108.2183123
 108.1557898  39.6084034 104.0940413 108.7521471  39.3840057 103.3797376
 108.2132870  38.8668780 104.6965861 107.7282927  37.0623470  91.9290604
 107.9808448  36.5404991  91.1674067 106.7907486  36.8989615  92.0317288
 112.7726210  36.0659248  99.7365348 113.5589299  35.6478671  99.3855765
 113.0364914  36.9705340  99.9046996 112.9436287  41.5032098  94.4354004
 112.3082120  41.5766725  95.1474909 112.6133693  42.0925697  93.7573084
 107.4479216  38.9651576  94.1314979 107.3315474  38.2896479  94.7996064
 107.5581476  38.4783950  93.3147132 109.7910757  38.4261723  97.8361669
 109.4268964  37.8992344  98.5474590 110.6477872  38.0360192  97.6628154
 109.4316244  33.4551622  92.8323017 109.5990646  34.3231859  93.1993488
 109.2413413  33.6178904  91.9084306 112.1891577  41.9168601 104.4988847
 111.8892300  42.8193640 104.3904655 111.8442636  41.6500785 105.3510000
 105.6404058  38.3682398 100.5325552 104.7154555  38.2358612 100.7403244
 105.8888471  39.1476617 101.0295494 109.4105464  35.9109280  93.8169684
 109.2905090  36.3566331  94.6555164 108.7158053  36.2594598  93.2583222
 103.0012869  38.0115672 101.3669341 103.1305250  38.2650151 102.2808753
 102.3210321  38.6043380 101.0473996 107.1712357  48.6812922  97.4659815
 107.0936386  49.6320747  97.5448296 106.5674000  48.3358794  98.1234741
 115.1090531  36.3830753  94.6450018 116.0208387  36.6158140  94.4697716
 114.6000178  36.9667797  94.0825097 107.9175959  38.6626241 109.6839149
 108.6590643  39.2011284 109.4073973 107.2112944  39.2892529 109.8410701
 109.7462368  35.7427988 105.6544868 110.5923563  36.1667401 105.7979517
 109.6861006  35.0861612 106.3483431 113.7160113  41.3656572 102.0363599
 113.0868975  41.5302286 101.3339667 113.3285775  41.7798181 102.8074563
 117.5949345  42.3011009  99.3907963 116.9100383  42.6809911  98.8404997
 117.6793194  42.9106336 100.1239911 109.2688075  41.1030980  99.3013685
 109.7326420  41.3818683  98.5118307 109.0044873  40.2014424  99.1186775
 106.1612156  40.6502461 102.2393448 106.7313513  41.0789730 101.6010932
 106.7520268  40.3685046 102.9377633 108.2056961  37.2254132  96.1103250
 108.9081004  37.6775176  96.5777176 107.8737589  36.5837951  96.7383143
 101.9482295  35.4837685 101.4120383 101.1581349  35.7395213 100.9360494
 102.4393542  36.2986023 101.5172424 115.9646104  42.8242924 104.1625664
 116.7863548  42.4223111 103.8808346 115.9608507  42.7211158 105.1141780
 103.8997040  35.8482264  98.3703860 103.1028203  35.9600958  98.8887356
 103.6722632  36.1868916  97.5044750 109.7302708  42.3726967 106.3186375
 109.7947140  42.8347374 107.1544546 109.0213632  41.7424332 106.4468684
 100.2319998  35.7368175 103.8435374 100.4828036  36.6215185 104.1092950
 100.7679546  35.5572777 103.0710466 109.4450725  44.0395075  96.1865355
 109.3096400  44.8846610  96.6150203 109.9860538  44.2414352  95.4231289
 102.8980123  41.5570513  96.7593280 103.4104643  42.3513763  96.9098845
 103.5502836  40.8596803  96.6926881 104.7075008  44.6736269  98.8416033
 104.8841636  45.5954234  98.6537017 105.5031841  44.3594688  99.2710413
 103.9927364  36.7200901 108.7178196 103.8780879  35.8186158 109.0185295
 103.1371882  36.9664598 108.3663013 111.0719202  44.6618641 110.3165697
 110.6283056  43.8755020 109.9986601 111.7336415  44.8497792 109.6509588
 105.8306323  46.1914443 104.8426376 106.3813748  46.0631506 104.0703369
 104.9917799  46.4909332 104.4921268 109.6273494  42.4565571 109.1870607
 110.1601831  41.6953859 108.9569915 109.0987575  42.1639222 109.9294761
 100.8629040  39.8859167  97.5352851 101.7004262  40.2956175  97.3186558
 101.0407307  38.9458609  97.5053044 112.7593472  37.5534248  93.2236683
 112.2440095  38.3238852  93.4625071 112.4870780  36.8799384  93.8469745
 110.3440583  32.3983948  98.2821922 109.4882179  32.0090799  98.1027561
 110.7567535  32.4775909  97.4221707 108.1182615  30.0169021 101.6879663
 108.9835612  29.8211830 101.3285553 108.1860124  29.7879373 102.6149020
 117.7327746  40.3066602  95.1589857 116.9557189  39.9677762  94.7145019
 118.4119227  40.3119225  94.4844822 112.5479775  35.4261340  95.0496465
 112.2429910  35.7407489  95.9006608 113.5010217  35.5042760  95.0923798
 110.9926207  41.5851563  96.6989419 110.4647568  40.8504323  96.3862656
 110.4913709  42.3626239  96.4529387 115.9719053  39.7800584 101.8156465
 115.3142727  40.4699845 101.9036594 116.7759452  40.1697016 102.1590451
 105.7244934  32.2471229  99.0596030 106.2988686  32.0246411  98.3269223
 106.3115917  32.3159924  99.8124631 114.7824512  38.1344956  99.8660407
 115.2956393  38.7674948 100.3682116 115.4325735  37.5346152  99.5003767
 106.0514521  34.2775690  93.0791915 105.2151834  34.6150377  93.4001190
 105.9119291  34.1424670  92.1419052 108.0267602  29.1212478  97.7871100
 107.3732014  28.8061495  97.1627714 107.9848076  28.4988219  98.5130923
 109.1378807  39.4031773  89.7024392 108.2305869  39.1721027  89.9015541
 109.6349839  38.6069393  89.8898373 112.0446886  48.1129281  92.6221078
 111.3708585  48.4160977  93.2306036 112.4312708  48.9158361  92.2726535
 111.2605342  35.6094412 102.1118747 110.3427904  35.8309359 101.9540435
 111.6765486  35.6840722 101.2530455 112.0440390  37.0085828  97.2421427
 112.7912209  37.5207225  96.9328550 112.3131980  36.6869880  98.1025821
 110.3167040  39.5044368  94.2248382 109.4078260  39.2203401  94.3220852
 110.3462124  39.9243447  93.3651689 115.5486308  43.1150958  97.9939549
 115.0948635  42.2741868  98.0504740 114.9180274  43.7512356  98.3314329
 114.4919227  34.0442944  99.2240217 113.7541984  33.5320330  99.5550459
 114.7446001  33.6043325  98.4123494 113.9919247  44.9527454  98.9289367
 114.2842221  45.5132512  98.2101733 114.5017868  45.2456015  99.6842527
 100.8855211  37.2249882  98.2063584 100.6879611  36.6319243  97.4814651
 100.3301875  36.9202093  98.9239523 108.8651934  37.1172989 100.3258177
 108.9200544  36.1646825 100.2500654 108.0543136  37.2732428 100.8099476
 110.0143128  41.0453112  91.5636460 109.5762558  40.3288971  91.1042098
 110.7553569  41.2729227  91.0021552 106.8044294  35.7350049  98.0848556
 105.9912160  36.0344219  98.4913748 107.3003289  35.3405737  98.8023038
 108.9552872  45.7307806 100.0182821 108.9129051  45.9568652  99.0891353
 109.8715571  45.4971180 100.1668622 118.1316243  39.3210309  97.6212779
 117.9934142  39.5111905  96.6933968 117.7752462  40.0829692  98.0780830
 106.2958369  33.3068404 103.7009791 106.9357748  33.1657163 103.0032754
 105.4635900  33.0202917 103.3248393 107.0718673  42.6070835  99.8144783
 107.8659271  42.1121155  99.6127358 106.3610365  42.0788698  99.4512489
 111.8913517  44.9888930 104.1657151 111.9450540  45.5579866 104.9334867
 111.0228299  45.1590815 103.8011188 103.3801436  36.7513916  95.8904536
 102.4499025  36.6898372  96.1074498 103.4758908  36.2289869  95.0941177
 103.2986985  33.2768729  98.4782778 103.5593803  34.1914062  98.3691938
 104.1204158  32.8093172  98.6279391 104.7711911  34.6906486 105.6481602
 105.4434964  34.4823848 104.9994251 103.9441697  34.4928572 105.2086835
 110.8501617  39.1549192 105.7244083 111.7793677  39.3060352 105.5513050
 110.4292647  39.2433213 104.8692729 109.6489949  43.1799857 103.4942621
 109.5101035  42.8118641 104.3668559 108.8604545  43.6947496 103.3226578
 110.2438101  48.2808953  94.8368157 110.4189857  47.8096996  95.6513780
 109.5570889  48.9074719  95.0649418 111.1995164  42.5581459 100.8831458
 110.8644997  42.5182229 101.7789108 110.6999110  41.8926175 100.4101869
 105.1739408  37.9649089 106.4084039 105.0359206  37.2329328 107.0095578
 106.0844332  37.8757989 106.1268227 114.1354356  39.9037494  91.1568518
 113.5183526  39.1784322  91.0601571 113.6670844  40.6646854  90.8135592
 107.8021709  37.6769049 105.8967719 108.5121327  37.0362241 105.8554338
 107.7591017  37.9281943 106.8193900 106.5150643  34.6634266 107.7163359
 105.9788000  34.2125005 108.3684955 105.9267351  34.7980175 106.9733823
 104.8099186  51.4298316 101.6108017 105.0495784  52.0616840 102.2887036
 103.9668383  51.0786356 101.8973376 105.9252902  34.1222918  90.2789822
 105.0482368  34.0011719  89.9152069 106.4010655  33.3308996  90.0268711
  97.4455042  38.9100078 100.3731329  98.1326082  38.5961808  99.7852345
  97.2903171  39.8141442 100.0998581 102.2489764  33.7990274 104.8016353
 102.1647953  33.1915944 104.0666763 101.4272470  34.2899292 104.8025849
 109.3227048  47.2377438 104.0149521 109.2497220  48.0432410 104.5268826
 108.8804441  47.4369404 103.1897543 109.1116828  46.4749208  97.5252343
 108.3284350  47.0170888  97.6190567 109.8109573  46.9923188  97.9246584
 112.4213478  32.2843838 100.1686548 112.9182177  31.5313800  99.8487618
 111.6500459  32.3208154  99.6029757 111.7825732  47.1364272 106.1707680
 112.4953704  47.7711737 106.0983581 111.2915760  47.2328138 105.3547682
 113.5043259  41.0415525  97.7424972 112.5699537  41.1616987  97.5729676
 113.6819927  40.1387992  97.4784981 109.0048447  34.4261221  99.8958233
 108.6346234  33.8732261 100.5839138 109.5007539  33.8219354  99.3433233
 116.8915810  36.8832844  98.2775006 117.3576262  37.7160836  98.2035308
 117.3423310  36.4177826  98.9820264 106.8337645  44.8858716 106.9913251
 107.5347105  45.5195199 107.1442645 106.3632760  45.2273447 106.2308890
 114.9592041  43.2276665  95.2761158 115.2351885  43.1133260  96.1855032
 114.0896540  42.8294150  95.2373331 111.5946105  47.4763016  98.9193971
 111.7768500  46.6584672  99.3821724 112.4179091  47.6930709  98.4818861
 111.9288270  46.4031201  96.1809020 112.4576037  45.8923656  95.5679182
 112.1916490  46.0873732  97.0454553 102.4305363  44.4195071 103.9244353
 103.0158800  43.6738759 104.0572258 102.2330202  44.7299027 104.8081017
 105.2844018  47.4546318  98.9406796 104.6154394  47.9392446  98.4570836
 105.1456888  47.7015539  99.8550174  97.0223018  36.9900671 102.6448796
  97.0607117  36.4564262 103.4385915  96.5163311  36.4635876 102.0259774
 109.4249287  49.4890062 105.5389454 109.9767595  49.6521683 106.3038539
 109.7655480  50.0794499 104.8669479 104.4013780  31.8365211 106.1411339
 104.4655107  32.6980042 105.7288736 104.3380900  31.2239213 105.4083697
 100.6531596  35.7164773  95.7202728 100.9485037  34.8075451  95.6669782
  99.7519631  35.6952513  95.3983730 112.5617674  47.4372037 102.5253136
 112.4368814  46.6361777 102.0164082 113.2196765  47.9318231 102.0367106
 104.1825843  33.7920770 101.7030276 103.4612428  34.4056737 101.5637750
 104.9719098  34.3278534 101.6246922 114.6252583  45.2381057 104.1532686
 113.6782918  45.1186408 104.0811013 114.9735356  44.3503555 104.2358948
 102.3819437  33.3978871  95.8442053 102.0532143  32.5176250  95.6617159
 102.7358808  33.3426539  96.7318442 111.6299016  45.0333773 100.3537039
 111.4823978  44.1050481 100.5344609 112.4552509  45.0553864  99.8694114
 105.4961260  33.6851841  96.2117531 105.8357333  34.2137762  95.4896139
 105.9433381  34.0232247  96.9876097 115.2333138  45.8562332 101.4401911
 116.1579685  45.6505194 101.3026362 115.0648441  45.6078733 102.3491253
 107.4829407  32.1826462  94.4110823 108.2037770  32.5607715  93.9074540
 106.8594712  32.9015339  94.5145801 111.6260530  32.8871611  95.3469156
 111.8424145  33.7696249  95.0457984 111.1454597  32.4957825  94.6174798
 106.3659752  35.8457324 101.9239900 106.2204332  36.1597627 102.8164182
 105.8884955  36.4642225 101.3710799 108.2256135  32.8359872 101.9720790
 108.2117703  31.9400966 101.6353088 108.9428563  32.8430536 102.6059076
 110.0782265  33.2697213 104.0173917 109.8200043  34.1914283 104.0158248
 109.5467306  32.8727647 104.7074382 115.0228454  46.3748000  96.7964003
 115.1965332  45.8094422  96.0437855 115.5157345  47.1748895  96.6143493
 100.8405414  38.3862669 104.8627562 100.2958882  39.1622477 104.9947836
 101.7184764  38.7333473 104.7046683 107.6293030  31.7174253  97.2408360
 107.7508942  30.7890899  97.4399248 107.3395073  31.7312939  96.3286676
 110.4984221  29.4029163 100.3775080 110.5205918  29.4668496  99.4227059
 110.9152280  28.5633672 100.5715586 120.8767845  39.1384423  98.4154303
 121.3198991  38.3891748  98.0173426 119.9994355  39.1294559  98.0328035
 116.0103627  45.6914764  93.8960901 116.7054531  46.3121457  94.1148216
 116.3526777  44.8410115  94.1713279 101.6271436  37.5132565 107.7557718
 100.8853172  37.6615200 108.3422349 101.3064180  37.7740831 106.8924468
 117.9095050  43.1414470  95.4248232 118.4346374  43.4801742  94.6997552
 117.8217402  42.2061485  95.2411366 109.5715098  47.0548543 107.5538108
 109.8802225  46.8097690 108.4260808 110.3690580  47.2595182 107.0656979
 109.5935710  49.2086453  99.7843485 109.1540701  48.7162832 100.4776342
 110.3443827  48.6659421  99.5435560 102.0728049  45.3997994  99.7868113
 102.8986069  45.1001766  99.4066757 101.7222101  44.6305616 100.2357902
 107.0409583  44.7524462 101.8565787 106.4189592  44.0895167 101.5568015
 107.7114449  44.7785594 101.1739434 100.2736654  43.3184320 100.7457047
  99.4368563  42.8906495 100.5641048 100.2460300  43.5116764 101.6827838
 106.6023089  43.3028385  95.3324247 106.7511210  43.9863850  94.6790920
 107.4089533  43.2833475  95.8473703 104.3575722  39.3293563  96.3385316
 104.1121764  38.4255893  96.5365526 104.5271637  39.3310713  95.3964794
 103.6271370  35.0621920  93.8371478 102.9340615  35.1366275  93.1811514
 103.3823122  34.2982264  94.3592995 110.1018495  45.7976516  92.8035995
 109.5292462  46.4166703  92.3506467 110.6751289  46.3475877  93.3375917
 113.3215755  46.0813666  93.9344577 114.2546428  46.0159228  94.1377452
 113.2338968  46.9169933  93.4759110 115.9503771  45.3979536  90.8948524
 115.8717403  45.0639400  91.7884282 116.7713438  45.8901304  90.8939997
 110.4865293  37.1337328  90.1452047 111.4324398  37.0043537  90.2140465
 110.1079538  36.3951990  90.6221475 108.6708211  35.0587305  90.0806932
 107.7639666  34.7620418  90.1569646 108.9484192  34.7617123  89.2141219
  99.5886151  36.3793668 100.5305979  99.2688935  35.5258976 100.2380353
  99.0419579  36.5942246 101.2863946 103.3666059  39.0956109 104.2475485
 103.5852068  40.0273217 104.2663519 103.7791832  38.7364084 105.0330289
 110.2870276  29.6024195  96.2351174 109.4771005  29.2571280  96.6106420
 110.9754693  29.2931738  96.8238785 112.2160825  28.6802241  97.8575470
 112.7691863  29.0997695  98.5165493 112.4530911  27.7537990  97.8998426
 107.4406995  31.9174240  90.2218912 108.3026159  32.2429138  90.4814729
 107.6257339  31.1305736  89.7091977  99.4574411  39.9996580 102.4999100
  98.7637882  39.5850533 101.9869055 100.2047402  40.0417116 101.9032519
 115.5939632  30.7902767  97.3654135 115.0138301  31.4487571  96.9832187
 115.3275564  29.9680111  96.9541552 101.3711154  39.9314834 100.3765115
 101.3481842  40.0302521  99.4246998 101.6811790  40.7779984 100.6982281
 104.0298531  41.9890989 104.4911730 104.9841785  41.9574931 104.4241661
 103.8311055  41.5281612 105.3061956 104.6197914  40.5592105 107.0582527
 105.4390803  41.0536183 107.0817365 104.8934721  39.6424073 107.0300095
 114.3764510  32.9502857  96.4210483 113.4890365  33.2352508  96.2030678
 114.7918499  32.7896620  95.5737760 102.3848760  47.5310608 101.5081928
 102.2503228  46.7711009 100.9419926 101.9680822  48.2551508 101.0410716
 113.5207723  42.7147532  90.5158503 114.2243573  42.9197534  91.1316158
 112.7970372  43.2824293  90.7807586 114.3505533  38.4657393  96.6360773
 114.2940735  38.9225944  95.7968405 114.9033876  37.7048077  96.4583616
 118.1610339  34.2547125  97.4610892 117.9047274  33.8543760  98.2919100
 117.5363207  34.9690919  97.3361032 105.5417886  48.4279925 101.7200370
 105.4250270  49.3725358 101.6179060 104.7210332  48.1253487 102.1086169
 115.4294421  43.1530061  92.5656963 116.2640025  42.7211259  92.3834438
 115.2678764  42.9812074  93.4933857 115.0840313  39.6562174  93.9313302
 115.0289117  39.4906446  92.9901746 114.4586368  40.3638207  94.0875492
  99.8732828  34.8930238 107.7574724 100.5191691  34.3829192 108.2461950
  99.6649979  35.6298920 108.3318150 108.3936438  29.1570283  93.5098621
 108.3815108  30.1012123  93.6666891 109.2859860  28.9740429  93.2158082
 106.5672400  49.0808187 104.9356299 107.4699647  49.1131797 105.2522794
 106.3409770  48.1508638 104.9502634 108.3226002  47.8339174 101.5966377
 107.3721633  47.8341035 101.4830749 108.6258488  47.0871908 101.0802412
 112.2088558  25.7513060  97.7644557 111.4420954  25.1971546  97.9101240
 112.6199263  25.8234929  98.6258709 120.8668402  53.6227140 102.5973664
 120.5286914  53.5068205 101.7094199 121.7358170  53.2218305 102.5774670
 116.7255218  55.4762616  98.5870555 116.1620083  55.3852553  97.8186843
 116.6107613  54.6562521  99.0673048 114.2719650  56.9713808 101.4254776
 115.0640942  56.6304633 101.0101075 114.5116300  57.0808783 102.3456929
 116.2310404  56.2322721  94.2972155 117.0041280  55.6851708  94.1585030
 116.5835802  57.0966971  94.5086616 118.0695446  57.5599104 107.5039054
 117.7785312  58.4644734 107.3885720 118.7052430  57.6015631 108.2183123
 118.9951653  54.9375952 104.0940413 119.5915225  54.7131974 103.3797376
 119.0526625  54.1960698 104.6965861 118.5676681  52.3915387  91.9290604
 118.8202202  51.8696909  91.1674067 117.6301240  52.2281533  92.0317288
 118.2872970  54.2943493  94.1314979 118.1709228  53.6188397  94.7996064
 118.3975230  53.8075867  93.3147132 120.6304511  53.7553640  97.8361669
 120.2662718  53.2284261  98.5474590 121.4871627  53.3652110  97.6628154
 120.2709998  48.7843540  92.8323017 120.4384400  49.6523777  93.1993488
 120.0807167  48.9470822  91.9084306 116.4797813  53.6974316 100.5325552
 115.5548309  53.5650530 100.7403244 116.7282226  54.4768535 101.0295494
 120.2499219  51.2401198  93.8169684 120.1298844  51.6858248  94.6555164
 119.5551807  51.5886515  93.2583222 113.8406624  53.3407589 101.3669341
 113.9699005  53.5942068 102.2808753 113.1604075  53.9335297 101.0473996
 118.0106111  64.0104839  97.4659815 117.9330141  64.9612664  97.5448296
 117.4067755  63.6650712  98.1234741 118.7569713  53.9918158 109.6839149
 119.4984397  54.5303202 109.4073973 118.0506699  54.6184447 109.8410701
 120.5856123  51.0719905 105.6544868 121.4317318  51.4959319 105.7979517
 120.5254760  50.4153530 106.3483431 120.1081829  56.4322897  99.3013685
 120.5720175  56.7110600  98.5118307 119.8438627  55.5306342  99.1186775
 117.0005910  55.9794379 102.2393448 117.5707267  56.4081647 101.6010932
 117.5914022  55.6976964 102.9377633 119.0450715  52.5546050  96.1103250
 119.7474759  53.0067093  96.5777176 118.7131344  51.9129869  96.7383143
 112.7876049  50.8129602 101.4120383 111.9975103  51.0687131 100.9360494
 113.2787297  51.6277940 101.5172424 114.7390795  51.1774182  98.3703860
 113.9421958  51.2892876  98.8887356 114.5116387  51.5160834  97.5044750
 120.5696462  57.7018885 106.3186375 120.6340895  58.1639292 107.1544546
 119.8607386  57.0716250 106.4468684 111.0713752  51.0660093 103.8435374
 111.3221791  51.9507103 104.1092950 111.6073301  50.8864694 103.0710466
 120.2844480  59.3686992  96.1865355 120.1490155  60.2138528  96.6150203
 120.8254292  59.5706270  95.4231289 113.7373877  56.8862430  96.7593280
 114.2498398  57.6805681  96.9098845 114.3896590  56.1888721  96.6926881
 115.5468762  60.0028187  98.8416033 115.7235390  60.9246151  98.6537017
 116.3425596  59.6886606  99.2710413 114.8321119  52.0492819 108.7178196
 114.7174634  51.1478076 109.0185295 113.9765636  52.2956515 108.3663013
 116.6700077  61.5206360 104.8426376 117.2207503  61.3923424 104.0703369
 115.8311553  61.8201249 104.4921268 120.4667249  57.7857488 109.1870607
 120.9995585  57.0245776 108.9569915 119.9381330  57.4931140 109.9294761
 111.7022794  55.2151085  97.5352851 112.5398016  55.6248093  97.3186558
 111.8801062  54.2750527  97.5053044 121.1834337  47.7275866  98.2821922
 120.3275934  47.3382717  98.1027561 121.5961289  47.8067827  97.4221707
 118.9576370  45.3460939 101.6879663 119.8229367  45.1503748 101.3285553
 119.0253879  45.1171291 102.6149020 121.8319961  56.9143481  96.6989419
 121.3041323  56.1796240  96.3862656 121.3307464  57.6918157  96.4529387
 116.5638689  47.5763147  99.0596030 117.1382441  47.3538329  98.3269223
 117.1509671  47.6451842  99.8124631 116.8908276  49.6067608  93.0791915
 116.0545588  49.9442295  93.4001190 116.7513046  49.4716588  92.1419052
 118.8661357  44.4504396  97.7871100 118.2125769  44.1353413  97.1627714
 118.8241831  43.8280136  98.5130923 119.9772561  54.7323691  89.7024392
 119.0699623  54.5012944  89.9015541 120.4743593  53.9361310  89.8898373
 121.1560795  54.8336286  94.2248382 120.2472014  54.5495319  94.3220852
 121.1855879  55.2535364  93.3651689 111.7248965  52.5541800  98.2063584
 111.5273365  51.9611161  97.4814651 111.1695629  52.2494010  98.9239523
 119.7045689  52.4464906 100.3258177 119.7594299  51.4938743 100.2500654
 118.8936891  52.6024346 100.8099476 120.8536883  56.3745030  91.5636460
 120.4156313  55.6580888  91.1042098 121.5947324  56.6021144  91.0021552
 117.6438049  51.0641966  98.0848556 116.8305914  51.3636137  98.4913748
 118.1397043  50.6697655  98.8023038 119.7946627  61.0599723 100.0182821
 119.7522805  61.2860569  99.0891353 120.7109326  60.8263098 100.1668622
 117.1352124  48.6360322 103.7009791 117.7751503  48.4949081 103.0032754
 116.3029654  48.3494835 103.3248393 117.9112427  57.9362752  99.8144783
 118.7053026  57.4413072  99.6127358 117.2004120  57.4080615  99.4512489
 114.2195191  52.0805834  95.8904536 113.2892779  52.0190289  96.1074498
 114.3152663  51.5581787  95.0941177 114.1380740  48.6060647  98.4782778
 114.3987557  49.5205980  98.3691938 114.9597912  48.1385089  98.6279391
 115.6105665  50.0198404 105.6481602 116.2828719  49.8115766 104.9994251
 114.7835452  49.8220490 105.2086835 120.4883703  58.5091774 103.4942621
 120.3494789  58.1410559 104.3668559 119.6998300  59.0239414 103.3226578
 121.0831855  63.6100871  94.8368157 121.2583611  63.1388914  95.6513780
 120.3964643  64.2366637  95.0649418 122.0388919  57.8873377 100.8831458
 121.7038751  57.8474147 101.7789108 121.5392864  57.2218093 100.4101869
 116.0133163  53.2941007 106.4084039 115.8752961  52.5621246 107.0095578
 116.9238086  53.2049907 106.1268227 118.6415463  53.0060966 105.8967719
 119.3515082  52.3654158 105.8554338 118.5984771  53.2573861 106.8193900
 117.3544397  49.9926184 107.7163359 116.8181754  49.5416923 108.3684955
 116.7661106  50.1272093 106.9733823 115.6492941  66.7590233 101.6108017
 115.8889539  67.3908758 102.2887036 114.8062137  66.4078273 101.8973376
 116.7646656  49.4514836  90.2789822 115.8876122  49.3303636  89.9152069
 117.2404409  48.6600914  90.0268711 108.2848796  54.2391995 100.3731329
 108.9719836  53.9253725  99.7852345 108.1296925  55.1433360 100.0998581
 113.0883518  49.1282192 104.8016353 113.0041707  48.5207861 104.0666763
 112.2666225  49.6191210 104.8025849 120.1620803  62.5669356 104.0149521
 120.0890974  63.3724327 104.5268826 119.7198196  62.7661322 103.1897543
 119.9510582  61.8041126  97.5252343 119.1678104  62.3462806  97.6190567
 120.6503327  62.3215106  97.9246584 119.8442201  49.7553138  99.8958233
 119.4739989  49.2024179 100.5839138 120.3401294  49.1511272  99.3433233
 117.6731400  60.2150633 106.9913251 118.3740859  60.8487116 107.1442645
 117.2026515  60.5565365 106.2308890 113.2699118  59.7486988 103.9244353
 113.8552555  59.0030676 104.0572258 113.0723956  60.0590945 104.8081017
 116.1237773  62.7838236  98.9406796 115.4548148  63.2684363  98.4570836
 115.9850643  63.0307456  99.8550174 107.8616772  52.3192589 102.6448796
 107.9000872  51.7856179 103.4385915 107.3557065  51.7927794 102.0259774
 120.2643042  64.8181979 105.5389454 120.8161350  64.9813601 106.3038539
 120.6049235  65.4086417 104.8669479 115.2407535  47.1657129 106.1411339
 115.3048861  48.0271960 105.7288736 115.1774655  46.5531131 105.4083697
 111.4925350  51.0456691  95.7202728 111.7878791  50.1367369  95.6669782
 110.5913386  51.0244430  95.3983730 115.0219597  49.1212687 101.7030276
 114.3006183  49.7348655 101.5637750 115.8112853  49.6570452 101.6246922
 113.2213192  48.7270788  95.8442053 112.8925898  47.8468167  95.6617159
 113.5752562  48.6718457  96.7318442 116.3355015  49.0143758  96.2117531
 116.6751087  49.5429679  95.4896139 116.7827135  49.3524164  96.9876097
 118.3223162  47.5118380  94.4110823 119.0431524  47.8899633  93.9074540
 117.6988466  48.2307257  94.5145801 117.2053506  51.1749242 101.9239900
 117.0598087  51.4889545 102.8164182 116.7278710  51.7934142 101.3710799
 119.0649889  48.1651790 101.9720790 119.0511458  47.2692883 101.6353088
 119.7822317  48.1722454 102.6059076 120.9176020  48.5989130 104.0173917
 120.6593798  49.5206201 104.0158248 120.3861060  48.2019565 104.7074382
 111.6799168  53.7154586 104.8627562 111.1352636  54.4914394 104.9947836
 112.5578518  54.0625391 104.7046683 118.4686785  47.0466170  97.2408360
 118.5902696  46.1182816  97.4399248 118.1788827  47.0604856  96.3286676
 121.3377975  44.7321081 100.3775080 121.3599672  44.7960414  99.4227059
 121.7546034  43.8925589 100.5715586 112.4665190  52.8424483 107.7557718
 111.7246926  52.9907118 108.3422349 112.1457934  53.1032748 106.8924468
 120.4108853  62.3840461 107.5538108 120.7195979  62.1389608 108.4260808
 121.2084335  62.5887099 107.0656979 120.4329465  64.5378371  99.7843485
 119.9934455  64.0454749 100.4776342 121.1837582  63.9951338  99.5435560
 112.9121804  60.7289911  99.7868113 113.7379824  60.4293683  99.4066757
 112.5615856  59.9597534 100.2357902 117.8803337  60.0816380 101.8565787
 117.2583346  59.4187085 101.5568015 118.5508204  60.1077512 101.1739434
 111.1130409  58.6476238 100.7457047 110.2762317  58.2198412 100.5641048
 111.0854054  58.8408681 101.6827838 117.4416844  58.6320303  95.3324247
 117.5904964  59.3155767  94.6790920 118.2483287  58.6125393  95.8473703
 115.1969477  54.6585481  96.3385316 114.9515519  53.7547811  96.5365526
 115.3665391  54.6602631  95.3964794 114.4665124  50.3913838  93.8371478
 113.7734369  50.4658193  93.1811514 114.2216876  49.6274182  94.3592995
 120.9412249  61.1268433  92.8035995 120.3686217  61.7458621  92.3506467
 121.5145043  61.6767795  93.3375917 121.3259048  52.4629246  90.1452047
 122.2718153  52.3335454  90.2140465 120.9473293  51.7243908  90.6221475
 119.5101965  50.3879223  90.0806932 118.6033421  50.0912335  90.1569646
 119.7877946  50.0909041  89.2141219 110.4279905  51.7085586 100.5305979
 110.1082690  50.8550894 100.2380353 109.8813334  51.9234164 101.2863946
 114.2059813  54.4248027 104.2475485 114.4245823  55.3565135 104.2663519
 114.6185587  54.0656001 105.0330289 121.1264031  44.9316112  96.2351174
 120.3164759  44.5863197  96.6106420 121.8148448  44.6223656  96.8238785
 118.2800750  47.2466158  90.2218912 119.1419914  47.5721056  90.4814729
 118.4651094  46.4597654  89.7091977 110.2968165  55.3288497 102.4999100
 109.6031637  54.9142450 101.9869055 111.0441156  55.3709034 101.9032519
 112.2104908  55.2606751 100.3765115 112.1875596  55.3594439  99.4246998
 112.5205545  56.1071902 100.6982281 114.8692286  57.3182906 104.4911730
 115.8235539  57.2866849 104.4241661 114.6704809  56.8573530 105.3061956
 115.4591668  55.8884022 107.0582527 116.2784557  56.3828101 107.0817365
 115.7328476  54.9715990 107.0300095 113.2242515  62.8602526 101.5081928
 113.0896983  62.1002927 100.9419926 112.8074577  63.5843426 101.0410716
 116.3811641  63.7571843 101.7200370 116.2644025  64.7017275 101.6179060
 115.5604087  63.4545404 102.1086169 110.7126582  50.2222156 107.7574724
 111.3585446  49.7121110 108.2461950 110.5043733  50.9590838 108.3318150
 119.2330193  44.4862201  93.5098621 119.2208863  45.4304041  93.6666891
 120.1253615  44.3032346  93.2158082 117.4066155  64.4100105 104.9356299
 118.3093401  64.4423715 105.2522794 117.1803525  63.4800556 104.9502634
 119.1619757  63.1631091 101.5966377 118.2115388  63.1632953 101.4830749
 119.4652243  62.4163826 101.0802412 121.9107507  66.3952011 103.8435374
 122.1615545  67.2799020 104.1092950 122.4467055  66.2156612 103.0710466
 119.1242551  69.5683913 100.3731329 119.8113591  69.2545643  99.7852345
 118.9690679  70.4725278 100.0998581 118.7010527  67.6484506 102.6448796
 118.7394626  67.1148097 103.4385915 118.1950820  67.1219712 102.0259774
 121.9524163  73.9768156 100.7457047 121.1156072  73.5490330 100.5641048
 121.9247809  74.1700599 101.6827838 121.2673660  67.0377504 100.5305979
 120.9476444  66.1842812 100.2380353 120.7207088  67.2526082 101.2863946
 121.1361920  70.6580415 102.4999100 120.4425391  70.2434368 101.9869055
 121.8834911  70.7000952 101.9032519 121.5520337  65.5514074 107.7574724
 122.1979200  65.0413028 108.2461950 121.3437488  66.2882755 108.3318150
  96.3318603  10.3583127  84.1905122  96.2542633  11.3090952  84.2693602
  95.7280247  10.0128999  84.8480048  93.9705433  13.1068521  88.3353324
  94.2102031  13.7387045  89.0132342  93.1274629  12.7556561  88.6218683
  94.4450265   9.1316523  85.6652102  93.7760640   9.6162651  85.1816142
  94.3063135   9.3785743  86.5795481  98.5855534  11.1660267  92.2634761
  99.1373842  11.3291888  93.0283846  98.9261727  11.7564704  91.5914786
  98.7541957  10.8856658  86.5088792  98.3146947  10.3933036  87.2021648
  99.5050074  10.3429625  86.2680867  91.5455007   9.2080813  88.2327234
  91.4109475   8.4481214  87.6665232  91.1287069   9.9321713  87.7656023
  94.7024133  10.1050130  88.4445677  94.5856517  11.0495562  88.3424367
  93.8816579   9.8023692  88.8331476  95.7278647  10.7578392  91.6601605
  96.6305894  10.7902002  91.9768100  95.5016017   9.8278843  91.6747941
 110.0274649  15.2997345  89.3218971 109.6893160  15.1838410  88.4339506
 110.8964417  14.8988510  89.3019977 105.8861464  17.1532821  85.3115862
 105.3226330  17.0622758  84.5432150 105.7713859  16.3332726  85.7918354
 103.4325896  18.6484013  88.1500082 104.2247188  18.3074838  87.7346382
 103.6722547  18.7578988  89.0702236 111.4661023  20.8203789  80.6230327
 110.8149003  21.4057869  80.2364341 112.2605386  21.3509984  80.6825364
 105.3916650  17.9092926  81.0217461 106.1647526  17.3621913  80.8830337
 105.7442049  18.7737176  81.2331923 107.2301693  19.2369308  94.2284360
 106.9391559  20.1414939  94.1131027 107.8658677  19.2785836  94.9428430
 108.1557900  16.6146157  90.8185720 108.7521472  16.3902179  90.1042683
 108.2132871  15.8730902  91.4211168 107.7282928  14.0685592  78.6535911
 107.9808449  13.5467114  77.8919374 106.7907487  13.9051738  78.7562595
 112.9436288  18.5094221  81.1599311 112.3082121  18.5828848  81.8720216
 112.6133695  19.0987820  80.4818390 107.4479217  15.9713698  80.8560286
 107.3315475  15.2958602  81.5241370 107.5581477  15.4846072  80.0392439
 109.7910758  15.4323845  84.5606975 109.4268965  14.9054466  85.2719897
 110.6477874  15.0422314  84.3873461 112.1891578  18.9230724  91.2234154
 111.8892301  19.8255763  91.1149961 111.8442637  18.6562907  92.0755307
 105.6404059  15.3744521  87.2570859 104.7154556  15.2420735  87.4648550
 105.8888473  16.1538740  87.7540801 103.0012870  15.0177794  88.0914648
 103.1305252  15.2712273  89.0054059 102.3210322  15.6105502  87.7719303
 107.1712358  25.6875044  84.1905122 107.0936387  26.6382869  84.2693602
 106.5674001  25.3420917  84.8480048 107.9175960  15.6688363  96.4084456
 108.6590644  16.2073407  96.1319279 107.2112945  16.2954652  96.5656008
 113.7160114  18.3718694  88.7608906 113.0868977  18.5364408  88.0584974
 113.3285776  18.7860304  89.5319870 117.5949346  19.3073132  86.1153270
 116.9100384  19.6872033  85.5650303 117.6793195  19.9168459  86.8485218
 109.2688076  18.1093102  86.0258991 109.7326422  18.3880805  85.2363614
 109.0044874  17.2076547  85.8432082 106.1612157  17.6564584  88.9638754
 106.7313514  18.0851852  88.3256239 106.7520269  17.3747169  89.6622940
 108.2056962  14.2316255  82.8348556 108.9081005  14.6837298  83.3022483
 107.8737591  13.5900074  83.4628449 101.9482296  12.4899807  88.1365690
 101.1581350  12.7457336  87.6605801 102.4393543  13.3048145  88.2417730
 115.9646106  19.8305047  90.8870971 116.7863549  19.4285234  90.6053652
 115.9608508  19.7273281  91.8387087 103.8997041  12.8544387  85.0949167
 103.1028205  12.9663081  85.6132662 103.6722634  13.1931039  84.2290057
 109.7302709  19.3789090  93.0431681 109.7947142  19.8409497  93.8789853
 109.0213633  18.7486455  93.1713991 100.2319999  12.7430298  90.5680681
 100.4828037  13.6277308  90.8338257 100.7679547  12.5634899  89.7955773
 109.4450727  21.0457197  82.9110662 109.3096401  21.8908733  83.3395509
 109.9860539  21.2476475  82.1476595 102.8980124  18.5632635  83.4838587
 103.4104645  19.3575886  83.6344151 103.5502837  17.8658926  83.4172188
 104.7075009  21.6798392  85.5661340 104.8841637  22.6016356  85.3782324
 105.5031842  21.3656811  85.9955720 103.9927365  13.7263023  95.4423503
 103.8780880  12.8248281  95.7430602 103.1371883  13.9726720  95.0908320
 111.0719203  21.6680764  97.0411004 110.6283057  20.8817142  96.7231908
 111.7336417  21.8559914  96.3754894 105.8306324  23.1976565  91.5671682
 106.3813749  23.0693629  90.7948676 104.9917800  23.4971454  91.2166575
 109.6273495  19.4627693  95.9115913 110.1601832  18.7015981  95.6815221
 109.0987576  19.1701345  96.6540068 100.8629041  16.8921290  84.2598157
 101.7004263  17.3018298  84.0431865 101.0407309  15.9520732  84.2298351
 117.7327747  17.3128725  81.8835164 116.9557190  16.9739884  81.4390326
 118.4119228  17.3181348  81.2090129 110.9926208  18.5913686  83.4234725
 110.4647570  17.8566445  83.1107963 110.4913711  19.3688362  83.1774694
 115.9719054  16.7862706  88.5401772 115.3142728  17.4761968  88.6281900
 116.7759453  17.1759138  88.8835758 109.1378808  16.4093896  76.4269698
 108.2305870  16.1783149  76.6260847 109.6349840  15.6131515  76.6143680
 112.0446887  25.1191403  79.3466384 111.3708586  25.4223100  79.9551342
 112.4312709  25.9220483  78.9971842 110.3167042  16.5106491  80.9493688
 109.4078261  16.2265524  81.0466158 110.3462125  16.9305569  80.0896995
 115.5486309  20.1213080  84.7184856 115.0948636  19.2803990  84.7750046
 114.9180276  20.7574479  85.0559636 113.9919248  21.9589577  85.6534674
 114.2842223  22.5194634  84.9347040 114.5017869  22.2518138  86.4087833
 100.8855212  14.2312005  84.9308891 100.6879612  13.6381366  84.2059957
 100.3301876  13.9264215  85.6484829 110.0143129  18.0515234  78.2881767
 109.5762559  17.3351093  77.8287404 110.7553570  18.2791349  77.7266858
 108.9552873  22.7369928  86.7428127 108.9129052  22.9630774  85.8136659
 109.8715572  22.5033303  86.8913928 107.0718674  19.6132957  86.5390090
 107.8659273  19.1183277  86.3372665 106.3610367  19.0850820  86.1757796
 111.8913519  21.9951053  90.8902458 111.9450541  22.5641989  91.6580174
 111.0228300  22.1652938  90.5256495 103.3801438  13.7576039  82.6149843
 102.4499026  13.6960494  82.8319805 103.4758910  13.2351992  81.8186484
 110.8501618  16.1611315  92.4489390 111.7793678  16.3122474  92.2758357
 110.4292648  16.2495335  91.5938036 109.6489950  20.1861979  90.2187927
 109.5101036  19.8180763  91.0913865 108.8604546  20.7009619  90.0471885
 110.2438102  25.2871076  81.5613464 110.4189858  24.8159119  82.3759086
 109.5570890  25.9136842  81.7894724 111.1995165  19.5643582  87.6076765
 110.8644998  19.5244352  88.5034415 110.6999111  18.8988298  87.1347175
 105.1739409  14.9711212  93.1329346 105.0359207  14.2391451  93.7340885
 106.0844333  14.8820112  92.8513534 114.1354357  16.9099616  77.8813825
 113.5183528  16.1846444  77.7846877 113.6670845  17.6708976  77.5380899
 107.8021710  14.6831171  92.6213026 108.5121329  14.0424363  92.5799644
 107.7591018  14.9344066  93.5439207 104.8099187  28.4360438  88.3353324
 105.0495786  29.0678962  89.0132342 103.9668384  28.0848478  88.6218683
  97.4455043  15.9162200  87.0976636  98.1326083  15.6023930  86.5097651
  97.2903172  16.8203565  86.8243887 109.3227049  24.2439561  90.7394828
 109.2497221  25.0494532  91.2514132 108.8804442  24.4431527  89.9142849
 109.1116829  23.4811331  84.2497649 108.3284351  24.0233011  84.3435874
 109.8109574  23.9985310  84.6491891 111.7825733  24.1426395  92.8952986
 112.4953705  24.7773860  92.8228888 111.2915762  24.2390261  92.0792988
 113.5043260  18.0477647  84.4670278 112.5699539  18.1679110  84.2974982
 113.6819928  17.1450114  84.2030288 106.8337646  21.8920838  93.7158557
 107.5347106  22.5257321  93.8687952 106.3632761  22.2335570  92.9554197
 114.9592042  20.2338788  82.0006464 115.2351886  20.1195383  82.9100338
 114.0896541  19.8356273  81.9618637 111.5946106  24.4825139  85.6439278
 111.7768501  23.6646795  86.1067030 112.4179092  24.6992831  85.2064168
 111.9288272  23.4093324  82.9054326 112.4576038  22.8985779  82.2924489
 112.1916491  23.0935854  83.7699859 102.4305364  21.4257193  90.6489660
 103.0158801  20.6800881  90.7817564 102.2330203  21.7361150  91.5326324
 105.2844020  24.4608441  85.6652102 104.6154395  24.9454568  85.1816142
 105.1456889  24.7077661  86.5795481  97.0223019  13.9962794  89.3694103
  97.0607119  13.4626384  90.1631221  96.5163312  13.4697999  88.7505080
 109.4249288  26.4952184  92.2634761 109.9767596  26.6583806  93.0283846
 109.7655482  27.0856622  91.5914786 100.6531597  12.7226896  82.4448035
 100.9485038  11.8137574  82.3915088  99.7519633  12.7014635  82.1229037
 112.5617676  24.4434160  89.2498443 112.4368815  23.6423900  88.7409388
 113.2196767  24.9380353  88.7612413 114.6252584  22.2443180  90.8777993
 113.6782919  22.1248531  90.8056320 114.9735357  21.3565678  90.9604254
 111.6299017  22.0395896  87.0782345 111.4823980  21.1112603  87.2589915
 112.4552511  22.0615987  86.5939420 115.2333139  22.8624455  88.1647218
 116.1579687  22.6567316  88.0271669 115.0648442  22.6140856  89.0736559
 106.3659753  12.8519447  88.6485207 106.2204334  13.1659750  89.5409489
 105.8884957  13.4704347  88.0956106 115.0228455  23.3810122  83.5209309
 115.1965333  22.8156545  82.7683162 115.5157347  24.1811017  83.3388799
 100.8405415  15.3924791  91.5872868 100.2958883  16.1684599  91.7193143
 101.7184765  15.7395596  91.4291990 116.0103628  22.6976887  80.6206208
 116.7054532  23.3183579  80.8393522 116.3526778  21.8472238  80.8958586
 101.6271437  14.5194688  94.4803025 100.8853173  14.6677323  95.0667656
 101.3064181  14.7802953  93.6169774 117.9095051  20.1476592  82.1493538
 118.4346375  20.4863865  81.4242858 117.8217403  19.2123607  81.9656673
 109.5715100  24.0610666  94.2783415 109.8802226  23.8159813  95.1506115
 110.3690582  24.2657304  93.7902285 109.5935712  26.2148575  86.5088792
 109.1540702  25.7224954  87.2021648 110.3443829  25.6721543  86.2680867
 102.0728051  22.4060116  86.5113420 102.8986071  22.1063888  86.1312063
 101.7222103  21.6367739  86.9603208 107.0409584  21.7586585  88.5811093
 106.4189593  21.0957290  88.2813321 107.7114451  21.7847716  87.8984741
 100.2736656  20.3246443  87.4702353  99.4368564  19.8968617  87.2886355
 100.2460301  20.5178886  88.4073144 106.6023091  20.3090508  82.0569554
 106.7511211  20.9925972  81.4036227 107.4089534  20.2895598  82.5719010
 104.3575724  16.3355686  83.0630623 104.1121766  15.4318016  83.2610833
 104.5271638  16.3372836  82.1210101 110.1018496  22.8038638  79.5281301
 109.5292463  23.4228825  79.0751773 110.6751290  23.3538000  80.0621223
 113.3215756  23.0875788  80.6589884 114.2546429  23.0221350  80.8622759
 113.2338969  23.9232055  80.2004416 115.9503773  22.4041659  77.6193831
 115.8717404  22.0701522  78.5129589 116.7713439  22.8963427  77.6185303
  99.5886152  13.3855791  87.2551285  99.2688937  12.5321099  86.9625659
  99.0419580  13.6004369  88.0109253 103.3666060  16.1018232  90.9720792
 103.5852070  17.0335340  90.9908826 103.7791834  15.7426206  91.7575596
  99.4574412  17.0058702  89.2244407  98.7637884  16.5912655  88.7114361
 100.2047403  17.0479239  88.6277826 101.3711155  16.9376956  87.1010422
 101.3481843  17.0364643  86.1492305 101.6811791  17.7842107  87.4227588
 104.0298533  18.9953111  91.2157036 104.9841786  18.9637054  91.1486968
 103.8311056  18.5343735  92.0307262 104.6197915  17.5654227  93.7827834
 105.4390804  18.0598306  93.8062671 104.8934723  16.6486195  93.7545401
 102.3848761  24.5372731  88.2327234 102.2503229  23.7773132  87.6665232
 101.9680824  25.2613631  87.7656023 113.5207724  19.7209654  77.2403809
 114.2243575  19.9259657  77.8561465 112.7970373  20.2886416  77.5052893
 105.5417887  25.4342048  88.4445677 105.4250271  26.3787480  88.3424367
 104.7210334  25.1315609  88.8331476 115.4294422  20.1592183  79.2902269
 116.2640026  19.7273382  79.1079744 115.2678765  19.9874197  80.2179164
 115.0840314  16.6624297  80.6558609 115.0289118  16.4968568  79.7147053
 114.4586369  17.3700330  80.8120799  99.8732829  11.8992361  94.4820031
 100.5191693  11.3891315  94.9707256  99.6649980  12.6361043  95.0563456
 106.5672401  26.0870310  91.6601605 107.4699648  26.1193920  91.9768100
 106.3409772  25.1570761  91.6747941 108.3226003  24.8401296  88.3211684
 107.3721634  24.8403158  88.2076056 108.6258490  24.0934031  87.8047718
 120.8668403  30.6289263  89.3218971 120.5286915  30.5130327  88.4339506
 121.7358171  30.2280428  89.3019977 116.7255219  32.4824739  85.3115862
 116.1620084  32.3914676  84.5432150 116.6107614  31.6624643  85.7918354
 114.2719651  33.9775931  88.1500082 115.0640943  33.6366755  87.7346382
 114.5116301  34.0870906  89.0702236 116.2310405  33.2384844  81.0217461
 117.0041281  32.6913831  80.8830337 116.5835804  34.1029093  81.2331923
 118.0695447  34.5661226  94.2284360 117.7785313  35.4706857  94.1131027
 118.7052432  34.6077754  94.9428430 118.9951654  31.9438075  90.8185720
 119.5915226  31.7194097  90.1042683 119.0526626  31.2022820  91.4211168
 118.5676683  29.3977510  78.6535911 118.8202203  28.8759031  77.8919374
 117.6301242  29.2343655  78.7562595 118.2872971  31.3005616  80.8560286
 118.1709229  30.6250519  81.5241370 118.3975231  30.8137990  80.0392439
 120.6304512  30.7615763  84.5606975 120.2662720  30.2346384  85.2719897
 121.4871628  30.3714232  84.3873461 120.2709999  25.7905663  79.5568324
 120.4384402  26.6585899  79.9238795 120.0807168  25.9532944  78.6329613
 116.4797814  30.7036439  87.2570859 115.5548310  30.5712653  87.4648550
 116.7282227  31.4830658  87.7540801 120.2499220  28.2463320  80.5414991
 120.1298845  28.6920371  81.3800471 119.5551809  28.5948638  79.9828529
 113.8406625  30.3469712  88.0914648 113.9699006  30.6004191  89.0054059
 113.1604076  30.9397420  87.7719303 118.0106112  41.0166962  84.1905122
 117.9330142  41.9674787  84.2693602 117.4067756  40.6712835  84.8480048
 118.7569714  30.9980281  96.4084456 119.4984399  31.5365325  96.1319279
 118.0506700  31.6246570  96.5656008 120.5856124  28.0782028  92.3790174
 121.4317319  28.5021442  92.5224823 120.5254762  27.4215652  93.0728737
 120.1081830  33.4385020  86.0258991 120.5720176  33.7172723  85.2363614
 119.8438629  32.5368465  85.8432082 117.0005912  32.9856502  88.9638754
 117.5707269  33.4143770  88.3256239 117.5914023  32.7039086  89.6622940
 119.0450717  29.5608172  82.8348556 119.7474760  30.0129216  83.3022483
 118.7131345  28.9191991  83.4628449 112.7876051  27.8191725  88.1365690
 111.9975104  28.0749254  87.6605801 113.2787298  28.6340063  88.2417730
 114.7390796  28.1836304  85.0949167 113.9421959  28.2954999  85.6132662
 114.5116388  28.5222956  84.2290057 120.5696464  34.7081007  93.0431681
 120.6340896  35.1701415  93.8789853 119.8607387  34.0778372  93.1713991
 111.0713753  28.0722215  90.5680681 111.3221792  28.9569225  90.8338257
 111.6073302  27.8926817  89.7955773 120.2844481  36.3749115  82.9110662
 120.1490156  37.2200651  83.3395509 120.8254294  36.5768393  82.1476595
 113.7373879  33.8924553  83.4838587 114.2498399  34.6867803  83.6344151
 114.3896591  33.1950843  83.4172188 115.5468763  37.0090309  85.5661340
 115.7235392  37.9308274  85.3782324 116.3425597  36.6948728  85.9955720
 114.8321120  29.0554941  95.4423503 114.7174635  28.1540198  95.7430602
 113.9765638  29.3018638  95.0908320 116.6700079  38.5268483  91.5671682
 117.2207504  38.3985546  90.7948676 115.8311555  38.8263372  91.2166575
 120.4667250  34.7919611  95.9115913 120.9995587  34.0307899  95.6815221
 119.9381331  34.4993263  96.6540068 111.7022795  32.2213207  84.2598157
 112.5398017  32.6310216  84.0431865 111.8801063  31.2812649  84.2298351
 121.1834339  24.7337989  85.0067229 120.3275935  24.3444839  84.8272867
 121.5961290  24.8129950  84.1467014 118.9576371  22.3523062  88.4124970
 119.8229368  22.1565870  88.0530859 119.0253880  22.1233413  89.3394327
 121.8319962  33.9205603  83.4234725 121.3041324  33.1858363  83.1107963
 121.3307465  34.6980280  83.1774694 116.5638690  24.5825270  85.7841337
 117.1382442  24.3600451  85.0514530 117.1509673  24.6513964  86.5369938
 116.8908277  26.6129731  79.8037222 116.0545589  26.9504417  80.1246497
 116.7513047  26.4778710  78.8664359 118.8661358  21.4566519  84.5116406
 118.2125770  21.1415536  83.8873021 118.8241832  20.8342259  85.2376229
 119.9772563  31.7385814  76.4269698 119.0699624  31.5075067  76.6260847
 120.4743595  30.9423433  76.6143680 121.1560796  31.8398409  80.9493688
 120.2472015  31.5557441  81.0466158 121.1855880  32.2597487  80.0896995
 111.7248966  29.5603923  84.9308891 111.5273366  28.9673283  84.2059957
 111.1695630  29.2556133  85.6484829 119.7045690  29.4527029  87.0503484
 119.7594300  28.5000866  86.9745960 118.8936892  29.6086468  87.5344782
 120.8536884  33.3807152  78.2881767 120.4156314  32.6643011  77.8287404
 121.5947325  33.6083267  77.7266858 117.6438050  28.0704089  84.8093863
 116.8305916  28.3698259  85.2159055 118.1397044  27.6759778  85.5268345
 119.7946628  38.0661846  86.7428127 119.7522807  38.2922692  85.8136659
 120.7109327  37.8325220  86.8913928 117.1352125  25.6422444  90.4255098
 117.7751504  25.5011203  89.7278061 116.3029655  25.3556958  90.0493700
 117.9112429  34.9424875  86.5390090 118.7053027  34.4475195  86.3372665
 117.2004121  34.4142738  86.1757796 114.2195192  29.0867957  82.6149843
 113.2892780  29.0252412  82.8319805 114.3152664  28.5643909  81.8186484
 114.1380741  25.6122769  85.2028084 114.3987559  26.5268103  85.0937245
 114.9597914  25.1447212  85.3524697 115.6105667  27.0260527  92.3726909
 116.2828720  26.8177889  91.7239558 114.7835453  26.8282613  91.9332141
 120.4883705  35.5153897  90.2187927 120.3494790  35.1472681  91.0913865
 119.6998301  36.0301536  90.0471885 121.0831857  40.6162993  81.5613464
 121.2583612  40.1451036  82.3759086 120.3964645  41.2428759  81.7894724
 122.0388920  34.8935499  87.6076765 121.7038752  34.8536269  88.5034415
 121.5392866  34.2280215  87.1347175 116.0133164  30.3003129  93.1329346
 115.8752962  29.5683368  93.7340885 116.9238087  30.2112030  92.8513534
 118.6415464  30.0123089  92.6213026 119.3515083  29.3716281  92.5799644
 118.5984773  30.2635984  93.5439207 117.3544398  26.9988307  94.4408665
 116.8181755  26.5479045  95.0930262 116.7661107  27.1334216  93.6979130
 115.6492942  43.7652356  88.3353324 115.8889540  44.3970880  89.0132342
 114.8062138  43.4140396  88.6218683 116.7646657  26.4576958  77.0035129
 115.8876124  26.3365759  76.6397376 117.2404410  25.6663036  76.7514018
 108.2848798  31.2454118  87.0976636 108.9719837  30.9315848  86.5097651
 108.1296926  32.1495482  86.8243887 113.0883520  26.1344314  91.5261660
 113.0041708  25.5269984  90.7912070 112.2666226  26.6253333  91.5271156
 120.1620804  39.5731478  90.7394828 120.0890975  40.3786450  91.2514132
 119.7198197  39.7723444  89.9142849 119.9510583  38.8103248  84.2497649
 119.1678105  39.3524929  84.3435874 120.6503329  39.3277228  84.6491891
 119.8442202  26.7615261  86.6203539 119.4739990  26.2086301  87.3084445
 120.3401295  26.1573394  86.0678539 117.6731401  37.2212756  93.7158557
 118.3740860  37.8549239  93.8687952 117.2026516  37.5627487  92.9554197
 113.2699119  36.7549111  90.6489660 113.8552556  36.0092799  90.7817564
 113.0723957  37.0653068  91.5326324 116.1237774  39.7900358  85.6652102
 115.4548149  40.2746486  85.1816142 115.9850644  40.0369579  86.5795481
 107.8616774  29.3254711  89.3694103 107.9000873  28.7918302  90.1631221
 107.3557067  28.7989917  88.7505080 120.2643043  41.8244102  92.2634761
 120.8161351  41.9875723  93.0283846 120.6049236  42.4148540  91.5914786
 115.2407536  24.1719252  92.8656645 115.3048862  25.0334083  92.4534043
 115.1774656  23.5593253  92.1329004 111.4925351  28.0518813  82.4448035
 111.7878792  27.1429492  82.3915088 110.5913387  28.0306553  82.1229037
 115.0219598  26.1274810  88.4275583 114.3006184  26.7410778  88.2883056
 115.8112854  26.6632575  88.3492229 113.2213193  25.7332911  82.5687360
 112.8925899  24.8530290  82.3862466 113.5752564  25.6780580  83.4563749
 116.3355016  26.0205881  82.9362837 116.6751089  26.5491802  82.2141446
 116.7827136  26.3586287  83.7121404 118.3223163  24.5180502  81.1356130
 119.0431526  24.8961755  80.6319847 117.6988467  25.2369379  81.2391108
 117.2053507  28.1811365  88.6485207 117.0598088  28.4951668  89.5409489
 116.7278711  28.7996265  88.0956106 119.0649890  25.1713913  88.6966097
 119.0511459  24.2755006  88.3598395 119.7822318  25.1784576  89.3304383
 120.9176021  25.6051253  90.7419224 120.6593799  26.5268323  90.7403554
 120.3861061  25.2081687  91.4319688 111.6799170  30.7216709  91.5872868
 111.1352638  31.4976517  91.7193143 112.5578519  31.0687513  91.4291990
 118.4686786  24.0528293  83.9653667 118.5902697  23.1244939  84.1644554
 118.1788829  24.0666979  83.0531982 121.3377977  21.7383203  87.1020387
 121.3599673  21.8022536  86.1472366 121.7546036  20.8987712  87.2960893
 112.4665191  29.8486605  94.4803025 111.7246927  29.9969241  95.0667656
 112.1457936  30.1094871  93.6169774 120.4108854  39.3902583  94.2783415
 120.7195981  39.1451730  95.1506115 121.2084336  39.5949222  93.7902285
 120.4329466  41.5440493  86.5088792 119.9934456  41.0516872  87.2021648
 121.1837583  41.0013461  86.2680867 112.9121805  37.7352034  86.5113420
 113.7379825  37.4355806  86.1312063 112.5615857  36.9659656  86.9603208
 117.8803338  37.0878502  88.5811093 117.2583348  36.4249207  88.2813321
 118.5508205  37.1139634  87.8984741 111.1130410  35.6538360  87.4702353
 110.2762318  35.2260535  87.2886355 111.0854056  35.8470804  88.4073144
 117.4416845  35.6382426  82.0569554 117.5904966  36.3217890  81.4036227
 118.2483289  35.6187516  82.5719010 115.1969478  31.6647603  83.0630623
 114.9515520  30.7609933  83.2610833 115.3665393  31.6664754  82.1210101
 114.4665126  27.3975961  80.5616784 113.7734371  27.4720316  79.9056820
 114.2216878  26.6336304  81.0838301 120.9412251  38.1330556  79.5281301
 120.3686218  38.7520743  79.0751773 121.5145044  38.6829918  80.0621223
 121.3259049  29.4691369  76.8697354 122.2718154  29.3397577  76.9385772
 120.9473294  28.7306031  77.3466782 119.5101966  27.3941345  76.8052239
 118.6033422  27.0974458  76.8814953 119.7877947  27.0971163  75.9386525
 110.4279907  28.7147709  87.2551285 110.1082691  27.8613017  86.9625659
 109.8813335  28.9296287  88.0109253 114.2059814  31.4310150  90.9720792
 114.4245824  32.3627257  90.9908826 114.6185588  31.0718124  91.7575596
 121.1264032  21.9378235  82.9596480 120.3164760  21.5925320  83.3351726
 121.8148449  21.6285779  83.5484092 118.2800751  24.2528280  76.9464218
 119.1419915  24.5783179  77.2060036 118.4651095  23.4659776  76.4337284
 110.2968167  32.3350620  89.2244407 109.6031638  31.9204573  88.7114361
 111.0441158  32.3771157  88.6277826 112.2104909  32.2668874  87.1010422
 112.1875597  32.3656561  86.1492305 112.5205546  33.1134025  87.4227588
 114.8692287  34.3245029  91.2157036 115.8235541  34.2928971  91.1486968
 114.6704811  33.8635653  92.0307262 115.4591669  32.8946145  93.7827834
 116.2784558  33.3890224  93.8062671 115.7328477  31.9778113  93.7545401
 113.2242516  39.8664648  88.2327234 113.0896984  39.1065049  87.6665232
 112.8074578  40.5905548  87.7656023 116.3811642  40.7633965  88.4445677
 116.2644026  41.7079398  88.3424367 115.5604088  40.4607527  88.8331476
 110.7126584  27.2284279  94.4820031 111.3585447  26.7183233  94.9707256
 110.5043735  27.9652960  95.0563456 119.2330194  21.4924323  80.2343927
 119.2208864  22.4366163  80.3912198 120.1253616  21.3094469  79.9403388
 117.4066156  41.4162227  91.6601605 118.3093403  41.4485838  91.9768100
 117.1803526  40.4862678  91.6747941 119.1619758  40.1693214  88.3211684
 118.2115389  40.1695075  88.2076056 119.4652244  39.4225948  87.8047718
 121.9107508  43.4014133  90.5680681 122.1615546  44.2861143  90.8338257
 122.4467056  43.2218735  89.7955773 119.1242552  46.5746036  87.0976636
 119.8113592  46.2607766  86.5097651 118.9690681  47.4787400  86.8243887
 118.7010528  44.6546629  89.3694103 118.7394628  44.1210220  90.1631221
 118.1950821  44.1281834  88.7505080 121.9524165  50.9830278  87.4702353
 121.1156073  50.5552452  87.2886355 121.9247810  51.1762721  88.4073144
 121.2673661  44.0439626  87.2551285 120.9476446  43.1904934  86.9625659
 120.7207089  44.2588204  88.0109253 121.1361921  47.6642538  89.2244407
 120.4425393  47.2496491  88.7114361 121.8834912  47.7063074  88.6277826
 121.5520338  42.5576196  94.4820031 122.1979202  42.0475150  94.9707256
 121.3437489  43.2944878  95.0563456 118.0106114  18.0229085  70.9150428
 117.9330143  18.9736910  70.9938909 117.4067757  17.6774957  71.5725355
 115.6492943  20.7714479  75.0598630 115.8889541  21.4033003  75.7377649
 114.8062140  20.4202519  75.3463990 116.1237775  16.7962481  72.3897409
 115.4548151  17.2808609  71.9061449 115.9850645  17.0431701  73.3040788
 120.2643044  18.8306225  78.9880067 120.8161352  18.9937846  79.7529153
 120.6049237  19.4210662  78.3160092 120.4329467  18.5502616  73.2334098
 119.9934458  18.0578994  73.9266955 121.1837584  18.0075583  72.9926174
 113.2242517  16.8726771  74.9572541 113.0896985  16.1127172  74.3910539
 112.8074579  17.5967671  74.4901330 116.3811643  17.7696088  75.1690983
 116.2644027  18.7141520  75.0669674 115.5604089  17.4669650  75.5576783
 117.4066157  18.4224350  78.3846912 118.3093404  18.4547960  78.7013407
 117.1803527  17.4924801  78.3993248 121.9107509  20.4076256  77.2925987
 122.1615548  21.2923266  77.5583563 122.4467058  20.2280857  76.5201079
 119.1242553  23.5808158  73.8221943 119.8113593  23.2669888  73.2342958
 118.9690682  24.4849523  73.5489194 118.7010529  21.6608751  76.0939410
 118.7394629  21.1272342  76.8876528 118.1950822  21.1343957  75.4750387
 121.9524166  27.9892401  74.1947660 121.1156074  27.5614575  74.0131661
 121.9247811  28.1824844  75.1318451 121.2673662  21.0501749  73.9796592
 120.9476447  20.1967057  73.6870966 120.7207091  21.2650327  74.7354559
 121.1361923  24.6704660  75.9489714 120.4425394  24.2558613  75.4359668
 121.8834914  24.7125197  75.3523133 121.5520339  19.5638319  81.2065338
 122.1979203  19.0537273  81.6952563 121.3437490  20.3007001  81.7808763
  47.0084355  71.1067160 132.4485155  46.3346054  71.4098856 133.0570113
  47.3950177  71.9096240 132.0990612  49.0991825  62.8975373 130.9832595
  48.4820996  62.1722201 130.8865648  48.6308314  63.6584733 130.6399669
  50.9741096  68.6852643 133.7224978  51.6692000  69.3059336 133.9412293
  51.3164246  67.8347994 133.9977356  45.0655964  68.7914395 132.6300072
  44.4929931  69.4104582 132.1770544  45.6388758  69.3413757 133.1639994
  48.2853224  69.0751545 133.7608654  49.2183897  69.0097107 133.9641529
  48.1976437  69.9107812 133.3023187  50.9141241  68.3917415 130.7212601
  50.8354872  68.0577279 131.6148359  51.7350908  68.8839183 130.7204074
  48.4845192  65.7085411 130.3422580  49.1881043  65.9135413 130.9580235
  47.7607841  66.2762173 130.6071663  50.3931890  66.1467940 132.3921040
  51.2277494  65.7149138 132.2098515  50.2316233  65.9749954 133.3197934
  51.8545745  72.6005487 132.9055992  51.0183057  72.9380174 133.2265267
  51.7150515  72.4654467 131.9683129  51.7284125  72.4452715 130.1053899
  50.8513592  72.3241515 129.7416146  52.2041879  71.6538793 129.8532788
  49.4302594  73.3851717 133.6635555  48.7371839  73.4596072 133.0075591
  49.1854346  72.6212061 134.1857072  54.4739434  73.3817102 129.9071009
  53.5670890  73.0850214 129.9833723  54.7515415  73.0846920 129.0405296
  53.2438219  70.2404037 130.0482989  54.1057383  70.5658935 130.3078806
  53.4288563  69.4535533 129.5356054  54.1967662  67.4800080 133.3362698
  54.1846332  68.4241920 133.4930968  55.0891084  67.2970225 133.0422159
  47.0084356  48.1129282 119.1730461  46.3346055  48.4160979 119.7815419
  47.3950178  48.9158363 118.8235919  49.0991826  39.9037495 117.7077902
  48.4820997  39.1784323 117.6110954  48.6308315  40.6646856 117.3644976
  50.9741097  45.6914766 120.4470285  51.6692002  46.3121458 120.6657599
  51.3164247  44.8410117 120.7222663  45.0655966  45.7976517 119.3545378
  44.4929933  46.4166705 118.9015850  45.6388759  46.3475879 119.8885300
  48.2853225  46.0813668 120.4853961  49.2183898  46.0159229 120.6886836
  48.1976438  46.9169934 120.0268493  50.9141242  45.3979538 117.4457908
  50.8354873  45.0639402 118.3393666  51.7350909  45.8901306 117.4449380
  48.4845194  42.7147533 117.0667886  49.1881044  42.9197536 117.6825542
  47.7607843  43.2824295 117.3316970  50.3931891  43.1530063 119.1166346
  51.2277495  42.7211261 118.9343821  50.2316234  42.9812076 120.0443241
  59.0216166  53.6699714 129.2121523  59.6594576  53.5506461 128.5084863
  58.9037009  54.6180558 129.2709475  55.8305873  53.6227142 129.1483048
  55.4924384  53.5068206 128.2603583  56.6995641  53.2218307 129.1284054
  51.6892688  55.4762618 125.1379939  51.1257553  55.3852555 124.3696227
  51.5745083  54.6562523 125.6182431  57.2692247  59.1433586 120.4494404
  56.6180227  59.7287666 120.0628418  58.0636610  59.6739781 120.5089441
  51.1947874  56.2322723 120.8481538  51.9678750  55.6851710 120.7094414
  51.5473273  57.0966972 121.0596000  53.5314152  52.3915389 118.4799988
  53.7839673  51.8696910 117.7183451  52.5938711  52.2281535 118.5826672
  58.5757435  51.3951168 126.2874731  59.3620524  50.9770591 125.9365148
  58.8396139  52.2997260 126.4556380  58.7467512  56.8324018 120.9863388
  58.1113345  56.9058644 121.6984293  58.4164919  57.4217617 120.3082467
  63.9765862  51.3326401 127.1907710  64.7091034  50.7625618 127.4245539
  63.2205218  50.9448001 127.6314215  53.2510441  54.2943495 120.6824363
  53.1346699  53.6188399 121.3505447  53.3612701  53.8075869 119.8656516
  55.5941982  53.7553642 124.3871052  55.2300189  53.2284263 125.0983974
  56.4509098  53.3652111 124.2137538  55.2347469  48.7843542 119.3832401
  55.4021871  49.6523778 119.7502872  55.0444638  48.9470824 118.4593690
  57.9922802  57.2460521 131.0498231  57.6923525  58.1485560 130.9414038
  57.6473861  56.9792704 131.9019384  61.3919946  49.7643061 128.7295668
  60.4836823  49.6958469 128.4354429  61.3407541  50.2415006 129.5577494
  55.2136689  51.2401199 120.3679068  55.0936315  51.6858250 121.2064548
  54.5189278  51.5886517 119.8092606  52.9743582  64.0104841 124.0169199
  52.8967611  64.9612666 124.0957679  52.3705225  63.6650714 124.6744125
  60.9121756  51.7122673 121.1959402  61.8239612  51.9450059 121.0207099
  60.4031403  52.2959717 120.6334480  59.5191338  56.6948491 128.5872983
  58.8900200  56.8594205 127.8849051  59.1317000  57.1090101 129.3583947
  63.3980570  57.6302929 125.9417347  62.7131608  58.0101830 125.3914380
  63.4824419  58.2398256 126.6749295  55.0719300  56.4322899 125.8523068
  55.5357645  56.7110602 125.0627691  54.8076098  55.5306344 125.6696159
  54.0088186  52.5546052 122.6612633  54.7112229  53.0067095 123.1286560
  53.6768814  51.9129870 123.2892526  61.7677329  58.1534843 130.7135048
  62.5894773  57.7515031 130.4317729  61.7639732  58.0503078 131.6651164
  69.8583322  54.4973592 127.0620019  69.1047031  53.9280990 126.9064024
  69.9930864  54.4636256 128.0090654  55.2481950  59.3686994 122.7374739
  55.1127625  60.2138530 123.1659586  55.7891763  59.5706272 121.9740672
  48.7011348  56.8862432 123.3102664  49.2135868  57.6805682 123.4608228
  49.3534061  56.1888723 123.2436265  50.5106233  60.0028188 125.3925417
  50.6872861  60.9246153 125.2046401  51.3063066  59.6886608 125.8219797
  51.6337548  61.5206362 131.3935759  52.1844973  61.3923426 130.6212753
  50.7949024  61.8201251 131.0430652  46.6660265  55.2151086 124.0862234
  47.5035487  55.6248095 123.8695942  46.8438532  54.2750529 124.0562428
  58.5624697  52.8826167 119.7746067  58.0471320  53.6530772 120.0134455
  58.2902005  52.2091303 120.3979129  56.1471808  47.7275868 124.8331306
  55.2913404  47.3382718 124.6536944  56.5598760  47.8067829 123.9731091
  63.5358971  55.6358522 121.7099241  62.7588414  55.2969681 121.2654403
  64.2150452  55.6411145 121.0354206  58.3511000  50.7553259 121.6005848
  58.0461135  51.0699408 122.4515992  59.3041442  50.8334679 121.6433181
  56.7957432  56.9143483 123.2498802  56.2678793  56.1796242 122.9372040
  56.2944934  57.6918159 123.0038771  61.7750278  55.1092503 128.3665849
  61.1173952  55.7991764 128.4545977  62.5790677  55.4988935 128.7099835
  60.5855737  53.4636876 126.4169790  61.0987618  54.0966868 126.9191500
  61.2356960  52.8638071 126.0513150  51.8545746  49.6067610 119.6301299
  51.0183059  49.9442296 119.9510574  51.7150516  49.4716590 118.6928436
  54.9410032  54.7323693 116.2533775  54.0337094  54.5012946 116.4524924
  55.4381064  53.9361312 116.4407757  57.8478111  63.4421200 119.1730461
  57.1739810  63.7452897 119.7815419  58.2343933  64.2450280 118.8235919
  57.8471615  52.3377747 123.7930811  58.5943434  52.8499144 123.4837933
  58.1163205  52.0161800 124.6535205  56.1198265  54.8336288 120.7757765
  55.2109485  54.5495320 120.8730235  56.1493349  55.2535366 119.9161072
  61.3517533  58.4442877 124.5448933  60.8979860  57.6033787 124.6014123
  60.7211500  59.0804276 124.8823713  60.2950452  49.3734863 125.7749600
  59.5573209  48.8612249 126.1059843  60.5477226  48.9335245 124.9632877
  59.7950472  60.2819374 125.4798751  60.0873446  60.8424431 124.7611117
  60.3049093  60.5747935 126.2351910  54.6683159  52.4464908 126.8767561
  54.7231769  51.4938745 126.8010037  53.8574361  52.6024347 127.3608859
  55.8174353  56.3745031 118.1145844  55.3793783  55.6580890 117.6551481
  56.5584794  56.6021146 117.5530935  52.6075519  51.0641968 124.6357940
  51.7943385  51.3636139 125.0423132  53.1034514  50.6697657 125.3532422
  54.7584097  61.0599725 126.5692204  54.7160276  61.2860571 125.6400736
  55.6746796  60.8263100 126.7178005  63.9347468  54.6502228 124.1722163
  63.7965367  54.8403824 123.2443352  63.5783687  55.4121611 124.6290214
  63.9616848  56.7178755 129.1833434  64.3953354  56.6254044 130.0316488
  64.6748428  56.6936256 128.5453450  52.8749898  57.9362754 126.3654167
  53.6690497  57.4413074 126.1636742  52.1641590  57.4080617 126.0021873
  57.6944742  60.3180850 130.7166535  57.7481765  60.8871786 131.4844251
  56.8259524  60.4882735 130.3520572  49.1832661  52.0805836 122.4413920
  48.2530250  52.0190291 122.6583882  49.2790133  51.5581788 121.6450561
  64.8232397  56.7602456 131.7166319  65.0168287  57.6648267 131.9625594
  64.7233015  56.3009875 132.5504904  55.4521174  58.5091776 130.0452004
  55.3132260  58.1410560 130.9177942  54.6635770  59.0239415 129.8735962
  56.0469326  63.6100872 121.3877541  56.2221082  63.1388916 122.2023163
  55.3602114  64.2366639 121.6158801  57.0026389  57.8873379 127.4340842
  56.6676222  57.8474149 128.3298492  56.5030335  57.2218095 126.9611252
  59.9385581  55.2329413 117.7077902  59.3214751  54.5076241 117.6110954
  59.4702069  55.9938773 117.3644976  50.6130411  66.7590235 128.1617401
  50.8527009  67.3908759 128.8396419  49.7699608  66.4078275 128.4482760
  51.7284127  49.4514837 116.8299206  50.8513593  49.3303638 116.4661453
  52.2041880  48.6600916 116.5778095  55.1258273  62.5669358 130.5658905
  55.0528445  63.3724329 131.0778209  54.6835666  62.7661323 129.7406926
  54.9148053  61.8041128 124.0761726  54.1315575  62.3462808 124.1699951
  55.6140798  62.3215107 124.4755968  58.2244703  47.6135757 126.7195932
  58.7213402  46.8605719 126.3997002  57.4531684  47.6500074 126.1539141
  66.0774460  53.3176123 128.3614223  66.0664337  54.2000838 127.9908156
  65.2091840  52.9647673 128.1668760  57.5856957  62.4656192 132.7217063
  58.2984929  63.1003656 132.6492965  57.0946985  62.5620058 131.9057065
  59.3074484  56.3707444 124.2934355  58.3730762  56.4908907 124.1239059
  59.4851152  55.4679911 124.0294365  62.6947035  52.2124764 124.8284389
  63.1607487  53.0452755 124.7544692  63.1454535  51.7469745 125.5329648
  60.7623266  58.5568585 121.8270541  61.0383110  58.4425179 122.7364415
  59.8927765  58.1586070 121.7882714  57.3977330  62.8054936 125.4703355
  57.5799725  61.9876592 125.9331107  58.2210316  63.0222628 125.0328245
  57.7319496  61.7323121 122.7318403  58.2607262  61.2215575 122.1188566
  57.9947715  61.4165651 123.5963936  51.0875243  62.7838238 125.4916179
  50.4185619  63.2684365 125.0080219  50.9488113  63.0307458 126.4059558
  55.2280512  64.8181981 132.0898838  55.7798820  64.9813603 132.8547923
  55.5686706  65.4086419 131.4178863  46.4562821  51.0456693 122.2712112
  46.7516262  50.1367371 122.2179165  45.5550856  51.0244432 121.9493114
  58.3648899  62.7663957 129.0762520  58.2400039  61.9653696 128.5673465
  59.0227990  63.2610150 128.5876490  60.4283808  60.5672977 130.7042070
  59.4814143  60.4478328 130.6320397  60.7766581  59.6795475 130.7868331
  48.1850662  48.7270790 122.3951437  47.8563368  47.8468169 122.2126543
  48.5390033  48.6718459 123.2827826  57.4330241  60.3625693 126.9046422
  57.2855203  59.4342400 127.0853992  58.2583735  60.3845784 126.4203497
  51.2992485  49.0143760 122.7626914  51.6388558  49.5429681 122.0405523
  51.7464606  49.3524166 123.5385481  61.0364363  61.1854252 127.9911295
  61.9610910  60.9797113 127.8535746  60.8679666  60.9370653 128.9000636
  53.2860632  47.5118382 120.9620207  54.0068995  47.8899634 120.4583924
  52.6625937  48.2307258 121.0655185  57.4291755  48.2163531 121.8978539
  57.6455370  49.0988168 121.5967368  56.9485822  47.8249744 121.1684181
  60.8259679  61.7039919 123.3473386  60.9996557  61.1386342 122.5947239
  61.3188570  62.5040814 123.1652876  53.4324256  47.0466172 123.7917744
  53.5540167  46.1182818 123.9908631  53.1426298  47.0604858 122.8796059
  66.6799070  54.4676342 124.9663686  67.1230216  53.7183667 124.5682809
  65.8025581  54.4586478 124.5837418  61.8134852  61.0206684 120.4470285
  62.5085756  61.6413376 120.6657599  62.1558002  60.1702035 120.7222663
  63.7126275  58.4706389 121.9757615  64.2377599  58.8093662 121.2506935
  63.6248627  57.5353404 121.7920750  55.3966935  64.5378372 126.3352869
  54.9571926  64.0454751 127.0285725  56.1475052  63.9951340 126.0944944
  47.8759274  60.7289913 126.3377497  48.7017294  60.4293685 125.9576140
  47.5253326  59.9597536 126.7867285  52.8440808  60.0816381 128.4075170
  52.2220817  59.4187086 128.1077398  53.5145674  60.1077513 127.7248818
  46.0767879  58.6476240 127.2966430  45.2399788  58.2198414 127.1150432
  46.0491525  58.8408683 128.2337222  52.4054314  58.6320305 121.8833631
  52.5542435  59.3155769 121.2300304  53.2120758  58.6125395 122.3983087
  65.0236253  58.3728701 134.8383563  64.7321061  58.7358681 135.6747024
  64.4108384  57.6595709 134.6596896  66.2231935  55.9381580 127.3586134
  67.0578826  56.3771384 127.5223694  66.3591064  55.4620234 126.5394379
  50.1606947  54.6585482 122.8894700  49.9152989  53.7547812 123.0874910
  50.3302862  54.6602633 121.9474178  49.4302595  50.3913840 120.3880861
  48.7371840  50.4658195 119.7320897  49.1854347  49.6274184 120.9102378
  55.9049720  61.1268435 119.3545378  55.3323687  61.7458622 118.9015850
  56.4782514  61.6767797 119.8885300  59.1246980  61.4105585 120.4853961
  60.0577653  61.3451147 120.6886836  59.0370193  62.2461852 120.0268493
  61.7534996  60.7271456 117.4457908  61.6748628  60.3931319 118.3393666
  62.5744663  61.2193224 117.4449380  64.4513188  53.5933195 130.6534227
  64.4189508  52.6549196 130.8393911  65.0613811  53.6717232 129.9200052
  56.2896518  52.4629248 116.6961431  57.2355623  52.3335456 116.7649849
  55.9110763  51.7243910 117.1730859  70.2689737  54.6549202 129.7940264
  70.9993126  54.3934490 130.3547967  69.6596683  53.9177924 129.8342332
  68.3505035  52.7957064 130.3914715  67.6238198  52.6613029 129.7831206
  67.9352321  53.1033893 131.1971433  54.4739436  50.3879224 116.6316316
  53.5670891  50.0912337 116.7079030  54.7515417  50.0909042 115.7650602
  56.0901501  44.9316114 122.7860557  55.2802230  44.5863199 123.1615803
  56.7785918  44.6223658 123.3748169  53.2438220  47.2466160 116.7728295
  54.1057384  47.5721058 117.0324113  53.4288564  46.4597655 116.2601361
  61.3970857  46.1194686 123.9163518  60.8169526  46.7779490 123.5341571
  61.1306789  45.2972031 123.5050936  60.1795735  48.2794776 122.9719866
  59.2921590  48.5644427 122.7540061  60.5949724  48.1188540 122.1247143
  63.5310271  48.3041297 126.6874206  64.3070661  48.7937750 126.9598823
  62.8058405  48.7299352 127.1446075  65.9682830  49.0168917 127.7448146
  66.5627320  48.7764653 127.0341455  66.0409413  48.2976047 128.3721683
  48.1879985  62.8602528 128.0591311  48.0534453  62.1002928 127.4929309
  47.7712047  63.5843427 127.5920100  59.3238948  58.0439451 117.0667886
  60.0274798  58.2489454 117.6825542  58.6001597  58.6116213 117.3316970
  60.1536759  53.7949312 123.1870157  60.0971960  54.2517864 122.3477789
  60.7065101  53.0339997 123.0092999  63.9641564  49.5839044 124.0120276
  63.7078499  49.1835680 124.8428484  63.3394432  50.2982838 123.8870415
  68.2753902  52.3235117 126.5191568  67.7153460  52.3928307 127.2923130
  67.6697406  52.1476102 125.7991064  51.3449111  63.7571845 128.2709754
  51.2281495  64.7017277 128.1688444  50.5241557  63.4545406 128.6595553
  61.2325646  58.4821980 119.1166346  62.0671250  58.0503179 118.9343821
  61.0709989  58.3103994 120.0443241  60.8871538  54.9854094 120.4822686
  60.8320342  54.8198365 119.5411130  60.2617593  55.6930126 120.6384876
  54.1967663  44.4862203 120.0608004  54.1846333  45.4304042 120.2176275
  55.0891085  44.3032348 119.7667465  52.3703625  64.4100106 131.4865682
  53.2730872  64.4423717 131.8032177  52.1440995  63.4800557 131.5012018
  54.1257227  63.1631093 128.1475761  53.1752858  63.1632955 128.0340133
  54.4289713  62.4163828 127.6311795  66.6699627  68.9519059 129.1483048
  66.3318139  68.8360124 128.2603583  67.5389395  68.5510225 129.1284054
  62.5286443  70.8054536 125.1379939  61.9651308  70.7144473 124.3696227
  62.4138838  69.9854440 125.6182431  60.0750875  72.3005727 127.9764159
  60.8672167  71.9596552 127.5610459  60.3147525  72.4100703 128.8966313
  68.1086001  74.4725504 120.4494404  67.4573981  75.0579584 120.0628418
  68.9030364  75.0031698 120.5089441  62.0341629  71.5614641 120.8481538
  62.8072505  71.0143628 120.7094414  62.3867027  72.4258890 121.0596000
  64.3707906  67.7207307 118.4799988  64.6233427  67.1988828 117.7183451
  63.4332465  67.5573452 118.5826672  69.4151189  66.7243085 126.2874731
  70.2014278  66.3062508 125.9365148  69.6789894  67.6289177 126.4556380
  69.5861267  72.1615936 120.9863388  68.9507100  72.2350562 121.6984293
  69.2558673  72.7509534 120.3082467  74.8159616  66.6618318 127.1907710
  75.5484788  66.0917535 127.4245539  74.0598972  66.2739919 127.6314215
  64.0904195  69.6235413 120.6824363  63.9740453  68.9480316 121.3505447
  64.2006455  69.1367787 119.8656516  66.4335736  69.0845560 124.3871052
  66.0693943  68.5576181 125.0983974  67.2902852  68.6944029 124.2137538
  72.3385037  60.3739893 131.6502318  72.0068361  61.2435303 131.4263533
  71.7430650  60.0576177 132.3296349  66.0741223  64.1135460 119.3832401
  66.2415625  64.9815696 119.7502872  65.8838392  64.2762741 118.4593690
  62.2829038  69.0266235 127.0834936  61.3579534  68.8942449 127.2912627
  62.5313451  69.8060455 127.5804878  66.0530444  66.5693117 120.3679068
  65.9330069  67.0150168 121.2064548  65.3583032  66.9178435 119.8092606
  59.6437849  68.6699509 127.9178725  59.7730230  68.9233988 128.8318136
  58.9635300  69.2627217 127.5983380  63.8137336  79.3396759 124.0169199
  63.7361366  80.2904584 124.0957679  63.2098980  78.9942631 124.6744125
  71.7515510  67.0414590 121.1959402  72.6633366  67.2741977 121.0207099
  71.2425157  67.6251635 120.6334480  69.0951485  63.2172626 129.4449263
  68.2335964  63.5153880 129.7366000  69.1213920  63.4343025 128.5130295
  65.9113054  71.7614817 125.8523068  66.3751400  72.0402520 125.0627691
  65.6469852  70.8598261 125.6696159  62.8037135  71.3086298 128.7902831
  63.3738492  71.7373567 128.1520316  63.3945247  71.0268883 129.4887017
  64.8481940  67.8837969 122.6612633  65.5505984  68.3359013 123.1286560
  64.5162569  67.2421788 123.2892526  58.5907274  66.1421522 127.9629767
  57.8006328  66.3979050 127.4869878  59.0818522  66.9569860 128.0681807
  60.5422020  66.5066101 124.9213244  59.7453183  66.6184795 125.4396739
  60.3147612  66.8452753 124.0554134  56.8744977  66.3952012 130.3944758
  57.1253016  67.2799022 130.6602334  57.4104526  66.2156614 129.6219850
  66.0875705  74.6978912 122.7374739  65.9521380  75.5430448 123.1659586
  66.6285517  74.8998189 121.9740672  59.5405102  72.2154350 123.3102664
  60.0529623  73.0097600 123.4608228  60.1927815  71.5180640 123.2436265
  61.3499987  75.3320106 125.3925417  61.5266615  76.2538071 125.2046401
  62.1456821  75.0178525 125.8219797  69.4368169  58.2209474 131.2673632
  69.0932438  59.1111115 131.1912743  69.8047131  58.0311131 130.4043217
  57.5054019  70.5443004 124.0862234  58.3429241  70.9540013 123.8695942
  57.6832287  69.6042446 124.0562428  69.4018451  68.2118085 119.7746067
  68.8865075  68.9822689 120.0134455  69.1295760  67.5383221 120.3979129
  66.9865562  63.0567786 124.8331306  66.1307159  62.6674636 124.6536944
  67.3992514  63.1359746 123.9731091  68.5164709  60.5914129 129.2322865
  68.0129504  60.5544264 128.4190671  68.8095316  61.5006872 129.2919522
  64.7607595  60.6752859 128.2389047  65.6260592  60.4795667 127.8794936
  64.8285104  60.4463210 129.1658404  74.3752725  70.9650439 121.7099241
  73.5982168  70.6261599 121.2654403  75.0544206  70.9703063 121.0354206
  69.1904754  66.0845177 121.6005848  68.8854890  66.3991326 122.4515992
  70.1435197  66.1626597 121.6433181  67.6351186  72.2435400 123.2498802
  67.1072548  71.5088160 122.9372040  67.1338689  73.0210077 123.0038771
  62.3669914  62.9055067 125.6105414  62.9413666  62.6830248 124.8778607
  62.9540896  62.9743761 126.3634015  71.4249491  68.7928793 126.4169790
  71.9381373  69.4258785 126.9191500  72.0750715  68.1929989 126.0513150
  62.6939501  64.9359528 119.6301299  61.8576813  65.2734214 119.9510574
  62.5544271  64.8008507 118.6928436  64.6692582  59.7796315 124.3380483
  64.0156994  59.4645333 123.7137098  64.6273056  59.1572056 125.0640306
  65.7803786  70.0615610 116.2533775  64.8730848  69.8304864 116.4524924
  66.2774818  69.2653230 116.4407757  68.6871865  78.7713118 119.1730461
  68.0133564  79.0744814 119.7815419  69.0737687  79.5742198 118.8235919
  67.9030322  66.2678249 128.6628131  66.9852883  66.4893196 128.5049819
  68.3190466  66.3424559 127.8039838  68.6865370  67.6669665 123.7930811
  69.4337189  68.1791062 123.4837933  68.9556959  67.3453717 124.6535205
  66.9592020  70.1628205 120.7757765  66.0503239  69.8787238 120.8730235
  66.9887104  70.5827284 119.9161072  71.1344207  64.7026781 125.7749600
  70.3966964  64.1904167 126.1059843  71.3870980  64.2627162 124.9632877
  71.2355834  57.4803033 126.3691370  71.5414711  56.6200396 126.0817285
  71.9608439  58.0720653 126.1690364  57.5280190  67.8833719 124.7572968
  57.3304590  67.2903080 124.0324034  56.9726854  67.5785930 125.4748906
  65.5076914  67.7756826 126.8767561  65.5625524  66.8230662 126.8010037
  64.6968116  67.9316265 127.3608859  66.6568108  71.7036949 118.1145844
  66.2187538  70.9872808 117.6551481  67.3978549  71.9313064 117.5530935
  63.4469274  66.3933886 124.6357940  62.6337139  66.6928056 125.0423132
  63.9428268  65.9989574 125.3532422  74.7741222  69.9794146 124.1722163
  74.6359121  70.1695742 123.2443352  74.4177441  70.7413529 124.6290214
  62.9383349  63.9652241 130.2519175  63.5782728  63.8241000 129.5542138
  62.1060879  63.6786755 129.8757777  63.7143653  73.2654672 126.3654167
  64.5084251  72.7704992 126.1636742  63.0035345  72.7372535 126.0021873
  60.0226416  67.4097753 122.4413920  59.0924004  67.3482209 122.6583882
  60.1183888  66.8873706 121.6450561  59.9411965  63.9352566 125.0292161
  60.2018782  64.8497899 124.9201322  60.7629137  63.4677009 125.1788774
  61.4136890  65.3490323 132.1990986  62.0859944  65.1407686 131.5503635
  60.5866677  65.1512409 131.7596218  66.8863080  78.9392790 121.3877541
  67.0614836  78.4680833 122.2023163  66.1995868  79.5658556 121.6158801
  70.7779335  70.5621331 117.7077902  70.1608506  69.8368159 117.6110954
  70.3095824  71.3230691 117.3644976  62.5677881  64.7806755 116.8299206
  61.6907348  64.6595556 116.4661453  63.0435634  63.9892833 116.5778095
  54.0880021  69.5683915 126.9240713  54.7751061  69.2545645 126.3361728
  53.9328150  70.4725279 126.6507964  58.8914743  64.4574111 131.3525737
  58.8072932  63.8499781 130.6176147  58.0697450  64.9483130 131.3535233
  65.7541807  77.1333045 124.0761726  64.9709329  77.6754726 124.1699951
  66.4534552  77.6507025 124.4755968  69.0638457  62.9427675 126.7195932
  69.5607157  62.1897637 126.3997002  68.2925439  62.9791991 126.1539141
  70.1468238  71.6999362 124.2934355  69.2124517  71.8200824 124.1239059
  70.3244907  70.7971829 124.0294365  65.6473426  65.0845058 126.4467616
  65.2771214  64.5316098 127.1348522  66.1432519  64.4803191 125.8942616
  73.5340789  67.5416681 124.8284389  74.0001242  68.3744673 124.7544692
  73.9848290  67.0761663 125.5329648  71.6017021  73.8860503 121.8270541
  71.8776864  73.7717097 122.7364415  70.7321519  73.4877987 121.7882714
  71.5057452  59.9097268 128.8675291  70.5920532  60.1401495 129.0357498
  71.9350554  59.9935712 129.7189323  68.5713250  77.0615039 122.7318403
  69.1001016  76.5507493 122.1188566  68.8341470  76.7457569 123.5963936
  53.6647997  67.6484508 129.1958180  53.7032097  67.1148099 129.9895298
  53.1588290  67.1219714 128.5769157  61.0438760  62.4949049 132.6920722
  61.1080086  63.3563879 132.2798120  60.9805880  61.8823050 131.9593081
  57.2956575  66.3748610 122.2712112  57.5910016  65.4659289 122.2179165
  56.3944611  66.3536350 121.9493114  60.8250822  64.4504607 128.2539660
  60.1037408  65.0640575 128.1147133  61.6144078  64.9862372 128.1756306
  59.0244417  64.0562708 122.3951437  58.6957123  63.1760087 122.2126543
  59.3783787  64.0010377 123.2827826  62.1386240  64.3435678 122.7626914
  62.4782312  64.8721599 122.0405523  62.5858360  64.6816084 123.5385481
  64.8329681  62.7272728 132.2129982  64.4926501  61.9280541 132.6150662
  64.1268687  63.0274439 131.6406816  65.4846152  59.8122041 130.6657305
  66.3072222  59.3382519 130.5436196  65.7284216  60.5912525 131.1655992
  64.1254387  62.8410299 120.9620207  64.8462749  63.2191552 120.4583924
  63.5019691  63.5599176 121.0655185  68.2685510  63.5455448 121.8978539
  68.4849124  64.4280086 121.5967368  67.7879577  63.1541662 121.1684181
  63.0084731  66.5041161 128.4749284  62.8629312  66.8181465 129.3673566
  62.5309935  67.1226062 127.9220183  64.8681114  63.4943709 128.5230174
  64.8542683  62.5984803 128.1862472  65.5853542  63.5014373 129.1568460
  66.7207245  63.9281050 130.5683301  66.4625023  64.8498120 130.5667631
  66.1892285  63.5311484 131.2583765  57.4830393  69.0446506 131.4136945
  56.9383861  69.8206314 131.5457220  58.3609743  69.3917310 131.2556067
  64.2718010  62.3758090 123.7917744  64.3933921  61.4474736 123.9908631
  63.9820052  62.3896776 122.8796059  67.1409200  60.0613000 126.9284464
  67.1630897  60.1252333 125.9736443  67.5577259  59.2217509 127.1224970
  72.6528606  76.3498601 120.4470285  73.3479511  76.9705294 120.6657599
  72.9951756  75.4993952 120.7222663  74.5520029  73.7998307 121.9757615
  75.0771353  74.1385579 121.2506935  74.4642382  72.8645322 121.7920750
  58.7153029  76.0581831 126.3377497  59.5411049  75.7585603 125.9576140
  58.3647081  75.2889453 126.7867285  56.9161634  73.9768157 127.2966430
  56.0793542  73.5490332 127.1150432  56.8885279  74.1700601 128.2337222
  63.2448069  73.9612222 121.8833631  63.3936189  74.6447687 121.2300304
  64.0514512  73.9417312 122.3983087  61.0000702  69.9877400 122.8894700
  60.7546744  69.0839730 123.0874910  61.1696616  69.9894550 121.9474178
  68.6897412  60.8601076 132.2719455  69.2079356  61.5962103 131.9465944
  68.3352545  61.1665070 133.1066214  60.2696349  65.7205758 120.3880861
  59.5765594  65.7950113 119.7320897  60.0248101  64.9566101 120.9102378
  68.9410006  57.2801359 127.7920352  69.2211760  56.6124548 128.4180779
  69.7260613  57.4730455 127.2795016  66.7443474  76.4560353 119.3545378
  66.1717442  77.0750540 118.9015850  67.3176268  77.0059715 119.8885300
  69.9640734  76.7397503 120.4853961  70.8971407  76.6743065 120.6886836
  69.8763947  77.5753770 120.0268493  72.5928751  76.0563373 117.4457908
  72.5142382  75.7223237 118.3393666  73.4138418  76.5485141 117.4449380
  67.1290273  67.7921166 116.6961431  68.0749378  67.6627374 116.7649849
  66.7504518  67.0535828 117.1730859  73.1012158  59.4577172 126.6588323
  72.9036979  59.1492260 127.5431655  73.7111863  60.1838811 126.7886252
  65.3133190  65.7171142 116.6316316  64.4064646  65.4204255 116.7079030
  65.5909171  65.4200960 115.7650602  56.2311131  67.0377505 127.0815362
  55.9113915  66.1842814 126.7889736  55.6844559  67.2526084 127.8373330
  60.0091038  69.7539946 130.7984869  60.2277048  70.6857054 130.8172903
  60.4216812  69.3947921 131.5839673  66.9295256  60.2608032 122.7860557
  66.1195984  59.9155117 123.1615803  67.6179673  59.9515575 123.3748169
  68.8585804  59.3386079 124.4084854  69.4116843  59.7581532 125.0674877
  69.0955891  58.4121827 124.4507810  64.0831975  62.5758077 116.7728295
  64.9451139  62.9012976 117.0324113  64.2682319  61.7889573 116.2601361
  56.0999391  70.6580417 129.0508484  55.4062862  70.2434370 128.5378438
  56.8472382  70.7000953 128.4541903  72.2364611  61.4486604 123.9163518
  71.6563280  62.1071408 123.5341571  71.9700544  60.6263948 123.5050936
  70.6868178  60.8491661 126.1184839  71.1867956  60.9608196 125.3099157
  71.3303786  60.5452714 126.7585647  58.0136133  70.5898671 126.9274499
  57.9906821  70.6886358 125.9756382  58.3236770  71.4363821 127.2491665
  71.0189489  63.6086694 122.9719866  70.1315344  63.8936345 122.7540061
  71.4343478  63.4480457 122.1247143  74.3704025  63.6333215 126.6874206
  75.1464416  64.1229667 126.9598823  73.6452160  64.0591269 127.1446075
  76.8076584  64.3460834 127.7448146  77.4021075  64.1056570 127.0341455
  76.8803168  63.6267965 128.3721683  70.1632703  73.3731369 117.0667886
  70.8668553  73.5781371 117.6825542  69.4395351  73.9408131 117.3316970
  70.9930513  69.1241230 123.1870157  70.9365714  69.5809781 122.3477789
  71.5458855  68.3631915 123.0092999  74.8035319  64.9130962 124.0120276
  74.5472253  64.5127598 124.8428484  74.1788187  65.6274756 123.8870415
  72.0719400  73.8113898 119.1166346  72.9065004  73.3795096 118.9343821
  71.9103743  73.6395912 120.0443241  71.7265292  70.3146011 120.4822686
  71.6714096  70.1490283 119.5411130  71.1011348  71.0222044 120.6384876
  56.5157807  65.5514076 134.3084108  57.1616671  65.0413030 134.7971333
  56.3074958  66.2882757 134.8827533  65.0361418  59.8154120 120.0608004
  65.0240088  60.7595960 120.2176275  65.9284840  59.6324266 119.7667465
  68.8513537  56.4096897 124.3153941  68.0845933  55.8555384 124.4610623
  69.2624242  56.4818766 125.1768093  73.5333255  80.2651445 119.6301299
  72.6970568  80.6026132 119.9510574  73.3938025  80.1300425 118.6928436
  73.4071636  80.1098673 116.8299206  72.5301102  79.9887473 116.4661453
  73.8829389  79.3184751 116.5778095  71.1090104  81.0497675 120.3880861
  70.4159349  81.1242030 119.7320897  70.8641856  80.2858019 120.9102378
  76.1526945  81.0463060 116.6316316  75.2458400  80.7496172 116.7079030
  76.4302926  80.7492878 115.7650602  74.9225729  77.9049995 116.7728295
  75.7844893  78.2304893 117.0324113  75.1076073  77.1181491 116.2601361
  75.8755172  75.1446038 120.0608004  75.8633842  76.0887878 120.2176275
  76.7678594  74.9616183 119.7667465  47.0084358  25.1191405 105.8975768
  46.3346056  25.4223102 106.5060726  47.3950180  25.9220485 105.5481225
  49.0991828  16.9099618 104.4323208  48.4820998  16.1846446 104.3356261
  48.6308316  17.6708978 104.0890282  50.9741098  22.6976888 107.1715591
  51.6692003  23.3183581 107.3902906  51.3164248  21.8472240 107.4467969
  45.0655967  22.8038640 106.0790685  44.4929934  23.4228827 105.6261157
  45.6388760  23.3538002 106.6130607  48.2853227  23.0875790 107.2099267
  49.2183900  23.0221352 107.4132143  48.1976439  23.9232057 106.7513800
  50.9141243  22.4041661 104.1703215  50.8354875  22.0701524 105.0638973
  51.7350910  22.8963428 104.1694687  48.4845195  19.7209656 103.7913193
  49.1881045  19.9259658 104.4070849  47.7607844  20.2886418 104.0562277
  50.3931892  20.1592185 105.8411653  51.2277496  19.7273384 105.6589128
  50.2316235  19.9874199 106.7688548  59.0216168  30.6761836 115.9366830
  59.6594577  30.5568584 115.2330170  58.9037010  31.6242680 115.9954782
  55.8305874  30.6289264 115.8728355  55.4924385  30.5130329 114.9848889
  56.6995642  30.2280429 115.8529361  51.6892689  32.4824741 111.8625246
  51.1257555  32.3914678 111.0941533  51.5745085  31.6624645 112.3427738
  57.2692248  36.1495709 107.1739710  56.6180228  36.7349789 106.7873724
  58.0636611  36.6801903 107.2334748  51.1947875  33.2384846 107.5726845
  51.9678751  32.6913833 107.4339721  51.5473274  34.1029095 107.7841306
  53.5314153  29.3977512 105.2045295  53.7839674  28.8759033 104.4428758
  52.5938712  29.2343657 105.3071978  58.5757436  28.4013290 113.0120038
  59.3620525  27.9832713 112.6610455  58.8396140  29.3059382 113.1801686
  58.7467513  33.8386140 107.7108695  58.1113346  33.9120767 108.4229599
  58.4164920  34.4279739 107.0327774  63.9765863  28.3388523 113.9153016
  64.7091035  27.7687740 114.1490846  63.2205219  27.9510124 114.3559522
  53.2510442  31.3005618 107.4069670  53.1346700  30.6250521 108.0750754
  53.3612702  30.8137992 106.5901823  55.5941983  30.7615765 111.1116359
  55.2300190  30.2346386 111.8229280  56.4509099  30.3714234 110.9382844
  55.2347470  25.7905665 106.1077707  55.4021872  26.6585901 106.4748178
  55.0444639  25.9532946 105.1838997  57.9922803  34.2522643 117.7743538
  57.6923526  35.1547682 117.6659345  57.6473863  33.9854827 118.6264691
  61.3919947  26.7705184 115.4540975  60.4836824  26.7020592 115.1599736
  61.3407543  27.2477129 116.2822801  55.2136691  28.2463322 107.0924374
  55.0936316  28.6920373 107.9309855  54.5189279  28.5948640 106.5337912
  52.9743583  41.0166964 110.7414505  52.8967612  41.9674789 110.8202986
  52.3705226  40.6712836 111.3989432  60.9121757  28.7184795 107.9204708
  61.8239613  28.9512182 107.7452406  60.4031404  29.3021839 107.3579787
  59.5191339  33.7010614 115.3118290  58.8900202  33.8656328 114.6094358
  59.1317001  34.1152223 116.0829254  63.3980571  34.6365052 112.6662654
  62.7131609  35.0163953 112.1159687  63.4824420  35.2460378 113.3994601
  55.0719301  33.4385022 112.5768375  55.5357647  33.7172725 111.7872997
  54.8076099  32.5368466 112.3941466  54.0088187  29.5608174 109.3857940
  54.7112230  30.0129218 109.8531866  53.6768816  28.9191993 110.0137833
  61.7677331  35.1596966 117.4380354  62.5894774  34.7577153 117.1563036
  61.7639733  35.0565200 118.3896470  69.8583324  31.5035714 113.7865326
  69.1047032  30.9343113 113.6309330  69.9930865  31.4698379 114.7335961
  55.2481952  36.3749117 109.4620045  55.1127627  37.2200652 109.8904893
  55.7891764  36.5768394 108.6985979  48.7011349  33.8924555 110.0347970
  49.2135870  34.6867805 110.1853535  49.3534062  33.1950845 109.9681572
  50.5106234  37.0090311 112.1170723  50.6872862  37.9308276 111.9291707
  51.3063067  36.6948730 112.5465103  51.6337549  38.5268485 118.1181066
  52.1844974  38.3985548 117.3458060  50.7949025  38.8263374 117.7675959
  46.6660266  32.2213209 110.8107541  47.5035488  32.6310217 110.5941249
  46.8438534  31.2812651 110.7807735  58.5624698  29.8888290 106.4991374
  58.0471321  30.6592894 106.7379761  58.2902006  29.2153426 107.1224435
  56.1471809  24.7337991 111.5576612  55.2913405  24.3444841 111.3782251
  56.5598761  24.8129951 110.6976398  63.5358972  32.6420644 108.4344547
  62.7588415  32.3031804 107.9899709  64.2150453  32.6473268 107.7599512
  58.3511001  27.7615382 108.3251155  58.0461137  28.0761531 109.1761298
  59.3041443  27.8396802 108.3678488  56.7957433  33.9205605 109.9744109
  56.2678795  33.1858365 109.6617346  56.2944936  34.6980281 109.7284077
  61.7750279  32.1154626 115.0911155  61.1173953  32.8053887 115.1791284
  62.5790678  32.5051058 115.4345142  60.5855738  30.4698998 113.1415097
  61.0987620  31.1028990 113.6436807  61.2356962  29.8700194 112.7758457
  51.8545748  26.6129732 106.3546606  51.0183060  26.9504419 106.6755880
  51.7150517  26.4778712 105.4173743  54.9410033  31.7385815 102.9779082
  54.0337095  31.5075069 103.1770231  55.4381065  30.9423435 103.1653064
  57.8478112  40.4483323 105.8975768  57.1739811  40.7515019 106.5060726
  58.2343934  41.2512403 105.5481225  57.8471616  29.3439870 110.5176118
  58.5943435  29.8561267 110.2083240  58.1163206  29.0223922 111.3780511
  56.1198267  31.8398410 107.5003072  55.2109486  31.5557443 107.5975542
  56.1493350  32.2597489 106.6406379  61.3517534  35.4505000 111.2694240
  60.8979861  34.6095910 111.3259430  60.7211501  36.0866398 111.6069020
  60.2950454  26.3796986 112.4994907  59.5573210  25.8674372 112.8305150
  60.5477227  25.9397367 111.6878184  59.7950473  37.2881496 112.2044058
  60.0873448  37.8486554 111.4856423  60.3049094  37.5810057 112.9597217
  54.6683161  29.4527031 113.6012867  54.7231770  28.5000867 113.5255344
  53.8574363  29.6086470 114.0854166  55.8174354  33.3807154 104.8391151
  55.3793784  32.6643013 104.3796788  56.5584795  33.6083269 104.2776242
  52.6075521  28.0704091 111.3603246  51.7943386  28.3698261 111.7668438
  53.1034515  27.6759779 112.0777729  54.7584098  38.0661848 113.2937511
  54.7160277  38.2922694 112.3646043  55.6746797  37.8325222 113.4423312
  63.9347469  31.6564351 110.8967469  63.7965368  31.8465947 109.9688658
  63.5783688  32.4183734 111.3535520  63.9616849  33.7240878 115.9078741
  64.3953355  33.6316167 116.7561795  64.6748430  33.6998378 115.2698757
  52.8749899  34.9424877 113.0899474  53.6690498  34.4475197 112.8882049
  52.1641592  34.4142740 112.7267179  57.6944744  37.3242972 117.4411841
  57.7481766  37.8933908 118.2089557  56.8259525  37.4944857 117.0765878
  49.1832663  29.0867958 109.1659226  48.2530251  29.0252414 109.3829189
  49.2790135  28.5643911 108.3695868  64.8232398  33.7664579 118.4411626
  65.0168288  34.6710389 118.6870901  64.7233017  33.3071998 119.2750211
  55.4521175  35.5153899 116.7697311  55.3132261  35.1472683 117.6423249
  54.6635771  36.0301538 116.5981269  56.0469327  40.6162995 108.1122847
  56.2221083  40.1451038 108.9268470  55.3602115  41.2428761 108.3404108
  57.0026390  34.8935501 114.1586149  56.6676223  34.8536271 115.0543798
  56.5030336  34.2280217 113.6856559  59.9385582  32.2391536 104.4323208
  59.3214753  31.5138364 104.3356261  59.4702071  33.0000896 104.0890282
  50.6130413  43.7652358 114.8862707  50.8527011  44.3970882 115.5641726
  49.7699609  43.4140398 115.1728067  51.7284128  26.4576960 103.5544512
  50.8513594  26.3365761 103.1906759  52.2041881  25.6663038 103.3023401
  55.1258274  39.5731480 117.2904211  55.0528446  40.3786452 117.8023516
  54.6835667  39.7723446 116.4652233  54.9148054  38.8103250 110.8007033
  54.1315576  39.3524930 110.8945258  55.6140799  39.3277230 111.2001274
  58.2244704  24.6197880 113.4441238  58.7213404  23.8667842 113.1242309
  57.4531686  24.6562196 112.8784448  66.0774462  30.3238245 115.0859530
  66.0664338  31.2062961 114.7153463  65.2091841  29.9709796 114.8914067
  57.5856958  39.4718314 119.4462370  58.2984930  40.1065779 119.3738272
  57.0946987  39.5682180 118.6302372  59.3074485  33.3769567 111.0179662
  58.3730764  33.4971029 110.8484366  59.4851153  32.4742034 110.7539672
  62.6947036  29.2186886 111.5529696  63.1607488  30.0514878 111.4789999
  63.1454537  28.7531868 112.2574954  60.7623267  35.5630708 108.5515848
  61.0383111  35.4487302 109.4609722  59.8927766  35.1648192 108.5128021
  57.3977331  39.8117058 112.1948662  57.5799726  38.9938714 112.6576414
  58.2210317  40.0284751 111.7573552  57.7319497  38.7385243 109.4563710
  58.2607263  38.2277698 108.8433872  57.9947716  38.4227774 110.3209243
  51.0875245  39.7900360 112.2161486  50.4185620  40.2746488 111.7325526
  50.9488114  40.0369581 113.1304865  55.2280513  41.8244104 118.8144144
  55.7798821  41.9875725 119.5793230  55.5686707  42.4148542 118.1424169
  46.4562822  28.0518815 108.9957418  46.7516263  27.1429494 108.9424472
  45.5550858  28.0306555 108.6738421  58.3648901  39.7726079 115.8007827
  58.2400040  38.9715819 115.2918772  59.0227992  40.2672273 115.3121797
  60.4283809  37.5735099 117.4287377  59.4814144  37.4540450 117.3565703
  60.7766582  36.6857597 117.5113638  48.1850663  25.7332913 109.1196743
  47.8563370  24.8530292 108.9371849  48.5390034  25.6780581 110.0073133
  57.4330242  37.3687816 113.6291729  57.2855205  36.4404523 113.8099299
  58.2583736  37.3907906 113.1448804  51.2992487  26.0205883 109.4872221
  51.6388559  26.5491804 108.7650829  51.7464607  26.3586289 110.2630788
  61.0364364  38.1916374 114.7156602  61.9610912  37.9859236 114.5781053
  60.8679667  37.9432775 115.6245943  53.2860634  24.5180504 107.6865514
  54.0068996  24.8961757 107.1829231  52.6625938  25.2369381 107.7900492
  57.4291757  25.2225653 108.6223846  57.6455371  26.1050291 108.3212674
  56.9485824  24.8311867 107.8929488  60.8259680  38.7102042 110.0718693
  60.9996558  38.1448464 109.3192546  61.3188572  39.5102937 109.8898183
  53.4324257  24.0528295 110.5163050  53.5540168  23.1244941 110.7153938
  53.1426299  24.0666981 109.6041366  66.6799071  31.4738465 111.6908993
  67.1230218  30.7245790 111.2928116  65.8025582  31.4648601 111.3082725
  61.8134853  38.0268806 107.1715591  62.5085757  38.6475499 107.3902906
  62.1558003  37.1764157 107.4467969  63.7126276  35.4768512 108.7002922
  64.2377600  35.8155784 107.9752242  63.6248628  34.5415527 108.5166057
  55.3966937  41.5440495 113.0598175  54.9571927  41.0516874 113.7531032
  56.1475054  41.0013463 112.8190251  47.8759276  37.7352036 113.0622803
  48.7017296  37.4355808 112.6821447  47.5253328  36.9659658 113.5112592
  52.8440809  37.0878504 115.1320477  52.2220818  36.4249209 114.8322705
  53.5145676  37.1139636 114.4494125  46.0767881  35.6538362 114.0211737
  45.2399789  35.2260537 113.8395738  46.0491526  35.8470806 114.9582528
  52.4054316  35.6382427 108.6078938  52.5542436  36.3217892 107.9545610
  53.2120759  35.6187517 109.1228393  65.0236254  35.3790823 121.5628870
  64.7321062  35.7420804 122.3992331  64.4108385  34.6657831 121.3842202
  66.2231936  32.9443703 114.0831440  67.0578828  33.3833507 114.2469001
  66.3591065  32.4682356 113.2639686  50.1606949  31.6647605 109.6140006
  49.9152991  30.7609935 109.8120217  50.3302863  31.6664755 108.6719484
  49.4302596  27.3975963 107.1126168  48.7371841  27.4720318 106.4566204
  49.1854348  26.6336306 107.6347685  55.9049721  38.1330558 106.0790685
  55.3323688  38.7520745 105.6261157  56.4782515  38.6829919 106.6130607
  59.1246981  38.4167708 107.2099267  60.0577654  38.3513270 107.4132143
  59.0370194  39.2523975 106.7513800  61.7534998  37.7333578 104.1703215
  61.6748629  37.3993442 105.0638973  62.5744665  38.2255346 104.1694687
  64.4513189  30.5995318 117.3779533  64.4189509  29.6611318 117.5639217
  65.0613813  30.6779354 116.6445358  56.2896520  29.4691371 103.4206737
  57.2355624  29.3397579 103.4895155  55.9110765  28.7306032 103.8976166
  70.2689739  31.6611324 116.5185570  70.9993127  31.3996613 117.0793274
  69.6596684  30.9240046 116.5587638  68.3505036  29.8019187 117.1160021
  67.6238199  29.6675152 116.5076513  67.9352323  30.1096016 117.9216739
  54.4739437  27.3941347 103.3561623  53.5670892  27.0974460 103.4324336
  54.7515418  27.0971165 102.4895909  56.0901503  21.9378237 109.5105864
  55.2802231  21.5925322 109.8861110  56.7785920  21.6285780 110.0993476
  53.2438222  24.2528282 103.4973602  54.1057386  24.5783180 103.7569419
  53.4288566  23.4659778 102.9846668  61.3970858  23.1256809 110.6408825
  60.8169527  23.7841613 110.2586877  61.1306791  22.3034153 110.2296242
  60.1795736  25.2856899 109.6965173  59.2921591  25.5706550 109.4785368
  60.5949725  25.1250662 108.8492450  63.5310272  25.3103420 113.4119512
  64.3070662  25.7999872 113.6844129  62.8058406  25.7361474 113.8691382
  65.9682831  26.0231039 114.4693453  66.5627322  25.7826775 113.7586761
  66.0409414  25.3038170 115.0966989  48.1879986  39.8664650 114.7836618
  48.0534454  39.1065051 114.2174616  47.7712049  40.5905550 114.3165407
  59.3238949  35.0501574 103.7913193  60.0274800  35.2551576 104.4070849
  58.6001598  35.6178336 104.0562277  60.1536760  30.8011435 109.9115463
  60.0971961  31.2579986 109.0723096  60.7065102  30.0402120 109.7338306
  63.9641566  26.5901167 110.7365583  63.7078500  26.1897802 111.5673790
  63.3394434  27.3044961 110.6115722  68.2753904  29.3297240 113.2436874
  67.7153462  29.3990429 114.0168436  67.6697407  29.1538225 112.5236370
  51.3449112  40.7633967 114.9955060  51.2281497  41.7079400 114.8933751
  50.5241559  40.4607529 115.3840860  61.2325647  35.4884103 105.8411653
  62.0671251  35.0565301 105.6589128  61.0709990  35.3166117 106.7688548
  60.8871539  31.9916216 107.2067992  60.8320343  31.8260488 106.2656437
  60.2617594  32.6992249 107.3630182  54.1967665  21.4924325 106.7853311
  54.1846334  22.4366165 106.9421582  55.0891086  21.3094471 106.4912772
  52.3703626  41.4162229 118.2110989  53.2730873  41.4485839 118.5277484
  52.1440997  40.4862680 118.2257325  54.1257229  40.1693216 114.8721067
  53.1752860  40.1695077 114.7585440  54.4289715  39.4225950 114.3557102
  69.8609922  46.0053754 115.9366830  70.4988332  45.8860501 115.2330170
  69.7430765  46.9534598 115.9954782  66.6699628  45.9581182 115.8728355
  66.3318140  45.8422247 114.9848889  67.5389396  45.5572347 115.8529361
  62.5286444  47.8116658 111.8625246  61.9651309  47.7206595 111.0941533
  62.4138839  46.9916563 112.3427738  67.1519411  47.1116034 121.8314560
  67.1408052  46.7168832 120.9595064  67.3140051  46.3782106 122.4248332
  60.0750876  49.3067850 114.7009466  60.8672168  48.9658675 114.2855765
  60.3147526  49.4162825 115.6211619  68.1086003  51.4787626 107.1739710
  67.4573982  52.0641707 106.7873724  68.9030365  52.0093821 107.2334748
  62.0341630  48.5676763 107.5726845  62.8072506  48.0205750 107.4339721
  62.3867029  49.4321013 107.7841306  63.8726672  49.8953146 120.7793744
  63.5816538  50.7998776 120.6640410  64.5083657  49.9369673 121.4937814
  64.7982879  47.2729994 117.3695104  65.3946452  47.0486017 116.6552067
  64.8557851  46.5314740 117.9720552  64.3707908  44.7269429 105.2045295
  64.6233428  44.2050951 104.4428758  63.4332467  44.5635575 105.3071978
  69.4151190  43.7305208 113.0120038  70.2014280  43.3124631 112.6610455
  69.6789895  44.6351300 113.1801686  69.5861268  49.1678058 107.7108695
  68.9507101  49.2412685 108.4229599  69.2558674  49.7571657 107.0327774
  74.8159618  43.6680441 113.9153016  75.5484790  43.0979658 114.1490846
  74.0598973  43.2802041 114.3559522  64.0904196  46.6297535 107.4069670
  63.9740455  45.9542439 108.0750754  64.2006456  46.1429909 106.5901823
  66.4335737  46.0907683 111.1116359  66.0693945  45.5638303 111.8229280
  67.2902853  45.7006152 110.9382844  72.3385038  37.3802015 118.3747625
  72.0068363  38.2497426 118.1508840  71.7430651  37.0638299 119.0541655
  66.0741224  41.1197582 106.1077707  66.2415627  41.9877819 106.4748178
  65.8838393  41.2824864 105.1838997  68.8316557  49.5814561 117.7743538
  68.5317281  50.4839600 117.6659345  68.4867617  49.3146744 118.6264691
  62.2829039  46.0328358 113.8080242  61.3579535  45.9004572 114.0157934
  62.5313452  46.8122577 114.3050185  72.2313701  42.0997101 115.4540975
  71.3230579  42.0312510 115.1599736  72.1801297  42.5769046 116.2822801
  66.0530445  43.5755240 107.0924374  65.9330070  44.0212290 107.9309855
  65.3583034  43.9240557 106.5337912  59.6437850  45.6761632 114.6424031
  59.7730231  45.9296110 115.5563443  58.9635301  46.2689340 114.3228686
  63.8137337  56.3458881 110.7414505  63.7361367  57.2966707 110.8202986
  63.2098981  56.0004754 111.3989432  66.3054567  43.5186747 123.3975872
  65.5287901  44.0780667 123.3878737  66.9445130  44.0043530 123.9190742
  74.0975348  40.3013540 117.2318849  73.4549728  40.5946073 116.5858644
  73.5930276  40.1866460 118.0372046  71.7515511  44.0476713 107.9204708
  72.6633367  44.2804100 107.7452406  71.2425158  44.6313757 107.3579787
  64.5600939  46.3272200 122.9593839  65.3015624  46.8657244 122.6828663
  63.8537925  46.9538489 123.1165391  70.0356279  48.4701341 121.5566001
  70.4439635  48.0283751 120.8120633  69.3133541  47.8953968 121.8100194
  66.3887349  43.4073947 118.9299558  67.2348544  43.8313361 119.0734207
  66.3285987  42.7507572 119.6238121  70.3585094  49.0302531 115.3118290
  69.7293956  49.1948245 114.6094358  69.9710756  49.4444141 116.0829254
  74.2374326  49.9656969 112.6662654  73.5525364  50.3455871 112.1159687
  74.3218175  50.5752296 113.3994601  69.5386794  41.0678316 120.5880731
  69.2947726  41.8220376 120.0515007  69.8146725  41.4463663 121.4227979
  71.4925257  47.6116928 119.2657997  71.7042152  48.2548688 118.5892378
  71.4455005  46.7779245 118.7979927  69.0951486  40.2234749 116.1694569
  68.2335965  40.5216002 116.4611307  69.1213921  40.4405148 115.2375602
  65.9113056  48.7676939 112.5768375  66.3751401  49.0464642 111.7872997
  65.6469854  47.8660384 112.3941466  62.8037137  48.3148421 115.5148138
  63.3738494  48.7435689 114.8765623  63.3945248  48.0331006 116.2132324
  64.8481942  44.8900092 109.3857940  65.5505985  45.3421135 109.8531866
  64.5162570  44.2483911 110.0137833  63.2962303  43.4811848 123.7609149
  62.6660964  44.1628129 123.9944546  63.1898391  43.3694930 122.8162288
  58.5907276  43.1483644 114.6875074  57.8006330  43.4041173 114.2115184
  59.0818523  43.9631982 114.7927114  72.6071085  50.4888884 117.4380354
  73.4288529  50.0869071 117.1563036  72.6033488  50.3857118 118.3896470
  60.5422021  43.5128224 111.6458550  59.7453184  43.6246918 112.1642046
  60.3147613  43.8514876 110.7799441  66.3727689  50.0372927 119.5941065
  66.4372121  50.4993334 120.4299237  65.6638612  49.4070292 119.7223375
  56.8744979  43.4014135 117.1190064  57.1253017  44.2861145 117.3847640
  57.4104527  43.2218736 116.3465156  80.6977078  46.8327632 113.7865326
  79.9440787  46.2635030 113.6309330  80.8324619  46.7990297 114.7335961
  66.0875706  51.7041034 109.4620045  65.9521381  52.5492570 109.8904893
  66.6285519  51.9060312 108.6985979  59.5405104  49.2216472 110.0347970
  60.0529624  50.0159723 110.1853535  60.1927816  48.5242763 109.9681572
  61.3499988  52.3382229 112.1170723  61.5266617  53.2600193 111.9291707
  62.1456822  52.0240648 112.5465103  65.4911007  39.1990493 123.7154657
  66.2320720  39.7997646 123.6359119  65.7228930  38.4568131 123.1572700
  60.6352345  44.3846861 121.9932887  60.5205860  43.4832118 122.2939986
  59.7796863  44.6310557 121.6417703  67.7144183  52.3264601 123.5920387
  67.2708037  51.5400979 123.2741292  68.3761396  52.5143751 122.9264278
  62.4731304  53.8560403 118.1181066  63.0238729  53.7277466 117.3458060
  61.6342780  54.1555292 117.7675959  69.8125421  52.6067401 121.6201789
  69.7943896  53.4276282 121.1282058  70.7345341  52.4821476 121.8451930
  66.2698475  50.1211530 122.4625297  66.8026812  49.3599819 122.2324605
  65.7412556  49.8285182 123.2049451  69.4368170  35.2271596 117.9918939
  69.0932439  36.1173238 117.9158049  69.8047132  35.0373254 117.1288524
  57.5054020  47.5505127 110.8107541  58.3429242  47.9602135 110.5941249
  57.6832288  46.6104569 110.7807735  69.4018452  45.2180207 106.4991374
  68.8865076  45.9884812 106.7379761  69.1295761  44.5445344 107.1224435
  66.9865564  40.0629908 111.5576612  66.1307160  39.6736759 111.3782251
  67.3992515  40.1421869 110.6976398  68.5164710  37.5976251 115.9568172
  68.0129506  37.5606387 115.1435977  68.8095317  38.5068994 116.0164829
  64.7607596  37.6814981 114.9634354  65.6260593  37.4857790 114.6040243
  64.8285105  37.4525333 115.8903710  74.3752727  47.9712562 108.4344547
  73.5982169  47.6323722 107.9899709  75.0544208  47.9765185 107.7599512
  69.1904756  43.0907300 108.3251155  68.8854891  43.4053449 109.1761298
  70.1435198  43.1688719 108.3678488  67.6351188  49.2497523 109.9744109
  67.1072549  48.5150282 109.6617346  67.1338690  50.0272199 109.7284077
  72.6144034  47.4446543 115.0911155  71.9567708  48.1345805 115.1791284
  73.4184433  47.8342975 115.4345142  62.3669915  39.9117189 112.3350720
  62.9413667  39.6892371 111.6023913  62.9540898  39.9805884 113.0879322
  71.4249492  45.7990916 113.1415097  71.9381374  46.4320908 113.6436807
  72.0750716  45.1992112 112.7758457  62.6939502  41.9421650 106.3546606
  61.8576814  42.2796337 106.6755880  62.5544272  41.8070630 105.4173743
  64.6692583  36.7858438 111.0625790  64.0156995  36.4707455 110.4382405
  64.6273057  36.1634178 111.7885613  65.7803788  47.0677733 102.9779082
  64.8730849  46.8366987 103.1770231  66.2774820  46.2715352 103.1653064
  68.6871867  55.7775240 105.8975768  68.0133565  56.0806937 106.5060726
  69.0737689  56.5804321 105.5481225  67.9030323  43.2740372 115.3873438
  66.9852885  43.4955319 115.2295126  68.3190467  43.3486682 114.5285145
  68.6865371  44.6731787 110.5176118  69.4337190  45.1853184 110.2083240
  68.9556961  44.3515840 111.3780511  66.9592021  47.1690328 107.5003072
  66.0503240  46.8849361 107.5975542  66.9887105  47.5889407 106.6406379
  72.1911289  50.7796917 111.2694240  71.7373616  49.9387827 111.3259430
  71.5605255  51.4158316 111.6069020  71.1344208  41.7088903 112.4994907
  70.3966965  41.1966290 112.8305150  71.3870982  41.2689285 111.6878184
  70.6344228  52.6173414 112.2044058  70.9267202  53.1778471 111.4856423
  71.1442848  52.9101975 112.9597217  71.2355835  34.4865155 113.0936676
  71.5414712  33.6262519 112.8062591  71.9608440  35.0782776 112.8935670
  57.5280192  44.8895842 111.4818274  57.3304591  44.2965203 110.7569341
  56.9726856  44.5848052 112.1994213  65.5076915  44.7818949 113.6012867
  65.5625525  43.8292785 113.5255344  64.6968117  44.9378388 114.0854166
  66.6568109  48.7099072 104.8391151  66.2187539  47.9934931 104.3796788
  67.3978550  48.9375186 104.2776242  63.4469275  43.3996008 111.3603246
  62.6337141  43.6990179 111.7668438  63.9428269  43.0051697 112.0777729
  65.5977853  53.3953765 113.2937511  65.5554032  53.6214612 112.3646043
  66.5140552  53.1617140 113.4423312  69.0443487  43.8637833 120.1918140
  69.3992874  44.0909306 121.0512606  69.6915618  44.1956210 119.5695395
  74.7741224  46.9856269 110.8967469  74.6359122  47.1757865 109.9688658
  74.4177443  47.7475651 111.3535520  62.9383350  40.9714364 116.9764481
  63.5782729  40.8303123 116.2787445  62.1060880  40.6848877 116.6003083
  74.8010603  49.0532796 115.9078741  75.2347110  48.9608085 116.7561795
  75.5142184  49.0290296 115.2698757  63.7143654  50.2716794 113.0899474
  64.5084252  49.7767114 112.8882049  63.0035346  49.7434657 112.7267179
  68.5338498  52.6534890 117.4411841  68.5875521  53.2225826 118.2089557
  67.6653280  52.8236775 117.0765878  60.0226417  44.4159876 109.1659226
  59.0924005  44.3544331 109.3829189  60.1183889  43.8935829 108.3695868
  59.9411966  40.9414689 111.7537468  60.2018784  41.8560022 111.6446629
  60.7629139  40.4739131 111.9034081  61.4136892  42.3552446 118.9236293
  62.0859945  42.1469808 118.2748941  60.5866678  42.1574532 118.4841525
  75.6626153  49.0956496 118.4411626  75.8562043  50.0002307 118.6870901
  75.5626771  48.6363915 119.2750211  67.3162464  38.9814387 120.9401953
  66.6690379  39.6804337 120.8466430  68.0863479  39.4150531 121.3078202
  70.7241262  49.2463239 124.0152507  70.5726768  49.0173791 123.0982590
  70.7145941  50.2033840 124.0283852  67.4926598  46.8195152 118.9998773
  68.4218658  46.9706311 118.8267740  67.0717628  46.9079173 118.1447420
  66.2914930  50.8445816 116.7697311  66.1526015  50.4764601 117.6423249
  65.5029526  51.3593456 116.5981269  66.8863082  55.9454913 108.1122847
  67.0614837  55.4742956 108.9268470  66.1995870  56.5720679 108.3404108
  67.8420145  50.2227419 114.1586149  67.5069978  50.1828189 115.0543798
  67.3424091  49.5572135 113.6856559  61.8164389  45.6295049 119.6838730
  61.6784187  44.8975288 120.2850269  62.7269312  45.5403949 119.4022917
  70.7779337  47.5683453 104.4323208  70.1608507  46.8430281 104.3356261
  70.3095825  48.3292814 104.0890282  64.4446690  45.3415008 119.1722409
  65.1546308  44.7008200 119.1309028  64.4015998  45.5927903 120.0948590
  72.4333468  52.2782362 122.0928989  72.3746014  51.5941582 121.4259572
  72.8352987  53.0201352 121.6409615  63.1575624  42.3280226 120.9918049
  62.6212981  41.8770965 121.6439645  62.5692332  42.4626135 120.2488513
  61.4524167  59.0944275 114.8862707  61.6920765  59.7262800 115.5641726
  60.6093363  58.7432315 115.1728067  62.5677882  41.7868878 103.5544512
  61.6907349  41.6657678 103.1906759  63.0435636  40.9954956 103.3023401
  72.4350875  50.2421946 120.3242968  71.5477654  49.9047867 120.4469367
  73.0049427  49.5104977 120.5611734  54.0880023  46.5746037 113.6486020
  54.7751062  46.2607767 113.0607035  53.9328151  47.4787402 113.3753271
  58.8914745  41.4636234 118.0771043  58.8072933  40.8561903 117.3421453
  58.0697451  41.9545252 118.0780540  65.9652029  54.9023398 117.2904211
  65.8922200  55.7078369 117.8023516  65.5229422  55.1015364 116.4652233
  65.7541808  54.1395168 110.8007033  64.9709330  54.6816848 110.8945258
  66.4534554  54.6569148 111.2001274  69.0638459  39.9489797 113.4441238
  69.5607158  39.1959760 113.1242309  68.2925440  39.9854114 112.8784448
  76.9168216  45.6530163 115.0859530  76.9058092  46.5354878 114.7153463
  76.0485595  45.3001714 114.8914067  68.4250712  54.8010232 119.4462370
  69.1378685  55.4357697 119.3738272  67.9340741  54.8974098 118.6302372
  70.1468239  48.7061485 111.0179662  69.2124518  48.8262947 110.8484366
  70.3244908  47.8033951 110.7539672  65.6473427  42.0907180 113.1712923
  65.2771215  41.5378221 113.8593829  66.1432520  41.4865314 112.6187923
  73.5340791  44.5478804 111.5529696  74.0001243  45.3806795 111.4789999
  73.9848291  44.0823785 112.2574954  63.4762626  52.5504675 120.2667941
  64.1772085  53.1841158 120.4197335  63.0057741  52.8919407 119.5063580
  71.6017022  50.8922625 108.5515848  71.8776866  50.7779220 109.4609722
  70.7321520  50.4940110 108.5128021  71.5057453  36.9159391 115.5920597
  70.5920533  37.1463618 115.7602804  71.9350555  36.9997835 116.4434630
  71.2763912  45.1049283 118.0920491  70.6235362  45.3525190 117.4372944
  71.6544292  44.2913421 117.7582969  68.2371086  55.1408976 112.1948662
  68.4193480  54.3230632 112.6576414  69.0604072  55.3576668 111.7573552
  68.5713251  54.0677161 109.4563710  69.1001018  53.5569616 108.8433872
  68.8341471  53.7519691 110.3209243  67.3251485  45.8469094 124.5786528
  66.6492122  45.7463223 125.2488904  68.1479119  45.6908308 125.0422526
  59.0730344  52.0841030 117.1999044  59.6583781  51.3384718 117.3326948
  58.8755182  52.3944987 118.0835708  61.9268999  55.1192278 112.2161486
  61.2579374  55.6038405 111.7325526  61.7881869  55.3661498 113.1304865
  53.6647999  44.6546631 115.9203487  53.7032098  44.1210221 116.7140605
  53.1588292  44.1281836 115.3014464  66.0674268  57.1536021 118.8144144
  66.6192576  57.3167643 119.5793230  66.4080461  57.7440459 118.1424169
  61.0438761  39.5011171 119.4166029  61.1080088  40.3626002 119.0043427
  60.9805881  38.8885173 118.6838388  60.5191034  41.5734304 123.0639063
  61.1463072  41.1911381 123.6776588  59.6618952  41.3548506 123.4294756
  70.9185142  51.9797279 124.6692799  71.4625046  52.5927237 124.1747754
  70.3371987  52.5376857 125.1859812  57.2956576  43.3810733 108.9957418
  57.5910017  42.4721411 108.9424472  56.3944612  43.3598472 108.6738421
  69.2042655  55.1017997 115.8007827  69.0793795  54.3007737 115.2918772
  69.8621746  55.5964190 115.3121797  60.8250823  41.4566729 114.9784967
  60.1037409  42.0702697 114.8392440  61.6144079  41.9924494 114.9001613
  71.2677563  52.9027017 117.4287377  70.3207899  52.7832368 117.3565703
  71.6160337  52.0149515 117.5113638  63.6277137  38.7921156 121.2525619
  64.1511539  39.0383452 122.0151928  63.4089470  39.6241191 120.8328756
  59.0244418  41.0624830 109.1196743  58.6957124  40.1822209 108.9371849
  59.3783789  41.0072499 110.0073133  68.2723997  52.6979733 113.6291729
  68.1248959  51.7696441 113.8099299  69.0977490  52.7199824 113.1448804
  62.1386241  41.3497800 109.4872221  62.4782314  41.8783722 108.7650829
  62.5858362  41.6878206 110.2630788  71.8758119  53.5208292 114.7156602
  72.8004666  53.3151153 114.5781053  71.7073422  53.2724693 115.6245943
  64.8329682  39.7334851 118.9375289  64.4926502  38.9342664 119.3395969
  64.1268688  40.0336562 118.3652122  65.4846154  36.8184163 117.3902612
  66.3072223  36.3444642 117.2681502  65.7284217  37.5974647 117.8901298
  64.1254388  39.8472422 107.6865514  64.8462751  40.2253675 107.1829231
  63.5019692  40.5661299 107.7900492  68.2685511  40.5517571 108.6223846
  68.4849125  41.4342209 108.3212674  67.7879578  40.1603784 107.8929488
  63.0084732  43.5103284 115.1994591  62.8629313  43.8243587 116.0918872
  62.5309936  44.1288184 114.6465489  64.8681115  40.5005832 115.2475480
  64.8542684  39.6046925 114.9107778  65.5853543  40.5076496 115.8813766
  66.7207246  40.9343172 117.2928608  66.4625024  41.8560243 117.2912938
  66.1892286  40.5373607 117.9829072  71.6653435  54.0393959 110.0718693
  71.8390312  53.4740382 109.3192546  72.1582326  54.8394854 109.8898183
  57.4830395  46.0508628 118.1382252  56.9383863  46.8268436 118.2702526
  58.3609744  46.3979433 117.9801373  64.2718011  39.3820212 110.5163050
  64.3933922  38.4536859 110.7153938  63.9820054  39.3958898 109.6041366
  67.1409202  37.0675123 113.6529770  67.1630898  37.1314456 112.6981750
  67.5577261  36.2279631 113.8470276  77.5192826  46.8030382 111.6908993
  77.9623972  46.0537708 111.2928116  76.6419336  46.7940519 111.3082725
  72.6528607  53.3560724 107.1715591  73.3479512  53.9767416 107.3902906
  72.9951757  52.5056075 107.4467969  58.2696416  45.1778525 121.0312409
  57.5278153  45.3261160 121.6177039  57.9489161  45.4386790 120.1679158
  74.5520030  50.8060429 108.7002922  75.0771355  51.1447702 107.9752242
  74.4642383  49.8707445 108.5166057  66.2140079  54.7194503 120.8292799
  66.5227206  54.4743650 121.7015498  67.0115561  54.9241141 120.3411669
  66.2360691  56.8732413 113.0598175  65.7965681  56.3808791 113.7531032
  66.9868808  56.3305380 112.8190251  58.7153030  53.0643953 113.0622803
  59.5411050  52.7647725 112.6821447  58.3647082  52.2951576 113.5112592
  63.6834563  52.4170422 115.1320477  63.0614573  51.7541127 114.8322705
  64.3539430  52.4431554 114.4494125  56.9161635  50.9830280 114.0211737
  56.0793544  50.5552454 113.8395738  56.8885281  51.1762723 114.9582528
  63.7559091  40.8952210 124.7252983  63.8047246  41.7714332 124.3430753
  64.2981605  40.3529603 124.1524626  74.2413936  51.4393333 124.0054120
  73.4509480  51.4217472 123.4658619  74.0047291  51.9781627 124.7603157
  74.3611812  48.2885799 121.3186849  74.4109816  48.1235807 122.2602371
  74.2525735  47.4213058 120.9284729  63.2448070  50.9674345 108.6078938
  63.3936191  51.6509809 107.9545610  64.0514514  50.9479435 109.1228393
  71.6515574  44.2716727 122.6346155  72.5525437  44.1323192 122.3430153
  71.7263548  44.4371182 123.5744333  65.9858379  41.6483582 121.4799342
  65.1161689  41.9417148 121.2081930  66.2217860  42.2324027 122.2006605
  75.8630008  50.7082741 121.5628870  75.5714817  51.0712721 122.3992331
  75.2502140  49.9949749 121.3842202  77.0625691  48.2735621 114.0831440
  77.8972582  48.7125425 114.2469001  77.1984819  47.7974274 113.2639686
  74.1117197  45.8315355 120.0308928  74.5871318  46.0243002 119.2227780
  73.1882762  45.8874541 119.7852312  61.0000703  46.9939523 109.6140006
  60.7546745  46.0901853 109.8120217  61.1696618  46.9956673 108.6719484
  68.6897413  37.8663199 118.9964762  69.2079357  38.6024226 118.6711251
  68.3352546  38.1727192 119.8311521  60.2696351  42.7267880 107.1126168
  59.5765596  42.8012235 106.4566204  60.0248103  41.9628224 107.6347685
  68.9410007  34.2863482 114.5165659  69.2211761  33.6186671 115.1426085
  69.7260614  34.4792577 114.0040322  66.7443476  53.4622475 106.0790685
  66.1717443  54.0812663 105.6261157  67.3176269  54.0121837 106.6130607
  72.8118866  42.7081116 118.2637234  73.7636288  42.8079213 118.2849458
  72.6422316  41.9159384 118.7735318  70.8333245  39.7936699 118.4496635
  70.2383177  40.0741711 117.7543123  70.5482942  40.2830600 119.2213376
  69.9640736  53.7459626 107.2099267  70.8971409  53.6805187 107.4132143
  69.8763948  54.5815892 106.7513800  72.5928752  53.0625496 104.1703215
  72.5142384  52.7285360 105.0638973  73.4138419  53.5547264 104.1694687
  75.2906943  45.9287235 117.3779533  75.2583263  44.9903236 117.5639217
  75.9007567  46.0071272 116.6445358  67.1290274  44.7983288 103.4206737
  68.0749379  44.6689496 103.4895155  66.7504519  44.0597950 103.8976166
  75.4401432  42.7198279 117.4237817  74.9240481  41.9356735 117.2367745
  76.3241380  42.3916995 117.5884336  73.1012159  36.4639294 113.3833629
  72.9036980  36.1554382 114.2676961  73.7111864  37.1900933 113.5131559
  81.1083493  46.9903242 116.5185570  81.8386882  46.7288530 117.0793274
  80.4990439  46.2531964 116.5587638  79.1898790  45.1311105 117.1160021
  78.4631954  44.9967070 116.5076513  78.7746077  45.4387933 117.9216739
  67.0128967  48.8501034 124.8807394  67.9331976  49.0279633 125.0747441
  66.9778550  47.9057080 124.7287094  65.3133191  42.7233265 103.3561623
  64.4064647  42.4266377 103.4324336  65.5909172  42.4263083 102.4895909
  56.2311132  44.0439628 113.8060669  55.9113916  43.1904936 113.5135043
  55.6844560  44.2588206 114.5618636  60.0091039  46.7602069 117.5230176
  60.2277049  47.6919177 117.5418209  60.4216813  46.4010043 118.3084979
  66.9295257  37.2670154 109.5105864  66.1195985  36.9217239 109.8861110
  67.6179674  36.9577698 110.0993476  68.8585805  36.3448201 111.1330161
  69.4116844  36.7643655 111.7920184  69.0955892  35.4183949 111.1753117
  64.0831976  39.5820200 103.4973602  64.9451140  39.9075098 103.7569419
  64.2682320  38.7951696 102.9846668  56.0999392  47.6642539 115.7753791
  55.4062863  47.2496492 115.2623745  56.8472383  47.7063076 115.1787210
  72.2364612  38.4548726 110.6408825  71.6563282  39.1133530 110.2586877
  71.9700545  37.6326071 110.2296242  70.6868179  37.8553784 112.8430145
  71.1867957  37.9670319 112.0344464  71.3303787  37.5514837 113.4830954
  64.7450175  45.7632414 125.7297986  64.2617256  46.5632774 125.9361875
  64.8311114  45.7740358 124.7765430  58.0136134  47.5960793 113.6519806
  57.9906822  47.6948481 112.7001689  58.3236771  48.4425944 113.9736972
  60.6723512  49.6536948 117.7666420  61.6266766  49.6220891 117.6996351
  60.4736036  49.1927572 118.5816646  61.2622894  48.2238064 120.3337218
  62.0815783  48.7182143 120.3572055  61.5359702  47.3070032 120.3054785
  71.0189491  40.6148817 109.6965173  70.1315346  40.8998467 109.4785368
  71.4343480  40.4542580 108.8492450  74.3704027  40.6395338 113.4119512
  75.1464417  41.1291790 113.6844129  73.6452161  41.0653392 113.8691382
  76.8076585  41.3522957 114.4693453  77.4021076  41.1118693 113.7586761
  76.8803169  40.6330087 115.0966989  59.0273741  55.1956568 114.7836618
  58.8928209  54.4356969 114.2174616  58.6105803  55.9197468 114.3165407
  70.1632704  50.3793491 103.7913193  70.8668554  50.5843494 104.4070849
  69.4395353  50.9470253 104.0562277  70.9930514  46.1303353 109.9115463
  70.9365716  46.5871904 109.0723096  71.5458857  45.3694037 109.7338306
  74.8035320  41.9193084 110.7365583  74.5472254  41.5189720 111.5673790
  74.1788188  42.6336878 110.6115722  79.1147658  44.6589158 113.2436874
  78.5547216  44.7282347 114.0168436  78.5091161  44.4830142 112.5236370
  62.1842867  56.0925885 114.9955060  62.0675251  57.0371317 114.8933751
  61.3635313  55.7899446 115.3840860  72.0719401  50.8176021 105.8411653
  72.9065005  50.3857219 105.6589128  71.9103744  50.6458034 106.7688548
  71.7265294  47.3208134 107.2067992  71.6714097  47.1552405 106.2656437
  71.1011349  48.0284167 107.3630182  56.5157809  42.5576198 121.0329415
  57.1616672  42.0475152 121.5216640  56.3074960  43.2944880 121.6072840
  69.0411201  49.6257046 126.5321555  69.9102360  49.7997698 126.1708190
  68.5617952  50.4451463 126.4097285  65.0361419  36.8216243 106.7853311
  65.0240089  37.7658083 106.9421582  65.9284841  36.6386388 106.4912772
  63.2097381  56.7454147 118.2110989  64.1124628  56.7777757 118.5277484
  62.9834751  55.8154598 118.2257325  64.9650983  55.4985133 114.8721067
  64.0146614  55.4986995 114.7585440  65.2683469  54.7517868 114.3557102
  68.8513538  33.4159019 111.0399248  68.0845934  32.8617506 111.1855930
  69.2624243  33.4880888 111.9013399  80.7003676  61.3345672 115.9366830
  81.3382086  61.2152419 115.2330170  80.5824519  62.2826516 115.9954782
  77.5093383  61.2873100 115.8728355  77.1711894  61.1714164 114.9848889
  78.3783151  60.8864265 115.8529361  73.3680198  63.1408576 111.8625246
  72.8045064  63.0498513 111.0941533  73.2532594  62.3208481 112.3427738
  77.9913166  62.4407951 121.8314560  77.9801807  62.0460750 120.9595064
  78.1533805  61.7074024 122.4248332  70.9144630  64.6359768 114.7009466
  71.7065922  64.2950592 114.2855765  71.1541281  64.7454743 115.6211619
  78.9479757  66.8079544 107.1739710  78.2967737  67.3933624 106.7873724
  79.7424120  67.3385739 107.2334748  72.8735384  63.8968681 107.5726845
  73.6466260  63.3497668 107.4339721  73.2260783  64.7612930 107.7841306
  74.7120427  65.2245063 120.7793744  74.4210293  66.1290694 120.6640410
  75.3477411  65.2661591 121.4937814  75.6376634  62.6021912 117.3695104
  76.2340206  62.3777934 116.6552067  75.6951605  61.8606657 117.9720552
  75.2101662  60.0561347 105.2045295  75.4627183  59.5342868 104.4428758
  74.2726221  59.8927493 105.3071978  80.2544945  59.0597125 113.0120038
  81.0408034  58.6416549 112.6610455  80.5183649  59.9643218 113.1801686
  80.4255022  64.4969976 107.7108695  79.7900855  64.5704602 108.4229599
  80.0952429  65.0863575 107.0327774  85.6553372  58.9972359 113.9153016
  86.3878544  58.4271576 114.1490846  84.8992728  58.6093959 114.3559522
  74.9297951  61.9589453 107.4069670  74.8134209  61.2834356 108.0750754
  75.0400211  61.4721827 106.5901823  77.2729492  61.4199600 111.1116359
  76.9087699  60.8930221 111.8229280  78.1296608  61.0298069 110.9382844
  83.1778792  52.7093933 118.3747625  82.8462117  53.5789344 118.1508840
  82.5824406  52.3930217 119.0541655  76.9134979  56.4489500 106.1077707
  77.0809381  57.3169736 106.4748178  76.7232148  56.6116782 105.1838997
  79.6710312  64.9106479 117.7743538  79.3711035  65.8131518 117.6659345
  79.3261372  64.6438662 118.6264691  73.1222793  61.3620276 113.8080242
  72.1973290  61.2296490 114.0157934  73.3707207  62.1414495 114.3050185
  83.0707456  57.4289019 115.4540975  82.1624333  57.3604427 115.1599736
  83.0195052  57.9060964 116.2822801  76.8924200  58.9047157 107.0924374
  76.7723825  59.3504208 107.9309855  76.1976788  59.2532475 106.5337912
  70.4831605  61.0053549 114.6424031  70.6123986  61.2588028 115.5563443
  69.8029056  61.5981257 114.3228686  74.6531092  71.6750799 110.7414505
  74.5755121  72.6258624 110.8202986  74.0492735  71.3296672 111.3989432
  77.1448322  58.8478665 123.3975872  76.3681656  59.4072585 123.3878737
  77.7838885  59.3335448 123.9190742  84.9369102  55.6305457 117.2318849
  84.2943482  55.9237991 116.5858644  84.4324031  55.5158378 118.0372046
  82.5909266  59.3768631 107.9204708  83.5027122  59.6096017 107.7452406
  82.0818913  59.9605675 107.3579787  75.3994694  61.6564118 122.9593839
  76.1409378  62.1949162 122.6828663  74.6931679  62.2830407 123.1165391
  80.8750033  63.7993258 121.5566001  81.2833390  63.3575669 120.8120633
  80.1527295  63.2245886 121.8100194  77.2281104  58.7365865 118.9299558
  78.0742299  59.1605279 119.0734207  77.1679741  58.0799489 119.6238121
  81.1978848  64.3594449 115.3118290  80.5687711  64.5240163 114.6094358
  80.8104510  64.7736059 116.0829254  85.0768080  65.2948887 112.6662654
  84.3919118  65.6747788 112.1159687  85.1611929  65.9044214 113.3994601
  80.3780549  56.3970234 120.5880731  80.1341481  57.1512294 120.0515007
  80.6540479  56.7755581 121.4227979  82.3319012  62.9408846 119.2657997
  82.5435907  63.5840606 118.5892378  82.2848760  62.1071162 118.7979927
  79.9345241  55.5526667 116.1694569  79.0729720  55.8507920 116.4611307
  79.9607675  55.7697065 115.2375602  76.7506810  64.0968857 112.5768375
  77.2145156  64.3756560 111.7872997  76.4863608  63.1952302 112.3941466
  73.6430891  63.6440339 115.5148138  74.2132248  64.0727607 114.8765623
  74.2339003  63.3622923 116.2132324  75.6875696  60.2192009 109.3857940
  76.3899739  60.6713053 109.8531866  75.3556325  59.5775828 110.0137833
  74.1356058  58.8103766 123.7609149  73.5054718  59.4920047 123.9944546
  74.0292145  58.6986848 122.8162288  69.4301030  58.4775562 114.6875074
  68.6400084  58.7333091 114.2115184  69.9212277  59.2923900 114.7927114
  83.4464840  65.8180801 117.4380354  84.2682283  65.4160989 117.1563036
  83.4427242  65.7149035 118.3896470  71.3815775  58.8420141 111.6458550
  70.5846939  58.9538836 112.1642046  71.1541368  59.1806794 110.7799441
  77.2121443  65.3664845 119.5941065  77.2765876  65.8285252 120.4299237
  76.5032367  64.7362210 119.7223375  67.7138733  58.7306053 117.1190064
  67.9646771  59.6153062 117.3847640  68.2498281  58.5510654 116.3465156
  91.5370833  62.1619550 113.7865326  90.7834541  61.5926948 113.6309330
  91.6718374  62.1282214 114.7335961  76.9269461  67.0332952 109.4620045
  76.7915135  67.8784488 109.8904893  77.4679273  67.2352230 108.6985979
  73.4136800  53.1124532 126.1234400  73.0203746  52.5590731 126.7982045
  74.2302941  53.4235110 126.5140918  70.3798858  64.5508390 110.0347970
  70.8923379  65.3451640 110.1853535  71.0321571  63.8534681 109.9681572
  72.1893743  67.6674146 112.1170723  72.3660371  68.5892111 111.9291707
  72.9850576  67.3532566 112.5465103  76.3304761  54.5282411 123.7154657
  77.0714475  55.1289564 123.6359119  76.5622684  53.7860049 123.1572700
  71.4746099  59.7138778 121.9932887  71.3599614  58.8124036 122.2939986
  70.6190617  59.9602475 121.6417703  78.5537937  67.6556519 123.5920387
  78.1101791  66.8692897 123.2741292  79.2155151  67.8435669 122.9264278
  73.3125058  69.1852320 118.1181066  73.8632483  69.0569384 117.3458060
  72.4736534  69.4847209 117.7675959  80.6519175  67.9359319 121.6201789
  80.6337650  68.7568200 121.1282058  81.5739095  67.8113394 121.8451930
  77.1092229  65.4503448 122.4625297  77.6420566  64.6891736 122.2324605
  76.5806310  65.1577100 123.2049451  80.2761924  50.5563514 117.9918939
  79.9326194  51.4465156 117.9158049  80.6440887  50.3665172 117.1288524
  68.3447775  62.8797044 110.8107541  69.1822997  63.2894053 110.5941249
  68.5226043  61.9396487 110.7807735  80.2412207  60.5472125 106.4991374
  79.7258830  61.3176730 106.7379761  79.9689515  59.8737261 107.1224435
  77.8259318  55.3921826 111.5576612  76.9700914  55.0028676 111.3782251
  78.2386270  55.4713787 110.6976398  79.3558465  52.9268169 115.9568172
  78.8523260  52.8898304 115.1435977  79.6489072  53.8360912 116.0164829
  75.6001351  53.0106899 114.9634354  76.4654347  52.8149708 114.6040243
  75.6678859  52.7817251 115.8903710  85.2146481  63.3004480 108.4344547
  84.4375924  62.9615639 107.9899709  85.8937962  63.3057103 107.7599512
  80.0298510  58.4199217 108.3251155  79.7248646  58.7345366 109.1761298
  80.9828952  58.4980637 108.3678488  78.4744942  64.5789441 109.9744109
  77.9466304  63.8442200 109.6617346  77.9732445  65.3564117 109.7284077
  83.4537788  62.7738461 115.0911155  82.7961462  63.4637722 115.1791284
  84.2578187  63.1634893 115.4345142  73.2063670  55.2409107 112.3350720
  73.7807422  55.0184288 111.6023913  73.7934652  55.3097801 113.0879322
  82.2643247  61.1282834 113.1415097  82.7775129  61.7612826 113.6436807
  82.9144471  60.5284029 112.7758457  73.5333257  57.2713568 106.3546606
  72.6970569  57.6088254 106.6755880  73.3938026  57.1362548 105.4173743
  75.5086337  52.1150356 111.0625790  74.8550750  51.7999373 110.4382405
  75.4666811  51.4926096 111.7885613  76.6197542  62.3969651 102.9779082
  75.7124604  62.1658904 103.1770231  77.1168574  61.6007270 103.1653064
  79.5265621  71.1067158 105.8975768  78.8527320  71.4098855 106.5060726
  79.9131443  71.9096238 105.5481225  78.7424078  58.6032289 115.3873438
  77.8246639  58.8247236 115.2295126  79.1584221  58.6778600 114.5285145
  79.5259125  60.0023705 110.5176118  80.2730944  60.5145102 110.2083240
  79.7950715  59.6807758 111.3780511  77.7985776  62.4982246 107.5003072
  76.8896995  62.2141278 107.5975542  77.8280859  62.9181324 106.6406379
  83.0305043  66.1088835 111.2694240  82.5767370  65.2679745 111.3259430
  82.3999010  66.7450233 111.6069020  81.9737963  57.0380821 112.4994907
  81.2360719  56.5258207 112.8305150  82.2264736  56.5981203 111.6878184
  81.4737982  67.9465332 112.2044058  81.7660957  68.5070389 111.4856423
  81.9836603  68.2393893 112.9597217  82.0749590  49.8157073 113.0936676
  82.3808467  48.9554437 112.8062591  82.8002195  50.4074693 112.8935670
  68.3673946  60.2187760 111.4818274  68.1698346  59.6257120 110.7569341
  67.8120610  59.9139970 112.1994213  76.3470670  60.1110866 113.6012867
  76.4019279  59.1584703 113.5255344  75.5361872  60.2670305 114.0854166
  77.4961863  64.0390989 104.8391151  77.0581293  63.3226848 104.3796788
  78.2372304  64.2667104 104.2776242  74.2863030  58.7287926 111.3603246
  73.4730895  59.0282097 111.7668438  74.7822024  58.3343615 112.0777729
  76.4371607  68.7245683 113.2937511  76.3947786  68.9506529 112.3646043
  77.3534306  68.4909057 113.4423312  79.8837241  59.1929750 120.1918140
  80.2386629  59.4201224 121.0512606  80.5309372  59.5248127 119.5695395
  85.6134978  62.3148186 110.8967469  85.4752877  62.5049782 109.9688658
  85.2571197  63.0767569 111.3535520  73.7777104  56.3006281 116.9764481
  74.4176484  56.1595041 116.2787445  72.9454635  56.0140795 116.6003083
  85.6404358  64.3824713 115.9078741  86.0740864  64.2900002 116.7561795
  86.3535939  64.3582214 115.2698757  74.5537408  65.6008712 113.0899474
  75.3478007  65.1059032 112.8882049  73.8429101  65.0726575 112.7267179
  79.3732253  67.9826807 117.4411841  79.4269275  68.5517744 118.2089557
  78.5047034  68.1528692 117.0765878  70.8620172  59.7451794 109.1659226
  69.9317760  59.6836249 109.3829189  70.9577644  59.2227746 108.3695868
  70.7805721  56.2706606 111.7537468  71.0412538  57.1851940 111.6446629
  71.6022893  55.8031049 111.9034081  72.2530646  57.6844364 118.9236293
  72.9253700  57.4761726 118.2748941  71.4260433  57.4866450 118.4841525
  86.5019907  64.4248414 118.4411626  86.6955797  65.3294224 118.6870901
  86.4020526  63.9655833 119.2750211  78.1556218  54.3106305 120.9401953
  77.5084133  55.0096254 120.8466430  78.9257234  54.7442448 121.3078202
  81.5635016  64.5755157 124.0152507  81.4120522  64.3465708 123.0982590
  81.5539696  65.5325758 124.0283852  78.3320352  62.1487069 118.9998773
  79.2612412  62.2998229 118.8267740  77.9111382  62.2371090 118.1447420
  77.1308684  66.1737734 116.7697311  76.9919770  65.8056518 117.6423249
  76.3423280  66.6885373 116.5981269  77.7256836  71.2746830 108.1122847
  77.9008592  70.8034874 108.9268470  77.0389624  71.9012597 108.3404108
  78.6813899  65.5519337 114.1586149  78.3463732  65.5120107 115.0543798
  78.1817845  64.8864053 113.6856559  72.6558143  60.9586967 119.6838730
  72.5177941  60.2267205 120.2850269  73.5663067  60.8695867 119.4022917
  81.6173091  62.8975371 104.4323208  81.0002262  62.1722199 104.3356261
  81.1489580  63.6584731 104.0890282  75.2840444  60.6706926 119.1722409
  75.9940063  60.0300118 119.1309028  75.2409752  60.9219821 120.0948590
  83.2727223  67.6074279 122.0928989  83.2139769  66.9233499 121.4259572
  83.6746741  68.3493269 121.6409615  73.9969378  57.6572144 120.9918049
  73.4606735  57.2062882 121.6439645  73.4086086  57.7918053 120.2488513
  72.2917921  74.4236193 114.8862707  72.5314520  75.0554717 115.5641726
  71.4487118  74.0724233 115.1728067  73.4071637  57.1160795 103.5544512
  72.5301103  56.9949596 103.1906759  73.8829390  56.3246874 103.3023401
  83.2744630  65.5713863 120.3242968  82.3871409  65.2339785 120.4469367
  83.8443181  64.8396894 120.5611734  64.9273777  61.9037955 113.6486020
  65.6144817  61.5899685 113.0607035  64.7721906  62.8079320 113.3753271
  69.7308499  56.7928152 118.0771043  69.6466688  56.1853821 117.3421453
  68.9091206  57.2837170 118.0780540  76.8045783  70.2315316 117.2904211
  76.7315955  71.0370287 117.8023516  76.3623176  70.4307281 116.4652233
  76.5935563  69.4687086 110.8007033  75.8103085  70.0108766 110.8945258
  77.2928308  69.9861065 111.2001274  79.9032213  55.2781715 113.4441238
  80.4000913  54.5251677 113.1242309  79.1319195  55.3146032 112.8784448
  87.7561971  60.9822081 115.0859530  87.7451847  61.8646796 114.7153463
  86.8879350  60.6293631 114.8914067  79.2644467  70.1302150 119.4462370
  79.9772439  70.7649614 119.3738272  78.7734496  70.2266016 118.6302372
  80.9861994  64.0353402 111.0179662  80.0518273  64.1554865 110.8484366
  81.1638662  63.1325869 110.7539672  76.4867182  57.4199098 113.1712923
  76.1164969  56.8670138 113.8593829  76.9826274  56.8157232 112.6187923
  84.3734545  59.8770722 111.5529696  84.8394997  60.7098713 111.4789999
  84.8242046  59.4115703 112.2574954  74.3156380  67.8796593 120.2667941
  75.0165840  68.5133076 120.4197335  73.8451495  68.2211325 119.5063580
  82.4410776  66.2214543 108.5515848  82.7170620  66.1071137 109.4609722
  81.5715275  65.8232028 108.5128021  82.3451208  52.2451309 115.5920597
  81.4314288  52.4755535 115.7602804  82.7744309  52.3289753 116.4434630
  82.1157666  60.4341201 118.0920491  81.4629117  60.6817108 117.4372944
  82.4938046  59.6205339 117.7582969  79.0764840  70.4700894 112.1948662
  79.2587235  69.6522550 112.6576414  79.8997826  70.6868586 111.7573552
  79.4107006  69.3969079 109.4563710  79.9394772  68.8861533 108.8433872
  79.6735225  69.0811609 110.3209243  78.1645239  61.1761012 124.5786528
  77.4885876  61.0755141 125.2488904  78.9872873  61.0200225 125.0422526
  69.9124098  67.4132948 117.1999044  70.4977535  66.6676636 117.3326948
  69.7148937  67.7236905 118.0835708  72.7662754  70.4484196 112.2161486
  72.0973129  70.9330323 111.7325526  72.6275623  70.6953416 113.1304865
  64.5041753  59.9838548 115.9203487  64.5425853  59.4502139 116.7140605
  63.9982046  59.4573754 115.3014464  76.9068022  72.4827939 118.8144144
  77.4586330  72.6459561 119.5793230  77.2474216  73.0732377 118.1424169
  71.8832516  54.8303089 119.4166029  71.9473842  55.6917920 119.0043427
  71.8199636  54.2177090 118.6838388  71.3584788  56.9026221 123.0639063
  71.9856827  56.5203299 123.6776588  70.5012707  56.6840423 123.4294756
  68.1350331  58.7102650 108.9957418  68.4303772  57.8013329 108.9424472
  67.2338367  58.6890390 108.6738421  80.0436410  70.4309915 115.8007827
  79.9187549  69.6299654 115.2918772  80.7015501  70.9256108 115.3121797
  71.6644578  56.7858647 114.9784967  70.9431164  57.3994615 114.8392440
  72.4537834  57.3216412 114.9001613  82.1071318  68.2318935 117.4287377
  81.1601653  68.1124286 117.3565703  82.4554091  67.3441433 117.5113638
  74.4670891  54.1213074 121.2525619  74.9905293  54.3675370 122.0151928
  74.2483225  54.9533108 120.8328756  69.8638172  56.3916748 109.1196743
  69.5350879  55.5114127 108.9371849  70.2177543  56.3364417 110.0073133
  79.1117751  68.0271651 113.6291729  78.9642714  67.0988358 113.8099299
  79.9371245  68.0491742 113.1448804  72.9779996  56.6789718 109.4872221
  73.3176068  57.2075639 108.7650829  73.4252116  57.0170124 110.2630788
  82.7151873  68.8500210 114.7156602  83.6398421  68.6443071 114.5781053
  82.5467176  68.6016611 115.6245943  75.6723436  55.0626769 118.9375289
  75.3320257  54.2634582 119.3395969  74.9662443  55.3628480 118.3652122
  76.3239908  52.1476081 117.3902612  77.1465978  51.6736559 117.2681502
  76.5677972  52.9266565 117.8901298  74.9648143  55.1764340 107.6865514
  75.6856505  55.5545592 107.1829231  74.3413447  55.8953216 107.7900492
  79.1079266  55.8809489 108.6223846  79.3242880  56.7634126 108.3212674
  78.6273333  55.4895702 107.8929488  73.8478487  58.8395202 115.1994591
  73.7023068  59.1535505 116.0918872  73.3703691  59.4580102 114.6465489
  75.7074870  55.8297750 115.2475480  75.6936439  54.9338843 114.9107778
  76.4247298  55.8368413 115.8813766  77.5601001  56.2635090 117.2928608
  77.3018778  57.1852161 117.2912938  77.0286041  55.8665524 117.9829072
  82.5047189  69.3685877 110.0718693  82.6784067  68.8032300 109.3192546
  82.9976081  70.1686772 109.8898183  68.3224149  61.3800546 118.1382252
  67.7777617  62.1560354 118.2702526  69.2003499  61.7271351 117.9801373
  75.1111766  54.7112130 110.5163050  75.2327677  53.7828776 110.7153938
  74.8213808  54.7250816 109.6041366  77.9802956  52.3967040 113.6529770
  78.0024653  52.4606374 112.6981750  78.3971015  51.5571549 113.8470276
  88.3586580  62.1322300 111.6908993  88.8017727  61.3829625 111.2928116
  87.4813091  62.1232436 111.3082725  83.4922362  68.6852641 107.1715591
  84.1873266  69.3059334 107.3902906  83.8345512  67.8347993 107.4467969
  69.1090171  60.5070442 121.0312409  68.3671907  60.6553078 121.6177039
  68.7882915  60.7678708 120.1679158  85.3913785  66.1352347 108.7002922
  85.9165109  66.4739620 107.9752242  85.3036137  65.1999362 108.5166057
  77.0533834  70.0486421 120.8292799  77.3620960  69.8035567 121.7015498
  77.8509316  70.2533059 120.3411669  77.0754446  72.2024330 113.0598175
  76.6359436  71.7100709 113.7531032  77.8262563  71.6597298 112.8190251
  69.5546785  68.3935871 113.0622803  70.3804805  68.0939643 112.6821447
  69.2040837  67.6243494 113.5112592  74.5228318  67.7462339 115.1320477
  73.9008327  67.0833044 114.8322705  75.1933185  67.7723471 114.4494125
  67.7555390  66.3122198 114.0211737  66.9187298  65.8844372 113.8395738
  67.7279035  66.5054641 114.9582528  74.5952845  56.2244127 124.7252983
  74.6441001  57.1006250 124.3430753  75.1375360  55.6821520 124.1524626
  85.2005566  63.6177717 121.3186849  85.2503571  63.4527724 122.2602371
  85.0919489  62.7504976 120.9284729  74.0841825  66.2966263 108.6078938
  74.2329945  66.9801727 107.9545610  74.8908268  66.2771353 109.1228393
  82.4909328  59.6008645 122.6346155  83.3919191  59.4615110 122.3430153
  82.5657303  59.7663100 123.5744333  76.8252134  56.9775500 121.4799342
  75.9555443  57.2709066 121.2081930  77.0611614  57.5615945 122.2006605
  86.7023763  66.0374659 121.5628870  86.4108571  66.4004639 122.3992331
  86.0895894  65.3241667 121.3842202  87.9019445  63.6027538 114.0831440
  88.7366337  64.0417342 114.2469001  88.0378574  63.1266191 113.2639686
  84.9510951  61.1607273 120.0308928  85.4265073  61.3534919 119.2227780
  84.0276516  61.2166459 119.7852312  71.8394458  62.3231440 109.6140006
  71.5940500  61.4193770 109.8120217  72.0090372  62.3248591 108.6719484
  79.5291168  53.1955117 118.9964762  80.0473111  53.9316144 118.6711251
  79.1746300  53.5019110 119.8311521  71.1090105  58.0559798 107.1126168
  70.4159350  58.1304153 106.4566204  70.8641857  57.2920142 107.6347685
  79.7803762  49.6155399 114.5165659  80.0605516  48.9478588 115.1426085
  80.5654369  49.8084495 114.0040322  77.5837230  68.7914393 106.0790685
  77.0111197  69.4104580 105.6261157  78.1570024  69.3413755 106.6130607
  83.6512620  58.0373033 118.2637234  84.6030043  58.1371131 118.2849458
  83.4816071  57.2451302 118.7735318  81.6727000  55.1228616 118.4496635
  81.0776932  55.4033629 117.7543123  81.3876696  55.6122517 119.2213376
  80.8034490  69.0751543 107.2099267  81.7365163  69.0097105 107.4132143
  80.7157703  69.9107810 106.7513800  83.4322507  68.3917414 104.1703215
  83.3536138  68.0577277 105.0638973  84.2532173  68.8839182 104.1694687
  86.1300698  61.2579153 117.3779533  86.0977018  60.3195154 117.5639217
  86.7401322  61.3363190 116.6445358  77.9684029  60.1275206 103.4206737
  78.9143133  59.9981414 103.4895155  77.5898274  59.3889868 103.8976166
  86.2795186  58.0490196 117.4237817  85.7634235  57.2648653 117.2367745
  87.1635135  57.7208913 117.5884336  83.9405913  51.7931212 113.3833629
  83.7430734  51.4846300 114.2676961  84.5505619  52.5192851 113.5131559
  91.9477248  62.3195160 116.5185570  92.6780636  62.0580448 117.0793274
  91.3384193  61.5823882 116.5587638  90.0292545  60.4603022 117.1160021
  89.3025708  60.3258987 116.5076513  89.6139832  60.7679851 117.9216739
  77.8522721  64.1792952 124.8807394  78.7725731  64.3571551 125.0747441
  77.8172304  63.2348997 124.7287094  76.1526946  58.0525182 103.3561623
  75.2458401  57.7558295 103.4324336  76.4302927  57.7555000 102.4895909
  67.0704886  59.3731546 113.8060669  66.7507671  58.5196854 113.5135043
  66.5238314  59.5880124 114.5618636  70.8484794  62.0893987 117.5230176
  71.0670804  63.0211094 117.5418209  71.2610568  61.7301961 118.3084979
  77.7689012  52.5962072 109.5105864  76.9589740  52.2509157 109.8861110
  78.4573429  52.2869616 110.0993476  79.6979560  51.6740119 111.1330161
  80.2510599  52.0935572 111.7920184  79.9349646  50.7475867 111.1753117
  75.7212659  57.6627192 126.9132924  75.6209386  58.6121549 126.8445016
  75.5034201  57.3345431 126.0408995  74.9225731  54.9112117 103.4973602
  75.7844895  55.2367016 103.7569419  75.1076075  54.1243613 102.9846668
  66.9393146  62.9934457 115.7753791  66.2456618  62.5788410 115.2623745
  67.6866137  63.0354994 115.1787210  83.0758367  53.7840644 110.6408825
  82.4957036  54.4425448 110.2586877  82.8094300  52.9617989 110.2296242
  81.5261933  53.1845702 112.8430145  82.0261712  53.2962236 112.0344464
  82.1697541  52.8806755 113.4830954  75.5843929  61.0924331 125.7297986
  75.1011011  61.8924691 125.9361875  75.6704868  61.1032276 124.7765430
  68.8529889  62.9252711 113.6519806  68.8300577  63.0240398 112.7001689
  69.1630525  63.7717862 113.9736972  71.5117267  64.9828866 117.7666420
  72.4660520  64.9512808 117.6996351  71.3129790  64.5219490 118.5816646
  72.1016649  63.5529982 120.3337218  72.9209538  64.0474061 120.3572055
  72.3753457  62.6361950 120.3054785  81.8583245  55.9440734 109.6965173
  80.9709100  56.2290385 109.4785368  82.2737234  55.7834498 108.8492450
  85.2097781  55.9687255 113.4119512  85.9858171  56.4583708 113.6844129
  84.4845915  56.3945310 113.8691382  87.6470340  56.6814875 114.4693453
  88.2414831  56.4410610 113.7586761  87.7196923  55.9622005 115.0966989
  69.8667495  70.5248485 114.7836618  69.7321963  69.7648886 114.2174616
  69.4499558  71.2489385 114.3165407  81.0026458  65.7085409 103.7913193
  81.7062309  65.9135412 104.4070849  80.2789107  66.2762171 104.0562277
  81.8324269  61.4595270 109.9115463  81.7759470  61.9163822 109.0723096
  82.3852611  60.6985955 109.7338306  85.6429075  57.2485002 110.7365583
  85.3866009  56.8481638 111.5673790  85.0181943  57.9628796 110.6115722
  89.9541413  59.9881075 113.2436874  89.3940971  60.0574265 114.0168436
  89.3484916  59.8122060 112.5236370  73.0236621  71.4217802 114.9955060
  72.9069005  72.3663235 114.8933751  72.2029068  71.1191364 115.3840860
  82.9113156  66.1467938 105.8411653  83.7458760  65.7149137 105.6589128
  82.7497499  65.9749952 106.7688548  82.5659048  62.6500052 107.2067992
  82.5107852  62.4844323 106.2656437  81.9405103  63.3576084 107.3630182
  67.3551563  57.8868116 121.0329415  68.0010427  57.3767070 121.5216640
  67.1468714  58.6236798 121.6072840  75.8755174  52.1508161 106.7853311
  75.8633843  53.0950000 106.9421582  76.7678595  51.9678306 106.4912772
  74.0491135  72.0746064 118.2110989  74.9518382  72.1069675 118.5277484
  73.8228506  71.1446515 118.2257325  75.8044737  70.8277051 114.8721067
  74.8540368  70.8278913 114.7585440  76.1077224  70.0809785 114.3557102
  79.6907293  48.7450937 111.0399248  78.9239689  48.1909424 111.1855930
  80.1017998  48.8172806 111.9013399  71.6949054  55.0335733 125.1304429
  72.5580516  54.6772538 125.3407753  71.1214465  54.6949628 125.8179833
  88.3487137  76.6165017 115.8728355  88.0105649  76.5006082 114.9848889
  89.2176905  76.2156183 115.8529361  84.2073953  78.4700494 111.8625246
  83.6438818  78.3790431 111.0941533  84.0926348  77.6500398 112.3427738
  81.7538385  79.9651685 114.7009466  82.5459677  79.6242510 114.2855765
  81.9935035  80.0746660 115.6211619  89.7873512  82.1371462 107.1739710
  89.1361491  82.7225542 106.7873724  90.5817874  82.6677656 107.2334748
  83.7129139  79.2260599 107.5726845  84.4860015  78.6789586 107.4339721
  84.0654538  80.0904848 107.7841306  86.0495417  75.3853265 105.2045295
  86.3020937  74.8634786 104.4428758  85.1119976  75.2219410 105.3071978
  91.0938699  74.3889043 113.0120038  91.8801789  73.9708466 112.6610455
  91.3577404  75.2935135 113.1801686  91.2648777  79.8261893 107.7108695
  90.6294610  79.8996520 108.4229599  90.9346183  80.4155492 107.0327774
  96.4947127  74.3264276 113.9153016  97.2272299  73.7563493 114.1490846
  95.7386482  73.9385877 114.3559522  85.7691705  77.2881371 107.4069670
  85.6527963  76.6126274 108.0750754  85.8793965  76.8013745 106.5901823
  88.1123246  76.7491518 111.1116359  87.7481454  76.2222139 111.8229280
  88.9690362  76.3589987 110.9382844  94.0172547  68.0385850 118.3747625
  93.6855872  68.9081261 118.1508840  93.4218160  67.7222134 119.0541655
  87.7528733  71.7781418 106.1077707  87.9203136  72.6461654 106.4748178
  87.5625902  71.9408699 105.1838997  83.9616548  76.6912193 113.8080242
  83.0367044  76.5588407 114.0157934  84.2100961  77.4706413 114.3050185
  87.7317954  74.2339075 107.0924374  87.6117579  74.6796126 107.9309855
  87.0370543  74.5824393 106.5337912  81.3225359  76.3345467 114.6424031
  81.4517740  76.5879946 115.5563443  80.6422810  76.9273175 114.3228686
  85.4924846  87.0042717 110.7414505  85.4148876  87.9550542 110.8202986
  84.8886490  86.6588589 111.3989432  93.4303020  74.7060548 107.9204708
  94.3420876  74.9387935 107.7452406  92.9212667  75.2897592 107.3579787
  90.7738995  70.8818584 116.1694569  89.9123474  71.1799838 116.4611307
  90.8001430  71.0988983 115.2375602  87.5900565  79.4260775 112.5768375
  88.0538910  79.7048478 111.7872997  87.3257363  78.5244219 112.3941466
  84.4824646  78.9732256 115.5148138  85.0526003  79.4019525 114.8765623
  85.0732757  78.6914841 116.2132324  86.5269451  75.5483927 109.3857940
  87.2293494  76.0004971 109.8531866  86.1950079  74.9067746 110.0137833
  80.2694785  73.8067480 114.6875074  79.4793839  74.0625008 114.2115184
  80.7606032  74.6215818 114.7927114  82.2209530  74.1712059 111.6458550
  81.4240693  74.2830753 112.1642046  81.9935122  74.5098711 110.7799441
  78.5532488  74.0597970 117.1190064  78.8040526  74.9444980 117.3847640
  79.0892036  73.8802572 116.3465156  87.7663215  82.3624870 109.4620045
  87.6308890  83.2076406 109.8904893  88.3073028  82.5644147 108.6985979
  81.2192613  79.8800308 110.0347970  81.7317133  80.6743558 110.1853535
  81.8715325  79.1826598 109.9681572  83.0287497  82.9966064 112.1170723
  83.2054126  83.9184029 111.9291707  83.8244331  82.6824483 112.5465103
  91.1155679  65.8855432 117.9918939  90.7719948  66.7757073 117.9158049
  91.4834641  65.6957089 117.1288524  79.1841529  78.2088962 110.8107541
  80.0216751  78.6185970 110.5941249  79.3619797  77.2688404 110.7807735
  91.0805961  75.8764043 106.4991374  90.5652585  76.6468647 106.7379761
  90.8083270  75.2029179 107.1224435  88.6653073  70.7213744 111.5576612
  87.8094669  70.3320594 111.3782251  89.0780024  70.8005704 110.6976398
  90.1952219  68.2560087 115.9568172  89.6917015  68.2190222 115.1435977
  90.4882826  69.1652830 116.0164829  86.4395105  68.3398817 114.9634354
  87.3048102  68.1441625 114.6040243  86.5072614  68.1109168 115.8903710
  96.0540236  78.6296397 108.4344547  95.2769678  78.2907557 107.9899709
  96.7331717  78.6349021 107.7599512  90.8692265  73.7491135 108.3251155
  90.5642400  74.0637284 109.1761298  91.8222707  73.8272555 108.3678488
  89.3138696  79.9081358 109.9744109  88.7860058  79.1734118 109.6617346
  88.8126199  80.6856035 109.7284077  84.0457424  70.5701024 112.3350720
  84.6201176  70.3476206 111.6023913  84.6328407  70.6389719 113.0879322
  93.1037001  76.4574751 113.1415097  93.6168883  77.0904743 113.6436807
  93.7538225  75.8575947 112.7758457  84.3727011  72.6005485 106.3546606
  83.5364323  72.9380172 106.6755880  84.2331781  72.4654465 105.4173743
  86.3480092  67.4442273 111.0625790  85.6944504  67.1291291 110.4382405
  86.3060566  66.8218014 111.7885613  87.4591297  77.7261568 102.9779082
  86.5518358  77.4950822 103.1770231  87.9562329  76.9299188 103.1653064
  90.3659376  86.4359076 105.8975768  89.6921074  86.7390772 106.5060726
  90.7525198  87.2388156 105.5481225  89.5817832  73.9324207 115.3873438
  88.6640394  74.1539154 115.2295126  89.9977976  74.0070517 114.5285145
  90.3652880  75.3315623 110.5176118  91.1124699  75.8437020 110.2083240
  90.6344469  75.0099675 111.3780511  88.6379530  77.8274163 107.5003072
  87.7290749  77.5433196 107.5975542  88.6674614  78.2473242 106.6406379
  92.8131717  72.3672739 112.4994907  92.0754474  71.8550125 112.8305150
  93.0658491  71.9273120 111.6878184  92.9143344  65.1448991 113.0936676
  93.2202221  64.2846354 112.8062591  93.6395949  65.7366611 112.8935670
  79.2067700  75.5479677 111.4818274  79.0092100  74.9549038 110.7569341
  78.6514364  75.2431888 112.1994213  87.1864424  75.4402784 113.6012867
  87.2413034  74.4876620 113.5255344  86.3755626  75.5962223 114.0854166
  88.3355618  79.3682907 104.8391151  87.8975048  78.6518766 104.3796788
  89.0766059  79.5959022 104.2776242  85.1256784  74.0579844 111.3603246
  84.3124650  74.3574014 111.7668438  85.6215778  73.6635532 112.0777729
  96.4528733  77.6440104 110.8967469  96.3146631  77.8341700 109.9688658
  96.0964952  78.4059487 111.3535520  84.6170859  71.6298199 116.9764481
  85.2570238  71.4886958 116.2787445  83.7848389  71.3432713 116.6003083
  85.3931163  80.9300630 113.0899474  86.1871761  80.4350950 112.8882049
  84.6822855  80.4018493 112.7267179  81.7013926  75.0743711 109.1659226
  80.7711514  75.0128167 109.3829189  81.7971398  74.5519664 108.3695868
  81.6199475  71.5998524 111.7537468  81.8806293  72.5143857 111.6446629
  82.4416648  71.1322967 111.9034081  83.0924401  73.0136281 118.9236293
  83.7647454  72.8053643 118.2748941  82.2654187  72.8158367 118.4841525
  88.5650591  86.6038748 108.1122847  88.7402346  86.1326791 108.9268470
  87.8783379  87.2304514 108.3404108  92.4566846  78.2267289 104.4323208
  91.8396016  77.5014117 104.3356261  91.9883334  78.9876649 104.0890282
  84.2465391  72.4452713 103.5544512  83.3694858  72.3241514 103.1906759
  84.7223145  71.6538791 103.3023401  75.7667532  77.2329873 113.6486020
  76.4538571  76.9191603 113.0607035  75.6115660  78.1371237 113.3753271
  80.5702254  72.1220069 118.0771043  80.4860442  71.5145739 117.3421453
  79.7484960  72.6129088 118.0780540  87.4329317  84.7979003 110.8007033
  86.6496839  85.3400683 110.8945258  88.1322063  85.3152983 111.2001274
  90.7425968  70.6073633 113.4441238  91.2394667  69.8543595 113.1242309
  89.9712949  70.6437949 112.8784448  91.8255748  79.3645320 111.0179662
  90.8912027  79.4846782 110.8484366  92.0032417  78.4617787 110.7539672
  87.3260936  72.7491016 113.1712923  86.9558724  72.1962056 113.8593829
  87.8220029  72.1449149 112.6187923  95.2128300  75.2062639 111.5529696
  95.6788752  76.0390631 111.4789999  95.6635800  74.7407621 112.2574954
  93.2804531  81.5506461 108.5515848  93.5564375  81.4363055 109.4609722
  92.4109029  81.1523945 108.5128021  93.1844962  67.5743226 115.5920597
  92.2708042  67.8047453 115.7602804  93.6138064  67.6581670 116.4434630
  90.2500760  84.7260997 109.4563710  90.7788527  84.2153451 108.8433872
  90.5128980  84.4103527 110.3209243  75.3435508  75.3130466 115.9203487
  75.3819607  74.7794057 116.7140605  74.8375801  74.7865672 115.3014464
  82.7226270  70.1595007 119.4166029  82.7867596  71.0209837 119.0043427
  82.6593390  69.5469008 118.6838388  78.9744085  74.0394568 108.9957418
  79.2697526  73.1305247 108.9424472  78.0732121  74.0182308 108.6738421
  82.5038332  72.1150565 114.9784967  81.7824918  72.7286532 114.8392440
  83.2931588  72.6508330 114.9001613  80.7031927  71.7208666 109.1196743
  80.3744633  70.8406045 108.9371849  81.0571298  71.6656335 110.0073133
  83.8173750  72.0081636 109.4872221  84.1569823  72.5367557 108.7650829
  84.2645871  72.3462042 110.2630788  86.5117191  70.3918686 118.9375289
  86.1714011  69.5926499 119.3395969  85.8056197  70.6920397 118.3652122
  87.1633663  67.4767999 117.3902612  87.9859732  67.0028477 117.2681502
  87.4071726  68.2558483 117.8901298  85.8041897  70.5056257 107.6865514
  86.5250260  70.8837510 107.1829231  85.1807201  71.2245134 107.7900492
  89.9473020  71.2101406 108.6223846  90.1636634  72.0926044 108.3212674
  89.4667087  70.8187620 107.8929488  84.6872241  74.1687119 115.1994591
  84.5416822  74.4827422 116.0918872  84.2097445  74.7872020 114.6465489
  86.5468624  71.1589667 115.2475480  86.5330193  70.2630761 114.9107778
  87.2641052  71.1660331 115.8813766  88.3994755  71.5927008 117.2928608
  88.1412533  72.5144078 117.2912938  87.8679795  71.1957442 117.9829072
  79.1617904  76.7092464 118.1382252  78.6171372  77.4852272 118.2702526
  80.0397253  77.0563268 117.9801373  85.9505520  70.0404048 110.5163050
  86.0721431  69.1120694 110.7153938  85.6607563  70.0542734 109.6041366
  88.8196711  67.7258958 113.6529770  88.8418407  67.7898291 112.6981750
  89.2364770  66.8863467 113.8470276  94.3316116  84.0144559 107.1715591
  95.0267021  84.6351252 107.3902906  94.6739266  83.1639910 107.4467969
  96.2307539  81.4644265 108.7002922  96.7558863  81.8031537 107.9752242
  96.1429892  80.5291280 108.5166057  80.3940539  83.7227789 113.0622803
  81.2198559  83.4231561 112.6821447  80.0434591  82.9535411 113.5112592
  78.5949144  81.6414115 114.0211737  77.7581052  81.2136290 113.8395738
  78.5672790  81.8346559 114.9582528  84.9235579  81.6258180 108.6078938
  85.0723700  82.3093645 107.9545610  85.7302023  81.6063270 109.1228393
  82.6788212  77.6523358 109.6140006  82.4334254  76.7485688 109.8120217
  82.8484127  77.6540508 108.6719484  90.3684922  68.5247034 118.9964762
  90.8866866  69.2608061 118.6711251  90.0140055  68.8311028 119.8311521
  81.9483860  73.3851716 107.1126168  81.2553105  73.4596071 106.4566204
  81.7035612  72.6212059 107.6347685  90.6197516  64.9447317 114.5165659
  90.8999270  64.2770506 115.1426085  91.4048123  65.1376413 114.0040322
  88.4230985  84.1206311 106.0790685  87.8504952  84.7396498 105.6261157
  88.9963778  84.6705673 106.6130607  91.6428245  84.4043461 107.2099267
  92.5758918  84.3389023 107.4132143  91.5551457  85.2399728 106.7513800
  94.2716261  83.7209331 104.1703215  94.1929893  83.3869195 105.0638973
  95.0925928  84.2131099 104.1694687  88.8077783  75.4567124 103.4206737
  89.7536888  75.3273332 103.4895155  88.4292028  74.7181785 103.8976166
  94.7799668  67.1223130 113.3833629  94.5824489  66.8138218 114.2676961
  95.3899373  67.8484769 113.5131559  86.9920700  73.3817100 103.3561623
  86.0852156  73.0850213 103.4324336  87.2696681  73.0846918 102.4895909
  77.9098641  74.7023463 113.8060669  77.5901425  73.8488772 113.5135043
  77.3632069  74.9172042 114.5618636  81.6878548  77.4185904 117.5230176
  81.9064558  78.3503012 117.5418209  82.1004322  77.0593879 118.3084979
  88.6082766  67.9253990 109.5105864  87.7983494  67.5801075 109.8861110
  89.2967183  67.6161533 110.0993476  90.5373314  67.0032036 111.1330161
  91.0904353  67.4227490 111.7920184  90.7743401  66.0767785 111.1753117
  85.7619485  70.2404035 103.4973602  86.6238649  70.5658933 103.7569419
  85.9469829  69.4535531 102.9846668  77.7786901  78.3226375 115.7753791
  77.0850372  77.9080328 115.2623745  78.5259892  78.3646911 115.1787210
  93.9152121  69.1132562 110.6408825  93.3350791  69.7717366 110.2586877
  93.6488054  68.2909906 110.2296242  92.3655688  68.5137619 112.8430145
  92.8655466  68.6254154 112.0344464  93.0091296  68.2098672 113.4830954
  79.6923643  78.2544629 113.6519806  79.6694331  78.3532316 112.7001689
  80.0024280  79.1009779 113.9736972  92.6977000  71.2732652 109.6965173
  91.8102855  71.5582303 109.4785368  93.1130989  71.1126415 108.8492450
  96.0491536  71.2979173 113.4119512  96.8251926  71.7875625 113.6844129
  95.3239670  71.7237227 113.8691382  98.4864094  72.0106792 114.4693453
  99.0808585  71.7702528 113.7586761  98.5590678  71.2913923 115.0966989
  91.8420213  81.0377327 103.7913193  92.5456063  81.2427329 104.4070849
  91.1182862  81.6054089 104.0562277  92.6718023  76.7887188 109.9115463
  92.6153225  77.2455739 109.0723096  93.2246366  76.0277873 109.7338306
  96.4822829  72.5776920 110.7365583  96.2259763  72.1773555 111.5673790
  95.8575697  73.2920714 110.6115722  93.7506910  81.4759856 105.8411653
  94.5852514  81.0441054 105.6589128  93.5891253  81.3041870 106.7688548
  93.4052803  77.9791969 107.2067992  93.3501606  77.8136241 106.2656437
  92.7798858  78.6868002 107.3630182  78.1945318  73.2160034 121.0329415
  78.8404181  72.7058988 121.5216640  77.9862469  73.9528715 121.6072840
  86.7148928  67.4800078 106.7853311  86.7027598  68.4241918 106.9421582
  87.6072350  67.2970224 106.4912772  90.5301047  64.0742855 111.0399248
  89.7633443  63.5201342 111.1855930  90.9411752  64.1464724 111.9013399
  95.2120766  87.9297403 106.3546606  94.3758078  88.2672090 106.6755880
  95.0725535  87.7946383 105.4173743  95.0859146  87.7744631 103.5544512
  94.2088612  87.6533431 103.1906759  95.5616899  86.9830709 103.3023401
  92.7877614  88.7143633 107.1126168  92.0946859  88.7887988 106.4566204
  92.5429366  87.9503977 107.6347685  97.8314455  88.7109018 103.3561623
  96.9245910  88.4142130 103.4324336  98.1090436  88.4138836 102.4895909
  96.6013240  85.5695953 103.4973602  97.4632403  85.8950851 103.7569419
  96.7863584  84.7827449 102.9846668  97.5542683  82.8091996 106.7853311
  97.5421352  83.7533836 106.9421582  98.4466104  82.6262141 106.4912772
  47.0084359   2.1253528  92.6221075  46.3346058   2.4285224  93.2306033
  47.3950181   2.9282608  92.2726532  49.0991829  -6.0838259  91.1568515
  48.4820999  -6.8091431  91.0601568  48.6308317  -5.3228899  90.8135589
  50.9741100  -0.2960989  93.8960898  51.6692004   0.3245704  94.1148213
  51.3164250  -1.1465638  94.1713276  45.0655968  -0.1899237  92.8035992
  44.4929935   0.4290950  92.3506463  45.6388762   0.3600124  93.3375914
  48.2853228   0.0937913  93.9344574  49.2183901   0.0283475  94.1377449
  48.1976441   0.9294180  93.4759106  50.9141244  -0.5896217  90.8948521
  50.8354876  -0.9236353  91.7884279  51.7350911  -0.0974449  90.8939994
  48.4845196  -3.2728221  90.5158500  49.1881046  -3.0678219  91.1316155
  47.7607845  -2.7051460  90.7807583  50.3931894  -2.8345692  92.5656960
  51.2277498  -3.2664494  92.3834435  50.2316237  -3.0063679  93.4933854
  59.0216169   7.6823959 102.6612137  59.6594579   7.5630706 101.9575477
  58.9037012   8.6304803 102.7200089  55.8305875   7.6351387 102.5973661
  55.4924387   7.5192452 101.7094196  56.6995643   7.2342552 102.5774667
  51.6892691   9.4886863  98.5870552  51.1257556   9.3976800  97.8186840
  51.5745086   8.6686768  99.0673045  57.2692249  13.1557831  93.8985017
  56.6180229  13.7411912  93.5119031  58.0636612  13.6864026  93.9580055
  51.1947877  10.2446968  94.2972151  51.9678753   9.6975955  94.1585027
  51.5473275  11.1091218  94.5086613  53.5314154   6.4039634  91.9290601
  53.7839675   5.8821156  91.1674064  52.5938714   6.2405780  92.0317285
  58.5757437   5.4075413  99.7365345  59.3620526   4.9894836  99.3855762
  58.8396142   6.3121505  99.9046993  58.7467515  10.8448263  94.4354001
  58.1113348  10.9182890  95.1474906  58.4164921  11.4341862  93.7573081
  63.9765864   5.3450646 100.6398323  64.7091036   4.7749863 100.8736153
  63.2205220   4.9572246 101.0804829  53.2510443   8.3067740  94.1314976
  53.1346701   7.6312644  94.7996061  53.3612703   7.8200114  93.3147129
  55.5941984   7.7677887  97.8361666  55.2300191   7.2408508  98.5474587
  56.4509100   7.3776356  97.6628151  55.2347471   2.7967787  92.8323014
  55.4021873   3.6648024  93.1993485  55.0444640   2.9595069  91.9084303
  57.9922804  11.2584766 104.4988844  57.6923527  12.1609805 104.3904652
  57.6473864  10.9916949 105.3509997  61.3919948   3.7767306 102.1786282
  60.4836825   3.7082715 101.8845043  61.3407544   4.2539251 103.0068107
  55.2136692   5.2525445  93.8169681  55.0936317   5.6982495  94.6555161
  54.5189280   5.6010762  93.2583219  52.9743584  18.0229086  97.4659812
  52.8967614  18.9736911  97.5448293  52.3705228  17.6774959  98.1234738
  60.9121758   5.7246918  94.6450015  61.8239614   5.9574305  94.4697712
  60.4031405   6.3083962  94.0825094  59.5191340  10.7072736 102.0363596
  58.8900203  10.8718450 101.3339664  59.1317003  11.1214346 102.8074560
  63.3980572  11.6427174  99.3907960  62.7131610  12.0226075  98.8404993
  63.4824422  12.2522501 100.1239908  55.0719302  10.4447144  99.3013681
  55.5357648  10.7234847  98.5118304  54.8076100   9.5430589  99.1186772
  54.0088188   6.5670297  96.1103247  54.7112232   7.0191340  96.5777173
  53.6768817   5.9254116  96.7383140  61.7677332  12.1659089 104.1625661
  62.5894776  11.7639276 103.8808343  61.7639735  12.0627323 105.1141777
  69.8583325   8.5097837 100.5110632  69.1047033   7.9405235 100.3554637
  69.9930866   8.4760502 101.4581267  55.2481953  13.3811239  96.1865352
  55.1127628  14.2262775  96.6150200  55.7891765  13.5830517  95.4231286
  48.7011350  10.8986677  96.7593277  49.2135871  11.6929928  96.9098842
  49.3534063  10.2012968  96.6926878  50.5106235  14.0152434  98.8416030
  50.6872863  14.9370398  98.6537014  51.3063069  13.7010853  99.2710410
  51.6337551  15.5330607 104.8426372  52.1844976  15.4047671 104.0703366
  50.7949026  15.8325496 104.4921265  46.6660267   9.2275332  97.5352847
  47.5035489   9.6372340  97.3186555  46.8438535   8.2874774  97.5053041
  58.5624699   6.8950412  93.2236680  58.0471323   7.6655017  93.4625068
  58.2902008   6.2215548  93.8469742  56.1471810   1.7400113  98.2821919
  55.2913407   1.3506964  98.1027557  56.5598762   1.8192074  97.4221704
  63.5358973   9.6482767  95.1589854  62.7588416   9.3093926  94.7145016
  64.2150454   9.6535390  94.4844819  58.3511002   4.7677504  95.0496462
  58.0461138   5.0823654  95.9006605  59.3041445   4.8458924  95.0923795
  56.7957434  10.9267728  96.6989416  56.2678796  10.1920487  96.3862653
  56.2944937  11.7042404  96.4529384  61.7750280   9.1216748 101.8156462
  61.1173955   9.8116010 101.9036591  62.5790680   9.5113180 102.1590448
  60.5855739   7.4761121  99.8660404  61.0987621   8.1091113 100.3682113
  61.2356963   6.8762316  99.5003764  51.8545749   3.6191855  93.0791912
  51.0183061   3.9566542  93.4001187  51.7150519   3.4840835  92.1419049
  54.9410034   8.7447938  89.7024389  54.0337096   8.5137191  89.9015538
  55.4381066   7.9485557  89.8898370  57.8478113  17.4545445  92.6221075
  57.1739812  17.7577142  93.2306033  58.2343935  18.2574526  92.2726532
  57.8471618   6.3501992  97.2421424  58.5943437   6.8623389  96.9328546
  58.1163207   6.0286045  98.1025818  56.1198268   8.8460533  94.2248379
  55.2109487   8.5619566  94.3220848  56.1493352   9.2659611  93.3651686
  61.3517535  12.4567122  97.9939546  60.8979862  11.6158032  98.0504737
  60.7211502  13.0928521  98.3314326  60.2950455   3.3859108  99.2240214
  59.5573212   2.8736495  99.5550456  60.5477228   2.9459490  98.4123491
  59.7950475  14.2943619  98.9289364  60.0873449  14.8548676  98.2101730
  60.3049095  14.5872180  99.6842524  54.6683162   6.4589153 100.3258174
  54.7231772   5.5062990 100.2500651  53.8574364   6.6148593 100.8099472
  55.8174356  10.3869277  91.5636457  55.3793786   9.6705135  91.1042095
  56.5584797  10.6145391  91.0021549  52.6075522   5.0766213  98.0848553
  51.7943387   5.3760384  98.4913745  53.1034516   4.6821902  98.8023035
  54.7584100  15.0723970 100.0182818  54.7160279  15.2984816  99.0891350
  55.6746799  14.8387345 100.1668619  63.9347470   8.6626474  97.6212776
  63.7965369   8.8528070  96.6933965  63.5783689   9.4245856  98.0780827
  63.9616850  10.7303001 102.6324047  64.3953357  10.6378290 103.4807101
  64.6748431  10.7060501 101.9944063  52.8749901  11.9486999  99.8144780
  53.6690499  11.4537319  99.6127355  52.1641593  11.4204862  99.4512486
  57.6944745  14.3305095 104.1657148  57.7481767  14.8996031 104.9334864
  56.8259526  14.5006980 103.8011185  49.1832664   6.0930081  95.8904533
  48.2530252   6.0314536  96.1074495  49.2790136   5.5706034  95.0941174
  64.8232400  10.7726701 105.1656933  65.0168290  11.6772512 105.4116208
  64.7233018  10.3134120 105.9995518  55.4521177  12.5216021 103.4942617
  55.3132262  12.1534806 104.3668556  54.6635773  13.0363661 103.3226575
  56.0469328  17.6225118  94.8368154  56.2221084  17.1513161  95.6513777
  55.3602117  18.2490884  95.0649415  57.0026392  11.8997624 100.8831455
  56.6676224  11.8598394 101.7789105  56.5030337  11.2342340 100.4101865
  59.9385583   9.2453658  91.1568515  59.3214754   8.5200486  91.0601568
  59.4702072  10.0063018  90.8135589  50.6130414  20.7714480 101.6108014
  50.8527012  21.4033005 102.2887033  49.7699610  20.4202520 101.8973373
  51.7284129   3.4639082  90.2789819  50.8513596   3.3427883  89.9152066
  52.2041882   2.6725161  90.0268708  55.1258276  16.5793603 104.0149518
  55.0528447  17.3848574 104.5268823  54.6835669  16.7785569 103.1897539
  54.9148055  15.8165373  97.5252340  54.1315577  16.3587053  97.6190564
  55.6140800  16.3339352  97.9246581  58.2244705   1.6260002 100.1686545
  58.7213405   0.8729965  99.8487615  57.4531687   1.6624319  99.6029754
  66.0774463   7.3300368 101.8104837  66.0664339   8.2125083 101.4398770
  65.2091842   6.9771919 101.6159374  57.5856959  16.4780437 106.1707677
  58.2984931  17.1127902 106.0983578  57.0946988  16.5744303 105.3547679
  59.3074486  10.3831690  97.7424968  58.3730765  10.5033152  97.5729673
  59.4851155   9.4804156  97.4784978  62.6947037   6.2249009  98.2775003
  63.1607490   7.0577000  98.2035305  63.1454538   5.7593990  98.9820261
  60.7623269  12.5692830  95.2761155  61.0383112  12.4549425  96.1855029
  59.8927767  12.1710315  95.2373328  57.3977333  16.8179181  98.9193968
  57.5799727  16.0000837  99.3821721  58.2210319  17.0346873  98.4818858
  57.7319498  15.7447366  96.1809017  58.2607264  15.2339821  95.5679179
  57.9947718  15.4289896  97.0454550  51.0875246  16.7962483  98.9406793
  50.4185621  17.2808610  98.4570833  50.9488116  17.0431703  99.8550171
  55.2280515  18.8306226 105.5389451  55.7798823  18.9937848 106.3038536
  55.5686708  19.4210664 104.8669476  46.4562823   5.0580938  95.7202725
  46.7516264   4.1491616  95.6669778  45.5550859   5.0368677  95.3983727
  58.3648902  16.7788202 102.5253133  58.2400041  15.9777942 102.0164079
  59.0227993  17.2734395 102.0367103  60.4283810  14.5797222 104.1532683
  59.4814146  14.4602573 104.0811010  60.7766583  13.6919720 104.2358945
  48.1850665   2.7395035  95.8442050  47.8563371   1.8592414  95.6617156
  48.5390035   2.6842704  96.7318439  57.4330244  14.3749938 100.3537035
  57.2855206  13.4466646 100.5344606  58.2583737  14.3970029  99.8694111
  51.2992488   3.0268005  96.2117528  51.6388560   3.5553926  95.4896136
  51.7464608   3.3648411  96.9876094  61.0364365  15.1978497 101.4401908
  61.9610913  14.9921358 101.3026359  60.8679669  14.9494898 102.3491250
  53.2860635   1.5242627  94.4110820  54.0068997   1.9023880  93.9074537
  52.6625939   2.2431504  94.5145798  57.4291758   2.2287776  95.3469153
  57.6455372   3.1112414  95.0457981  56.9485825   1.8373989  94.6174795
  60.8259682  15.7164164  96.7964000  60.9996559  15.1510587  96.0437852
  61.3188573  16.5165059  96.6143490  53.4324258   1.0590417  97.2408357
  53.5540169   0.1307063  97.4399245  53.1426300   1.0729103  96.3286672
  66.6799073   8.4800587  98.4154299  67.1230219   7.7307912  98.0173423
  65.8025583   8.4710724  98.0328031  61.8134854  15.0330929  93.8960898
  62.5085759  15.6537621  94.1148213  62.1558004  14.1826280  94.1713276
  63.7126277  12.4830634  95.4248229  64.2377601  12.8217907  94.6997549
  63.6248630  11.5477650  95.2411363  55.3966938  18.5502618  99.7843482
  54.9571928  18.0578996 100.4776339  56.1475055  18.0075585  99.5435557
  47.8759277  14.7414158  99.7868110  48.7017297  14.4417930  99.4066754
  47.5253329  13.9721781 100.2357899  52.8440810  14.0940627 101.8565784
  52.2220819  13.4311332 101.5568011  53.5145677  14.1201758 101.1739431
  46.0767882  12.6600485 100.7457044  45.2399790  12.2322659 100.5641045
  46.0491527  12.8532928 101.6827835  52.4054317  12.6444550  95.3324244
  52.5542437  13.3280014  94.6790917  53.2120760  12.6249640  95.8473700
  65.0236255  12.3852946 108.2874177  64.7321063  12.7482926 109.1237638
  64.4108386  11.6719954 108.1087509  66.2231937   9.9505826 100.8076747
  67.0578829  10.3895630 100.9714307  66.3591066   9.4744479  99.9884993
  50.1606950   8.6709728  96.3385313  49.9152992   7.7672058  96.5365523
  50.3302865   8.6726878  95.3964791  49.4302598   4.4038085  93.8371475
  48.7371842   4.4782440  93.1811510  49.1854349   3.6398429  94.3592991
  55.9049723  15.1392680  92.8035992  55.3323690  15.7582868  92.3506463
  56.4782516  15.6892042  93.3375914  59.1246982  15.4229831  93.9344574
  60.0577655  15.3575392  94.1377449  59.0370195  16.2586097  93.4759106
  61.7534999  14.7395701  90.8948521  61.6748631  14.4055564  91.7884279
  62.5744666  15.2317469  90.8939994  64.4513190   7.6057440 104.1024840
  64.4189510   6.6673441 104.2884524  65.0613814   7.6841477 103.3690665
  56.2896521   6.4753493  90.1452044  57.2355626   6.3459701  90.2140462
  55.9110766   5.7368155  90.6221472  70.2689740   8.6673447 103.2430877
  70.9993128   8.4058735 103.8038580  69.6596685   7.9302169 103.2832945
  68.3505037   6.8081310 103.8405328  67.6238201   6.6737275 103.2321820
  67.9352324   7.1158138 104.6462046  54.4739438   4.4003470  90.0806929
  53.5670894   4.1036582  90.1569643  54.7515419   4.1033288  89.2141216
  56.0901504  -1.0559641  96.2351171  55.2802232  -1.4012556  96.6106417
  56.7785921  -1.3652097  96.8238782  53.2438223   1.2590405  90.2218908
  54.1057387   1.5845303  90.4814726  53.4288567   0.4721901  89.7091974
  61.3970859   0.1318931  97.3654131  60.8169528   0.7903735  96.9832184
  61.1306792  -0.6903724  96.9541549  60.1795737   2.2919022  96.4210480
  59.2921592   2.5768672  96.2030674  60.5949726   2.1312785  95.5737757
  63.5310273   2.3165543 100.1364819  64.3070664   2.8061995 100.4089436
  62.8058408   2.7423597 100.5936688  65.9682832   3.0293162 101.1938760
  66.5627323   2.7888898 100.4832068  66.0409416   2.3100292 101.8212296
  48.1879988  16.8726773 101.5081924  48.0534456  16.1127174 100.9419922
  47.7712050  17.5967673 101.0410713  59.3238951  12.0563696  90.5158500
  60.0274801  12.2613699  91.1316155  58.6001600  12.6240458  90.7807583
  60.1536761   7.8073558  96.6360770  60.0971962   8.2642109  95.7968402
  60.7065103   7.0464242  96.4583613  63.9641567   3.5963289  97.4610889
  63.7078501   3.1959925  98.2919097  63.3394435   4.3107083  97.3361029
  68.2753905   6.3359363  99.9682181  67.7153463   6.4052552 100.7413743
  67.6697408   6.1600347  99.2481677  51.3449114  17.7696090 101.7200367
  51.2281498  18.7141522 101.6179057  50.5241560  17.4669651 102.1086166
  61.2325648  12.4946225  92.5656960  62.0671252  12.0627424  92.3834435
  61.0709991  12.3228239  93.4933854  60.8871540   8.9978339  93.9313299
  60.8320344   8.8322610  92.9901743  60.2617596   9.7054372  94.0875489
  54.1967666  -1.5013552  93.5098617  54.1846336  -0.5571712  93.6666888
  55.0891088  -1.6843407  93.2158079  52.3703628  18.4224352 104.9356296
  53.2730874  18.4547962 105.2522790  52.1440998  17.4924803 104.9502631
  54.1257230  17.1755338 101.5966374  53.1752861  17.1757200 101.4830746
  54.4289716  16.4288073 101.0802409  69.8609923  23.0115877 102.6612137
  70.4988333  22.8922624 101.9575477  69.7430766  23.9596721 102.7200089
  66.6699630  22.9643305 102.5973661  66.3318141  22.8484369 101.7094196
  67.5389398  22.5634470 102.5774667  62.5286445  24.8178781  98.5870552
  61.9651310  24.7268718  97.8186840  62.4138840  23.9978686  99.0673045
  67.1519413  24.1178156 108.5559867  67.1408053  23.7230955 107.6840370
  67.3140052  23.3844229 109.1493638  60.0750877  26.3129973 101.4254773
  60.8672169  25.9720797 101.0101072  60.3147527  26.4224948 102.3456926
  68.1086004  28.4849749  93.8985017  67.4573984  29.0703829  93.5119031
  68.9030367  29.0155944  93.9580055  62.0341631  25.5738886  94.2972151
  62.8072507  25.0267873  94.1585027  62.3867030  26.4383135  94.5086613
  63.8726674  26.9015268 107.5039051  63.5816540  27.8060899 107.3885717
  64.5083658  26.9431796 108.2183120  64.7982881  24.2792117 104.0940410
  65.3946453  24.0548139 103.3797373  64.8557852  23.5376862 104.6965858
  64.3707909  21.7331552  91.9290601  64.6233430  21.2113073  91.1674064
  63.4332468  21.5697697  92.0317285  69.4151192  20.7367330  99.7365345
  70.2014281  20.3186754  99.3855762  69.6789896  21.6413423  99.9046993
  69.5861269  26.1740181  94.4354001  68.9507102  26.2474807  95.1474906
  69.2558676  26.7633780  93.7573081  74.8159619  20.6742564 100.6398323
  75.5484791  20.1041780 100.8736153  74.0598975  20.2864164 101.0804829
  64.0904198  23.6359658  94.1314976  63.9740456  22.9604561  94.7996061
  64.2006458  23.1492032  93.3147129  66.4335739  23.0969805  97.8361666
  66.0693946  22.5700426  98.5474587  67.2902855  22.7068274  97.6628151
  72.3385039  14.3864138 105.0992932  72.0068364  15.2559549 104.8754147
  71.7430653  14.0700422 105.7786962  66.0741226  18.1259705  92.8323014
  66.2415628  18.9939941  93.1993485  65.8838395  18.2886987  91.9084303
  68.8316559  26.5876684 104.4988844  68.5317282  27.4901723 104.3904652
  68.4867618  26.3208867 105.3509997  62.2829040  23.0390481 100.5325549
  61.3579537  22.9066695 100.7403241  62.5313453  23.8184700 101.0295491
  72.2313703  19.1059224 102.1786282  71.3230580  19.0374632 101.8845043
  72.1801298  19.5831169 103.0068107  66.0530446  20.5817362  93.8169681
  65.9330072  21.0274413  94.6555161  65.3583035  20.9302680  93.2583219
  59.6437851  22.6823754 101.3669338  59.7730232  22.9358233 102.2808750
  58.9635303  23.2751462 101.0473993  63.8137339  33.3521004  97.4659812
  63.7361368  34.3028829  97.5448293  63.2098982  33.0066877  98.1234738
  66.3054568  20.5248869 110.1221179  65.5287902  21.0842790 110.1124044
  66.9445131  21.0105652 110.6436049  74.0975349  17.3075662 103.9564156
  73.4549729  17.6008195 103.3103950  73.5930277  17.1928583 104.7617352
  71.7515513  21.0538835  94.6450015  72.6633369  21.2866222  94.4697712
  71.2425160  21.6375880  94.0825094  64.5600941  23.3334323 109.6839146
  65.3015625  23.8719367 109.4073970  63.8537926  23.9600612 109.8410698
  70.0356280  25.4763463 108.2811308  70.4439636  25.0345874 107.5365940
  69.3133542  24.9016091 108.5345500  66.3887350  20.4136070 105.6544864
  67.2348546  20.8375484 105.7979513  66.3285988  19.7569694 106.3483428
  70.3585095  26.0364654 102.0363596  69.7293957  26.2010368 101.3339664
  69.9710757  26.4506263 102.8074560  74.2374327  26.9719092  99.3907960
  73.5525365  27.3517993  98.8404993  74.3218176  27.5814418 100.1239908
  69.5386796  18.0740438 107.3126038  69.2947728  18.8282499 106.7760314
  69.8146726  18.4525786 108.1473285  71.4925258  24.6179051 105.9903304
  71.7042154  25.2610811 105.3137685  71.4455007  23.7841367 105.5225234
  69.0951487  17.2296871 102.8939876  68.2335966  17.5278125 103.1856613
  69.1213922  17.4467270 101.9620908  65.9113057  25.7739062  99.3013681
  66.3751402  26.0526765  98.5118304  65.6469855  24.8722507  99.1186772
  62.8037138  25.3210544 102.2393445  63.3738495  25.7497812 101.6010929
  63.3945250  25.0393128 102.9377630  64.8481943  21.8962214  96.1103247
  65.5505986  22.3483258  96.5777173  64.5162571  21.2546033  96.7383140
  63.2962304  20.4873971 110.4854456  62.6660965  21.1690252 110.7189853
  63.1898392  20.3757053 109.5407594  58.5907277  20.1545767 101.4120380
  57.8006331  20.4103296 100.9360491  59.0818524  20.9694105 101.5172421
  72.6071086  27.4951006 104.1625661  73.4288530  27.0931194 103.8808343
  72.6033489  27.3919240 105.1141777  60.5422022  20.5190346  98.3703857
  59.7453185  20.6309041  98.8887353  60.3147614  20.8576999  97.5044747
  66.3727690  27.0435050 106.3186372  66.4372122  27.5055457 107.1544543
  65.6638614  26.4132414 106.4468681  56.8744980  20.4076258 103.8435371
  57.1253018  21.2923267 104.1092947  57.4104528  20.2280859 103.0710463
  80.6977079  23.8389755 100.5110632  79.9440788  23.2697153 100.3554637
  80.8324621  23.8052419 101.4581267  66.0875707  28.7103157  96.1865352
  65.9521382  29.5554693  96.6150200  66.6285520  28.9122435  95.4231286
  59.5405105  26.2278595  96.7593277  60.0529625  27.0221845  96.9098842
  60.1927818  25.5304886  96.6926878  61.3499990  29.3444351  98.8416030
  61.5266618  30.2662316  98.6537014  62.1456823  29.0302771  99.2710410
  65.4911008  16.2052616 110.4399964  66.2320721  16.8059769 110.3604426
  65.7228931  15.4630254 109.8818006  60.6352346  21.3908983 108.7178193
  60.5205861  20.4894240 109.0185292  59.7796864  21.6372680 108.3663010
  67.7144184  29.3326724 110.3165694  67.2708038  28.5463102 109.9986598
  68.3761397  29.5205874 109.6509585  62.4731305  30.8622525 104.8426372
  63.0238730  30.7339588 104.0703366  61.6342781  31.1617414 104.4921265
  69.8125422  29.6129523 108.3447095  69.7943897  30.4338404 107.8527364
  70.7345342  29.4883599 108.5697236  66.2698476  27.1273653 109.1870604
  66.8026813  26.3661941 108.9569912  65.7412557  26.8347305 109.9294758
  69.4368171  12.2333719 104.7164245  69.0932440  13.1235361 104.6403356
  69.8047134  12.0435377 103.8533830  57.5054022  24.5567249  97.5352847
  58.3429244  24.9664258  97.3186555  57.6832289  23.6166692  97.5053041
  69.4018454  22.2242330  93.2236680  68.8865077  22.9946935  93.4625068
  69.1295762  21.5507466  93.8469742  66.9865565  17.0692031  98.2821919
  66.1307161  16.6798881  98.1027557  67.3992517  17.1483992  97.4221704
  68.5164711  14.6038374 102.6813479  68.0129507  14.5668509 101.8681284
  68.8095318  15.5131117 102.7410135  64.7607597  14.6877104 101.6879660
  65.6260594  14.4919912 101.3285550  64.8285106  14.4587456 102.6149017
  74.3752728  24.9774685  95.1589854  73.5982171  24.6385844  94.7145016
  75.0544209  24.9827308  94.4844819  69.1904757  20.0969422  95.0496462
  68.8854892  20.4115571  95.9006605  70.1435199  20.1750842  95.0923795
  67.6351189  26.2559645  96.6989416  67.1072550  25.5212405  96.3862653
  67.1338691  27.0334322  96.4529384  72.6144035  24.4508666 101.8156462
  71.9567709  25.1407927 101.9036591  73.4184434  24.8405098 102.1590448
  62.3669916  16.9179312  99.0596027  62.9413668  16.6954493  98.3269220
  62.9540899  16.9868006  99.8124628  71.4249494  22.8053039  99.8660404
  71.9381375  23.4383030 100.3682113  72.0750717  22.2054234  99.5003764
  62.6939503  18.9483773  93.0791912  61.8576816  19.2858459  93.4001187
  62.5544273  18.8132753  92.1419049  64.6692584  13.7920561  97.7871097
  64.0156996  13.4769578  97.1627711  64.6273058  13.1696301  98.5130919
  65.7803789  24.0739856  89.7024389  64.8730851  23.8429109  89.9015538
  66.2774821  23.2777475  89.8898370  68.6871868  32.7837363  92.6221075
  68.0133567  33.0869060  93.2306033  69.0737690  33.5866443  92.2726532
  67.9030324  20.2802494 102.1118744  66.9852886  20.5017441 101.9540432
  68.3190468  20.3548805 101.2530451  68.6865372  21.6793910  97.2421424
  69.4337191  22.1915307  96.9328546  68.9556962  21.3577963  98.1025818
  66.9592022  24.1752451  94.2248379  66.0503242  23.8911483  94.3220848
  66.9887106  24.5951529  93.3651686  72.1911290  27.7859040  97.9939546
  71.7373617  26.9449950  98.0504737  71.5605257  28.4220438  98.3314326
  71.1344209  18.7151026  99.2240214  70.3966966  18.2028412  99.5550456
  71.3870983  18.2751408  98.4123491  70.6344229  29.6235537  98.9289364
  70.9267203  30.1840594  98.2101730  71.1442850  29.9164098  99.6842524
  71.2355837  11.4927278  99.8181983  71.5414713  10.6324642  99.5307898
  71.9608442  12.0844898  99.6180977  57.5280193  21.8957965  98.2063581
  57.3304593  21.3027325  97.4814647  56.9726857  21.5910175  98.9239520
  65.5076916  21.7881071 100.3258174  65.5625526  20.8354908 100.2500651
  64.6968118  21.9440510 100.8099472  66.6568110  25.7161194  91.5636457
  66.2187540  24.9997053  91.1042095  67.3978551  25.9437309  91.0021549
  63.4469276  20.4058131  98.0848553  62.6337142  20.7052301  98.4913745
  63.9428271  20.0113820  98.8023035  65.5977854  30.4015888 100.0182818
  65.5554033  30.6276734  99.0891350  66.5140553  30.1679262 100.1668619
  69.0443488  20.8699955 106.9163447  69.3992876  21.0971429 107.7757913
  69.6915619  21.2018332 106.2940702  74.7741225  23.9918391  97.6212776
  74.6359124  24.1819987  96.6933965  74.4177444  24.7537774  98.0780827
  62.9383351  17.9776486 103.7009788  63.5782730  17.8365246 103.0032751
  62.1060882  17.6911000 103.3248390  74.8010605  26.0594918 102.6324047
  75.2347111  25.9670207 103.4807101  75.5142185  26.0352419 101.9944063
  63.7143655  27.2778917  99.8144780  64.5084254  26.7829237  99.6127355
  63.0035347  26.7496780  99.4512486  68.5338499  29.6597012 104.1657148
  68.5875522  30.2287949 104.9334864  67.6653281  29.8298897 103.8011185
  60.0226418  21.4221999  95.8904533  59.0924007  21.3606454  96.1074495
  60.1183890  20.8997951  95.0941174  59.9411968  17.9476811  98.4782775
  60.2018785  18.8622145  98.3691935  60.7629140  17.4801254  98.6279387
  61.4136893  19.3614569 105.6481599  62.0859946  19.1531931 104.9994248
  60.5866679  19.1636655 105.2086831  75.6626154  26.1018619 105.1656933
  75.8562044  27.0064429 105.4116208  75.5626772  25.6426038 105.9995518
  67.3162465  15.9876509 107.6647260  66.6690380  16.6866459 107.5711736
  68.0863480  16.4212653 108.0323508  70.7241263  26.2525362 110.7397813
  70.5726769  26.0235913 109.8227897  70.7145942  27.2095963 110.7529158
  67.4926599  23.8257274 105.7244080  68.4218659  23.9768434 105.5513047
  67.0717629  23.9141295 104.8692726  66.2914931  27.8507939 103.4942617
  66.1526017  27.4826723 104.3668556  65.5029527  28.3655578 103.3226575
  66.8863083  32.9517035  94.8368154  67.0614839  32.4805078  95.6513777
  66.1995871  33.5782801  95.0649415  67.8420146  27.2289542 100.8831455
  67.5069979  27.1890311 101.7789105  67.3424092  26.5634257 100.4101865
  61.8164390  22.6357172 106.4084036  61.6784188  21.9037410 107.0095575
  62.7269314  22.5466072 106.1268224  70.7779338  24.5745576  91.1568515
  70.1608508  23.8492404  91.0601568  70.3095826  25.3354936  90.8135589
  64.4446691  22.3477131 105.8967716  65.1546309  21.7070323 105.8554334
  64.4015999  22.5990026 106.8193897  72.4333469  29.2844484 108.8174295
  72.3746016  28.6003704 108.1504878  72.8352988  30.0263474 108.3654921
  63.1575625  19.3342349 107.7163355  62.6212982  18.8833087 108.3684952
  62.5692333  19.4688258 106.9733820  61.4524168  36.1006398 101.6108014
  61.6920766  36.7324922 102.2887033  60.6093365  35.7494438 101.8973373
  62.5677884  18.7931000  90.2789819  61.6907350  18.6719801  89.9152066
  63.0435637  18.0017078  90.0268708  72.4350877  27.2484068 107.0488275
  71.5477655  26.9109990 107.1714674  73.0049428  26.5167099 107.2857040
  54.0880024  23.5808160 100.3731326  54.7751064  23.2669890  99.7852342
  53.9328153  24.4849525 100.0998578  58.8914746  18.4698356 104.8016350
  58.8072935  17.8624026 104.0666760  58.0697452  18.9607375 104.8025846
  65.9652030  31.9085520 104.0149518  65.8922202  32.7140492 104.5268823
  65.5229423  32.1077486 103.1897539  65.7541810  31.1457291  97.5252340
  64.9709332  31.6878971  97.6190564  66.4534555  31.6631270  97.9246581
  69.0638460  16.9551920 100.1686545  69.5607159  16.2021882  99.8487615
  68.2925441  16.9916237  99.6029754  76.9168217  22.6592286 101.8104837
  76.9058094  23.5417001 101.4398770  76.0485597  22.3063836 101.6159374
  68.4250714  31.8072355 106.1707677  69.1378686  32.4419819 106.0983578
  67.9340742  31.9036221 105.3547679  70.1468241  25.7123607  97.7424968
  69.2124519  25.8325070  97.5729673  70.3244909  24.8096074  97.4784978
  65.6473429  19.0969303  99.8958230  65.2771216  18.5440343 100.5839135
  66.1432521  18.4927436  99.3433230  73.5340792  21.5540926  98.2775003
  74.0001244  22.3868918  98.2035305  73.9848292  21.0885908  98.9820261
  63.4762627  29.5566798 106.9913248  64.1772087  30.1903281 107.1442642
  63.0057742  29.8981530 106.2308887  71.6017023  27.8984748  95.2761155
  71.8776867  27.7841342  96.1855029  70.7321522  27.5002233  95.2373328
  71.5057455  13.9221513 102.3165904  70.5920534  14.1525740 102.4848111
  71.9350556  14.0059958 103.1679936  71.2763913  22.1111405 104.8165798
  70.6235363  22.3587313 104.1618251  71.6544293  21.2975544 104.4828275
  68.2371087  32.1471099  98.9193968  68.4193482  31.3292755  99.3821721
  69.0604073  32.3638791  98.4818858  68.5713253  31.0739284  96.1809017
  69.1001019  30.5631738  95.5679179  68.8341472  30.7581814  97.0454550
  67.3251486  22.8531216 111.3031835  66.6492123  22.7525346 111.9734210
  68.1479120  22.6970430 111.7667832  59.0730345  29.0903153 103.9244350
  59.6583782  28.3446841 104.0572254  58.8755184  29.4007110 104.8081014
  61.9269000  32.1254400  98.9406793  61.2579376  32.6100528  98.4570833
  61.7881870  32.3723621  99.8550171  53.6648000  21.6608753 102.6448793
  53.7032099  21.1272344 103.4385912  53.1588293  21.1343959 102.0259771
  66.0674269  34.1598144 105.5389451  66.6192577  34.3229765 106.3038536
  66.4080463  34.7502582 104.8669476  61.0438762  16.5073294 106.1411336
  61.1080089  17.3688125 105.7288733  60.9805883  15.8947295 105.4083694
  60.5191035  18.5796426 109.7884370  61.1463074  18.1973504 110.4021894
  59.6618954  18.3610628 110.1540062  70.9185143  28.9859401 111.3938105
  71.4625047  29.5989360 110.8993060  70.3371988  29.5438980 111.9105118
  57.2956578  20.3872855  95.7202725  57.5910019  19.4783534  95.6669778
  56.3944613  20.3660595  95.3983727  69.2042656  32.1080119 102.5253133
  69.0793796  31.3069859 102.0164079  69.8621747  32.6026313 102.0367103
  60.8250825  18.4628852 101.7030273  60.1037410  19.0764820 101.5637747
  61.6144080  18.9986617 101.6246919  71.2677565  29.9089140 104.1532683
  70.3207900  29.7894491 104.0811010  71.6160338  29.0211638 104.2358945
  63.6277138  15.7983278 107.9770925  64.1511540  16.0445575 108.7397234
  63.4089471  16.6303313 107.5574062  59.0244419  18.0686953  95.8442050
  58.6957125  17.1884332  95.6617156  59.3783790  18.0134622  96.7318439
  68.2723998  29.7041856 100.3537035  68.1248960  28.7758563 100.5344606
  69.0977492  29.7261946  99.8694111  62.1386242  18.3559923  96.2117528
  62.4782315  18.8845844  95.4896136  62.5858363  18.6940329  96.9876094
  71.8758120  30.5270415 101.4401908  72.8004667  30.3213276 101.3026359
  71.7073423  30.2786816 102.3491250  64.8329683  16.7396974 105.6620596
  64.4926503  15.9404787 106.0641276  64.1268689  17.0398684 105.0897429
  65.4846155  13.8246286 104.1147919  66.3072224  13.3506764 103.9926809
  65.7284218  14.6036770 104.6146605  64.1254389  16.8534544  94.4110820
  64.8462752  17.2315797  93.9074537  63.5019694  17.5723421  94.5145798
  68.2685512  17.5579693  95.3469153  68.4849127  18.4404331  95.0457981
  67.7879579  17.1665907  94.6174795  63.0084734  20.5165407 101.9239897
  62.8629314  20.8305710 102.8164179  62.5309937  21.1350307 101.3710796
  64.8681117  17.5067955 101.9720787  64.8542685  16.6109048 101.6353085
  65.5853545  17.5138618 102.6059073  66.7207247  17.9405295 104.0173914
  66.4625025  18.8622365 104.0158245  66.1892288  17.5435729 104.7074378
  71.6653436  31.0456082  96.7964000  71.8390314  30.4802504  96.0437852
  72.1582327  31.8456977  96.6143490  57.4830396  23.0570751 104.8627559
  56.9383864  23.8330559 104.9947833  58.3609746  23.4041556 104.7046680
  64.2718013  16.3882335  97.2408357  64.3933924  15.4598981  97.4399245
  63.9820055  16.4021021  96.3286672  67.1409203  14.0737245 100.3775077
  67.1630900  14.1376578  99.4227056  67.5577262  13.2341754 100.5715583
  77.5192827  23.8092505  98.4154299  77.9623973  23.0599830  98.0173423
  76.6419338  23.8002641  98.0328031  72.6528609  30.3622846  93.8960898
  73.3479513  30.9829539  94.1148213  72.9951759  29.5118198  94.1713276
  58.2696418  22.1840647 107.7557715  57.5278154  22.3323283 108.3422346
  57.9489162  22.4448913 106.8924465  74.5520032  27.8122552  95.4248229
  75.0771356  28.1509825  94.6997549  74.4642384  26.8769567  95.2411363
  66.2140080  31.7256626 107.5538105  66.5227207  31.4805772 108.4260805
  67.0115562  31.9303264 107.0656976  66.2360692  33.8794535  99.7843482
  65.7965683  33.3870914 100.4776339  66.9868809  33.3367503  99.5435557
  58.7153031  30.0706076  99.7868110  59.5411051  29.7709848  99.4066754
  58.3647083  29.3013698 100.2357899  63.6834565  29.4232544 101.8565784
  63.0614574  28.7603249 101.5568011  64.3539431  29.4493676 101.1739431
  56.9161636  27.9892402 100.7457044  56.0793545  27.5614577 100.5641045
  56.8885282  28.1824846 101.6827835  63.7559092  17.9014332 111.4498290
  63.8047248  18.7776455 111.0676059  64.2981606  17.3591725 110.8769933
  74.2413938  28.4455456 110.7299427  73.4509481  28.4279594 110.1903926
  74.0047292  28.9843749 111.4848463  74.3611813  25.2947922 108.0432155
  74.4109818  25.1297929 108.9847678  74.2525736  24.4275181 107.6530036
  63.2448071  27.9736468  95.3324244  63.3936192  28.6571932  94.6790917
  64.0514515  27.9541558  95.8473700  71.6515575  21.2778850 109.3591462
  72.5525438  21.1385315 109.0675460  71.7263550  21.4433305 110.2989639
  65.9858381  18.6545705 108.2044648  65.1161690  18.9479271 107.9327237
  66.2217861  19.2386150 108.9251912  75.8630010  27.7144863 108.2874177
  75.5714818  28.0774844 109.1237638  75.2502141  27.0011872 108.1087509
  77.0625692  25.2797743 100.8076747  77.8972583  25.7187547 100.9714307
  77.1984821  24.8036396  99.9884993  74.1117198  22.8377478 106.7554235
  74.5871319  23.0305124 105.9473086  73.1882763  22.8936664 106.5097618
  61.0000704  24.0001645  96.3385313  60.7546746  23.0963975  96.5365523
  61.1696619  24.0018796  95.3964791  68.6897414  14.8725322 105.7210069
  69.2079358  15.6086349 105.3956557  68.3352547  15.1789315 106.5556828
  60.2696352  19.7330003  93.8371475  59.5765597  19.8074358  93.1811510
  60.0248104  18.9690346  94.3592991  68.9410009  11.2925604 101.2410965
  69.2211762  10.6248793 101.8671392  69.7260615  11.4854700 100.7285629
  66.7443477  30.4684598  92.8035992  66.1717444  31.0874785  92.3506463
  67.3176271  31.0183960  93.3375914  72.8118867  19.7143238 104.9882540
  73.7636290  19.8141336 105.0094764  72.6422317  18.9221507 105.4980625
  70.8333246  16.7998821 105.1741941  70.2383178  17.0803834 104.4788430
  70.5482943  17.2892722 105.9458682  69.9640737  30.7521748  93.9344574
  70.8971410  30.6867310  94.1377449  69.8763950  31.5878015  93.4759106
  72.5928753  30.0687619  90.8948521  72.5142385  29.7347482  91.7884279
  73.4138420  30.5609386  90.8939994  75.2906945  22.9349358 104.1024840
  75.2583265  21.9965359 104.2884524  75.9007568  23.0133395 103.3690665
  67.1290276  21.8045411  90.1452044  68.0749380  21.6751619  90.2140462
  66.7504520  21.0660073  90.6221472  75.4401433  19.7260401 104.1483123
  74.9240482  18.9418858 103.9613052  76.3241382  19.3979118 104.3129643
  73.1012160  13.4701417 100.1078936  72.9036981  13.1616505 100.9922268
  73.7111866  14.1963056 100.2376866  81.1083494  23.9965365 103.2430877
  81.8386883  23.7350653 103.8038580  80.4990440  23.2594087 103.2832945
  79.1898792  22.1373227 103.8405328  78.4631955  22.0029192 103.2321820
  78.7746078  22.4450056 104.6462046  67.0128968  25.8563157 111.6052701
  67.9331978  26.0341756 111.7992748  66.9778551  24.9119202 111.4532400
  65.3133193  19.7295387  90.0806929  64.4064648  19.4328500  90.1569643
  65.5909174  19.4325205  89.2141216  56.2311133  21.0501751 100.5305976
  55.9113917  20.1967059 100.2380350  55.6844561  21.2650329 101.2863943
  60.0091041  23.7664192 104.2475482  60.2277050  24.6981299 104.2663516
  60.4216814  23.4072166 105.0330286  66.9295258  14.2732277  96.2351171
  66.1195987  13.9279362  96.6106417  67.6179675  13.9639821  96.8238782
  68.8585807  13.3510324  97.8575467  69.4116845  13.7705777  98.5165490
  69.0955893  12.4246072  97.8998423  64.0831977  16.5882322  90.2218908
  64.9451141  16.9137221  90.4814726  64.2682321  15.8013818  89.7091974
  56.0999393  24.6704662 102.4999097  55.4062864  24.2558615 101.9869052
  56.8472384  24.7125199 101.9032516  72.2364614  15.4610849  97.3654131
  71.6563283  16.1195653  96.9832184  71.9700546  14.6388193  96.9541549
  70.6868180  14.8615907  99.5675452  71.1867958  14.9732441  98.7589771
  71.3303788  14.5576959 100.2076260  64.7450176  22.7694536 112.4543293
  64.2617258  23.5694896 112.6607182  64.8311115  22.7802481 111.5010737
  58.0136136  24.6022916 100.3765112  57.9906824  24.7010603  99.4246995
  58.3236772  25.4488067 100.6982278  60.6723513  26.6599071 104.4911727
  61.6266767  26.6283013 104.4241658  60.4736037  26.1989695 105.3061952
  61.2622896  25.2300187 107.0582524  62.0815785  25.7244266 107.0817362
  61.5359703  24.3132155 107.0300092  71.0189492  17.6210939  96.4210480
  70.1315347  17.9060590  96.2030674  71.4343481  17.4604703  95.5737757
  74.3704028  17.6457460 100.1364819  75.1464418  18.1353913 100.4089436
  73.6452162  18.0715514 100.5936688  76.8076587  18.3585079 101.1938760
  77.4021077  18.1180815 100.4832068  76.8803170  17.6392210 101.8212296
  59.0273742  32.2018690 101.5081924  58.8928210  31.4419091 100.9419922
  58.6105805  32.9259590 101.0410713  70.1632705  27.3855614  90.5158500
  70.8668555  27.5905616  91.1316155  69.4395354  27.9532376  90.7807583
  70.9930516  23.1365475  96.6360770  70.9365717  23.5934027  95.7968402
  71.5458858  22.3756160  96.4583613  74.8035321  18.9255207  97.4610889
  74.5472256  18.5251843  98.2919097  74.1788189  19.6399001  97.3361029
  79.1147659  21.6651280  99.9682181  78.5547217  21.7344470 100.7413743
  78.5091163  21.4892265  99.2481677  62.1842868  33.0988007 101.7200367
  62.0675252  34.0433440 101.6179057  61.3635314  32.7961569 102.1086166
  72.0719403  27.8238143  92.5656960  72.9065007  27.3919342  92.3834435
  71.9103746  27.6520157  93.4933854  71.7265295  24.3270256  93.9313299
  71.6714099  24.1614528  92.9901743  71.1011350  25.0346289  94.0875489
  56.5157810  19.5638321 107.7574721  57.1616673  19.0537275 108.2461946
  56.3074961  20.3007002 108.3318147  69.0411202  26.6319168 113.2566862
  69.9102362  26.8059821 112.8953497  68.5617953  27.4513585 113.1342591
  65.0361420  13.8278365  93.5098617  65.0240090  14.7720205  93.6666888
  65.9284842  13.6448511  93.2158079  63.2097382  33.7516269 104.9356296
  64.1124629  33.7839880 105.2522790  62.9834752  32.8216720 104.9502631
  64.9650984  32.5047256 101.5966374  64.0146615  32.5049117 101.4830746
  65.2683470  31.7579990 101.0802409  68.8513540  10.4221142  97.7644554
  68.0845936   9.8679629  97.9101237  69.2624245  10.4943011  98.6258706
  80.7003678  38.3407794 102.6612137  81.3382088  38.2214542 101.9575477
  80.5824521  39.2888638 102.7200089  77.5093384  38.2935222 102.5973661
  77.1711896  38.1776287 101.7094196  78.3783152  37.8926387 102.5774667
  73.3680200  40.1470699  98.5870552  72.8045065  40.0560636  97.8186840
  73.2532595  39.3270603  99.0673045  77.9913167  39.4470074 108.5559867
  77.9801808  39.0522872 107.6840370  78.1533806  38.7136147 109.1493638
  70.9144632  41.6421890 101.4254773  71.7065924  41.3012715 101.0101072
  71.1541282  41.7516865 102.3456926  78.9479758  43.8141666  93.8985017
  78.2967738  44.3995747  93.5119031  79.7424121  44.3447861  93.9580055
  72.8735386  40.9030804  94.2972151  73.6466262  40.3559791  94.1585027
  73.2260784  41.7675053  94.5086613  74.7120428  42.2307186 107.5039051
  74.4210294  43.1352817 107.3885717  75.3477413  42.2723713 108.2183120
  75.6376635  39.6084034 104.0940410  76.2340207  39.3840057 103.3797373
  75.6951607  38.8668780 104.6965858  75.2101663  37.0623470  91.9290601
  75.4627184  36.5404991  91.1674064  74.2726223  36.8989615  92.0317285
  80.2544946  36.0659248  99.7365345  81.0408035  35.6478671  99.3855762
  80.5183651  36.9705340  99.9046993  80.4255024  41.5032098  94.4354001
  79.7900857  41.5766725  95.1474906  80.0952430  42.0925697  93.7573081
  85.6553373  36.0034481 100.6398323  86.3878545  35.4333698 100.8736153
  84.8992729  35.6156082 101.0804829  74.9297952  38.9651576  94.1314976
  74.8134210  38.2896479  94.7996061  75.0400212  38.4783950  93.3147129
  77.2729493  38.4261723  97.8361666  76.9087700  37.8992344  98.5474587
  78.1296609  38.0360192  97.6628151  83.1778794  29.7156055 105.0992932
  82.8462118  30.5851466 104.8754147  82.5824407  29.3992339 105.7786962
  76.9134980  33.4551622  92.8323014  77.0809382  34.3231859  93.1993485
  76.7232149  33.6178904  91.9084303  79.6710313  41.9168601 104.4988844
  79.3711036  42.8193640 104.3904652  79.3261373  41.6500785 105.3509997
  73.1222795  38.3682398 100.5325549  72.1973291  38.2358612 100.7403241
  73.3707208  39.1476617 101.0295491  83.0707457  34.4351142 102.1786282
  82.1624334  34.3666550 101.8845043  83.0195053  34.9123087 103.0068107
  76.8924201  35.9109280  93.8169681  76.7723826  36.3566331  94.6555161
  76.1976789  36.2594598  93.2583219  70.4831606  38.0115672 101.3669338
  70.6123987  38.2650151 102.2808750  69.8029057  38.6043380 101.0473993
  74.6531093  48.6812922  97.4659812  74.5755123  49.6320747  97.5448293
  74.0492737  48.3358794  98.1234738  77.1448323  35.8540787 110.1221179
  76.3681657  36.4134707 110.1124044  77.7838886  36.3397570 110.6436049
  84.9369103  32.6367580 103.9564156  84.2943484  32.9300113 103.3103950
  84.4324032  32.5220500 104.7617352  82.5909267  36.3830753  94.6450015
  83.5027123  36.6158140  94.4697712  82.0818914  36.9667797  94.0825094
  75.3994695  38.6626241 109.6839146  76.1409379  39.2011284 109.4073970
  74.6931681  39.2892529 109.8410698  80.8750035  40.8055381 108.2811308
  81.2833391  40.3637792 107.5365940  80.1527296  40.2308009 108.5345500
  77.2281105  35.7427988 105.6544864  78.0742300  36.1667401 105.7979513
  77.1679742  35.0861612 106.3483428  81.1978849  41.3656572 102.0363596
  80.5687712  41.5302286 101.3339664  80.8104511  41.7798181 102.8074560
  85.0768081  42.3011009  99.3907960  84.3919119  42.6809911  98.8404993
  85.1611931  42.9106336 100.1239908  80.3780550  33.4032356 107.3126038
  80.1341482  34.1574417 106.7760314  80.6540481  33.7817704 108.1473285
  82.3319013  39.9470968 105.9903304  82.5435908  40.5902728 105.3137685
  82.2848761  39.1133285 105.5225234  79.9345242  32.5588789 102.8939876
  79.0729721  32.8570043 103.1856613  79.9607677  32.7759188 101.9620908
  76.7506811  41.1030980  99.3013681  77.2145157  41.3818683  98.5118304
  76.4863609  40.2014424  99.1186772  73.6430892  40.6502461 102.2393445
  74.2132249  41.0789730 101.6010929  74.2339004  40.3685046 102.9377630
  75.6875697  37.2254132  96.1103247  76.3899741  37.6775176  96.5777173
  75.3556326  36.5837951  96.7383140  74.1356059  35.8165889 110.4854456
  73.5054719  36.4982170 110.7189853  74.0292147  35.7048970 109.5407594
  69.4301031  35.4837685 101.4120380  68.6400085  35.7395213 100.9360491
  69.9212279  36.2986023 101.5172421  83.4464841  42.8242924 104.1625661
  84.2682285  42.4223111 103.8808343  83.4427244  42.7211158 105.1141777
  71.3815777  35.8482264  98.3703857  70.5846940  35.9600958  98.8887353
  71.1541369  36.1868916  97.5044747  77.2121444  42.3726967 106.3186372
  77.2765877  42.8347374 107.1544543  76.5032368  41.7424332 106.4468681
  67.7138734  35.7368175 103.8435371  67.9646773  36.6215185 104.1092947
  68.2498283  35.5572777 103.0710463  91.5370834  39.1681672 100.5110632
  90.7834542  38.5989070 100.3554637  91.6718375  39.1344337 101.4581267
  76.9269462  44.0395075  96.1865352  76.7915137  44.8846610  96.6150200
  77.4679274  44.2414352  95.4231286  73.4136802  30.1186655 112.8479707
  73.0203747  29.5652853 113.5227351  74.2302942  30.4297233 113.2386225
  70.3798859  41.5570513  96.7593277  70.8923380  42.3513763  96.9098842
  71.0321572  40.8596803  96.6926878  72.1893744  44.6736269  98.8416030
  72.3660372  45.5954234  98.6537014  72.9850578  44.3594688  99.2710410
  76.3304763  31.5344534 110.4399964  77.0714476  32.1351687 110.3604426
  76.5622685  30.7922171 109.8818006  71.4746101  36.7200901 108.7178193
  71.3599616  35.8186158 109.0185292  70.6190618  36.9664598 108.3663010
  78.5537938  44.6618641 110.3165694  78.1101793  43.8755020 109.9986598
  79.2155152  44.8497792 109.6509585  73.3125060  46.1914443 104.8426372
  73.8632485  46.0631506 104.0703366  72.4736535  46.4909332 104.4921265
  80.6519176  44.9421441 108.3447095  80.6337652  45.7630322 107.8527364
  81.5739096  44.8175516 108.5697236  77.1092231  42.4565571 109.1870604
  77.6420567  41.6953859 108.9569912  76.5806312  42.1639222 109.9294758
  80.2761926  27.5625637 104.7164245  79.9326195  28.4527278 104.6403356
  80.6440888  27.3727294 103.8533830  68.3447776  39.8859167  97.5352847
  69.1822998  40.2956175  97.3186555  68.5226044  38.9458609  97.5053041
  80.2412208  37.5534248  93.2236680  79.7258832  38.3238852  93.4625068
  79.9689517  36.8799384  93.8469742  77.8259319  32.3983948  98.2821919
  76.9700916  32.0090799  98.1027557  78.2386271  32.4775909  97.4221704
  79.3558466  29.9330292 102.6813479  78.8523262  29.8960427 101.8681284
  79.6489073  30.8423034 102.7410135  75.6001352  30.0169021 101.6879660
  76.4654349  29.8211830 101.3285550  75.6678861  29.7879373 102.6149017
  85.2146482  40.3066602  95.1589854  84.4375925  39.9677762  94.7145016
  85.8937963  40.3119225  94.4844819  80.0298511  35.4261340  95.0496462
  79.7248647  35.7407489  95.9006605  80.9828954  35.5042760  95.0923795
  78.4744943  41.5851563  96.6989416  77.9466305  40.8504323  96.3862653
  77.9732446  42.3626239  96.4529384  83.4537789  39.7800584 101.8156462
  82.7961464  40.4699845 101.9036591  84.2578188  40.1697016 102.1590448
  73.2063671  32.2471229  99.0596027  73.7807423  32.0246411  98.3269220
  73.7934653  32.3159924  99.8124628  82.2643248  38.1344956  99.8660404
  82.7775130  38.7674948 100.3682113  82.9144472  37.5346152  99.5003764
  73.5333258  34.2775690  93.0791912  72.6970570  34.6150377  93.4001187
  73.3938028  34.1424670  92.1419049  75.5086339  29.1212478  97.7871097
  74.8550751  28.8061495  97.1627711  75.4666813  28.4988219  98.5130919
  76.6197543  39.4031773  89.7024389  75.7124605  39.1721027  89.9015538
  77.1168575  38.6069393  89.8898370  79.5265622  48.1129281  92.6221075
  78.8527321  48.4160977  93.2306033  79.9131444  48.9158361  92.2726532
  78.7424079  35.6094412 102.1118744  77.8246640  35.8309359 101.9540432
  79.1584223  35.6840722 101.2530451  79.5259127  37.0085828  97.2421424
  80.2730946  37.5207225  96.9328546  79.7950716  36.6869880  98.1025818
  77.7985777  39.5044368  94.2248379  76.8896996  39.2203401  94.3220848
  77.8280861  39.9243447  93.3651686  83.0305044  43.1150958  97.9939546
  82.5767371  42.2741868  98.0504737  82.3999011  43.7512356  98.3314326
  81.9737964  34.0442944  99.2240214  81.2360721  33.5320330  99.5550456
  82.2264737  33.6043325  98.4123491  81.4737984  44.9527454  98.9289364
  81.7660958  45.5132512  98.2101730  81.9836604  45.2456015  99.6842524
  82.0749591  26.8219196  99.8181983  82.3808468  25.9616559  99.5307898
  82.8002196  27.4136816  99.6180977  68.3673947  37.2249882  98.2063581
  68.1698347  36.6319243  97.4814647  67.8120611  36.9202093  98.9239520
  76.3470671  37.1172989 100.3258174  76.4019281  36.1646825 100.2500651
  75.5361873  37.2732428 100.8099472  77.4961865  41.0453112  91.5636457
  77.0581295  40.3288971  91.1042095  78.2372306  41.2729227  91.0021549
  74.2863031  35.7350049  98.0848553  73.4730896  36.0344219  98.4913745
  74.7822025  35.3405737  98.8023035  76.4371609  45.7307806 100.0182818
  76.3947788  45.9568652  99.0891350  77.3534308  45.4971180 100.1668619
  79.8837243  36.1991873 106.9163447  80.2386630  36.4263346 107.7757913
  80.5309374  36.5310250 106.2940702  85.6134979  39.3210309  97.6212776
  85.4752878  39.5111905  96.6933965  85.2571198  40.0829692  98.0780827
  73.7777106  33.3068404 103.7009788  74.4176485  33.1657163 103.0032751
  72.9454636  33.0202917 103.3248390  85.6404359  41.3886836 102.6324047
  86.0740866  41.2962125 103.4807101  86.3535940  41.3644336 101.9944063
  74.5537410  42.6070835  99.8144780  75.3478008  42.1121155  99.6127355
  73.8429102  42.0788698  99.4512486  79.3732254  44.9888930 104.1657148
  79.4269276  45.5579866 104.9334864  78.5047035  45.1590815 103.8011185
  70.8620173  36.7513916  95.8904533  69.9317761  36.6898372  96.1074495
  70.9577645  36.2289869  95.0941174  70.7805722  33.2768729  98.4782775
  71.0412539  34.1914062  98.3691935  71.6022894  32.8093172  98.6279387
  72.2530647  34.6906486 105.6481599  72.9253701  34.4823848 104.9994248
  71.4260434  34.4928572 105.2086831  86.5019909  41.4310537 105.1656933
  86.6955799  42.3356347 105.4116208  86.4020527  40.9717956 105.9995518
  78.1556219  31.3168427 107.6647260  77.5084134  32.0158377 107.5711736
  78.9257235  31.7504571 108.0323508  81.5635017  41.5817279 110.7397813
  81.4120524  41.3527831 109.8227897  81.5539697  42.5387881 110.7529158
  78.3320354  39.1549192 105.7244080  79.2612414  39.3060352 105.5513047
  77.9111384  39.2433213 104.8692726  77.1308686  43.1799857 103.4942617
  76.9919771  42.8118641 104.3668556  76.3423282  43.6947496 103.3226575
  77.7256837  48.2808953  94.8368154  77.9008593  47.8096996  95.6513777
  77.0389625  48.9074719  95.0649415  78.6813901  42.5581459 100.8831455
  78.3463733  42.5182229 101.7789105  78.1817846  41.8926175 100.4101865
  72.6558145  37.9649089 106.4084036  72.5177943  37.2329328 107.0095575
  73.5663068  37.8757989 106.1268224  81.6173092  39.9037494  91.1568515
  81.0002263  39.1784322  91.0601568  81.1489581  40.6646854  90.8135589
  75.2840445  37.6769049 105.8967716  75.9940064  37.0362241 105.8554334
  75.2409753  37.9281943 106.8193897  83.2727224  44.6136402 108.8174295
  83.2139770  43.9295622 108.1504878  83.6746742  45.3555392 108.3654921
  73.9969379  34.6634266 107.7163355  73.4606736  34.2125005 108.3684952
  73.4086088  34.7980175 106.9733820  72.2917923  51.4298316 101.6108014
  72.5314521  52.0616840 102.2887033  71.4487119  51.0786356 101.8973373
  73.4071638  34.1222918  90.2789819  72.5301105  34.0011719  89.9152066
  73.8829391  33.3308996  90.0268708  83.2744631  42.5775986 107.0488275
  82.3871410  42.2401908 107.1714674  83.8443182  41.8459017 107.2857040
  64.9273778  38.9100078 100.3731326  65.6144818  38.5961808  99.7852342
  64.7721907  39.8141442 100.0998578  69.7308500  33.7990274 104.8016350
  69.6466689  33.1915944 104.0666760  68.9091207  34.2899292 104.8025846
  76.8045785  47.2377438 104.0149518  76.7315956  48.0432410 104.5268823
  76.3623178  47.4369404 103.1897539  76.5935564  46.4749208  97.5252340
  75.8103086  47.0170888  97.6190564  77.2928309  46.9923188  97.9246581
  79.9032214  32.2843838 100.1686545  80.4000914  31.5313800  99.8487615
  79.1319196  32.3208154  99.6029754  87.7561972  37.9884203 101.8104837
  87.7451848  38.8708919 101.4398770  86.8879351  37.6355754 101.6159374
  79.2644468  47.1364272 106.1707677  79.9772440  47.7711737 106.0983578
  78.7734497  47.2328138 105.3547679  80.9861995  41.0415525  97.7424968
  80.0518274  41.1616987  97.5729673  81.1638664  40.1387992  97.4784978
  76.4867183  34.4261221  99.8958230  76.1164971  33.8732261 100.5839135
  76.9826276  33.8219354  99.3433230  84.3734546  36.8832844  98.2775003
  84.8394999  37.7160836  98.2035305  84.8242047  36.4177826  98.9820261
  74.3156382  44.8858716 106.9913248  75.0165841  45.5195199 107.1442642
  73.8451497  45.2273447 106.2308887  82.4410778  43.2276665  95.2761155
  82.7170621  43.1133260  96.1855029  81.5715276  42.8294150  95.2373328
  82.3451209  29.2513431 102.3165904  81.4314289  29.4817658 102.4848111
  82.7744311  29.3351875 103.1679936  82.1157668  37.4403323 104.8165798
  81.4629118  37.6879231 104.1618251  82.4938048  36.6267461 104.4828275
  79.0764842  47.4763016  98.9193968  79.2587236  46.6584672  99.3821721
  79.8997828  47.6930709  98.4818858  79.4107007  46.4031201  96.1809017
  79.9394773  45.8923656  95.5679179  79.6735227  46.0873732  97.0454550
  78.1645241  38.1823134 111.3031835  77.4885878  38.0817264 111.9734210
  78.9872875  38.0262348 111.7667832  69.9124100  44.4195071 103.9244350
  70.4977537  43.6738759 104.0572254  69.7148938  44.7299027 104.8081014
  72.7662755  47.4546318  98.9406793  72.0973130  47.9392446  98.4570833
  72.6275625  47.7015539  99.8550171  64.5041754  36.9900671 102.6448793
  64.5425854  36.4564262 103.4385912  63.9982047  36.4635876 102.0259771
  76.9068024  49.4890062 105.5389451  77.4586332  49.6521683 106.3038536
  77.2474217  50.0794499 104.8669476  71.8832517  31.8365211 106.1411336
  71.9473843  32.6980042 105.7288733  71.8199637  31.2239213 105.4083694
  71.3584789  33.9088344 109.7884370  71.9856828  33.5265421 110.4021894
  70.5012708  33.6902546 110.1540062  81.7578898  44.3151319 111.3938105
  82.3018802  44.9281277 110.8993060  81.1765743  44.8730898 111.9105118
  68.1350332  35.7164773  95.7202725  68.4303773  34.8075451  95.6669778
  67.2338368  35.6952513  95.3983727  80.0436411  47.4372037 102.5253133
  79.9187550  46.6361777 102.0164079  80.7015502  47.9318231 102.0367103
  71.6644579  33.7920770 101.7030273  70.9431165  34.4056737 101.5637747
  72.4537835  34.3278534 101.6246919  82.1071319  45.2381057 104.1532683
  81.1601655  45.1186408 104.0811010  82.4554092  44.3503555 104.2358945
  74.4670893  31.1275196 107.9770925  74.9905294  31.3737493 108.7397234
  74.2483226  31.9595231 107.5574062  69.8638174  33.3978871  95.8442050
  69.5350880  32.5176250  95.6617156  70.2177544  33.3426539  96.7318439
  79.1117753  45.0333773 100.3537035  78.9642715  44.1050481 100.5344606
  79.9371246  45.0553864  99.8694111  72.9779997  33.6851841  96.2117528
  73.3176069  34.2137762  95.4896136  73.4252117  34.0232247  96.9876094
  82.7151874  45.8562332 101.4401908  83.6398422  45.6505194 101.3026359
  82.5467178  45.6078733 102.3491250  75.6723438  32.0688891 105.6620596
  75.3320258  31.2696704 106.0641276  74.9662444  32.3690602 105.0897429
  76.3239909  29.1538204 104.1147919  77.1465979  28.6798682 103.9926809
  76.5677973  29.9328687 104.6146605  74.9648144  32.1826462  94.4110820
  75.6856506  32.5607715  93.9074537  74.3413448  32.9015339  94.5145798
  79.1079267  32.8871611  95.3469153  79.3242881  33.7696249  95.0457981
  78.6273334  32.4957825  94.6174795  73.8478488  35.8457324 101.9239897
  73.7023069  36.1597627 102.8164179  73.3703692  36.4642225 101.3710796
  75.7074871  32.8359872 101.9720787  75.6936440  31.9400966 101.6353085
  76.4247299  32.8430536 102.6059073  77.5601002  33.2697213 104.0173914
  77.3018780  34.1914283 104.0158245  77.0286042  32.8727647 104.7074378
  82.5047191  46.3748000  96.7964000  82.6784068  45.8094422  96.0437852
  82.9976082  47.1748895  96.6143490  68.3224150  38.3862669 104.8627559
  67.7777618  39.1622477 104.9947833  69.2003500  38.7333473 104.7046680
  75.1111767  31.7174253  97.2408357  75.2327678  30.7890899  97.4399245
  74.8213809  31.7312939  96.3286672  77.9802957  29.4029163 100.3775077
  78.0024654  29.4668496  99.4227056  78.3971016  28.5633672 100.5715583
  88.3586582  39.1384423  98.4154299  88.8017728  38.3891748  98.0173423
  87.4813092  39.1294559  98.0328031  83.4922363  45.6914764  93.8960898
  84.1873268  46.3121457  94.1148213  83.8345513  44.8410115  94.1713276
  69.1090172  37.5132565 107.7557715  68.3671908  37.6615200 108.3422346
  68.7882917  37.7740831 106.8924465  85.3913786  43.1414470  95.4248229
  85.9165110  43.4801742  94.6997549  85.3036139  42.2061485  95.2411363
  77.0533835  47.0548543 107.5538105  77.3620961  46.8097690 108.4260805
  77.8509317  47.2595182 107.0656976  77.0754447  49.2086453  99.7843482
  76.6359437  48.7162832 100.4776339  77.8262564  48.6659421  99.5435557
  69.5546786  45.3997994  99.7868110  70.3804806  45.1001766  99.4066754
  69.2040838  44.6305616 100.2357899  74.5228319  44.7524462 101.8565784
  73.9008328  44.0895167 101.5568011  75.1933186  44.7785594 101.1739431
  67.7555391  43.3184320 100.7457044  66.9187299  42.8906495 100.5641045
  67.7279036  43.5116764 101.6827835  74.5952847  33.2306250 111.4498290
  74.6441002  34.1068373 111.0676059  75.1375361  32.6883643 110.8769933
  85.0807692  43.7747373 110.7299427  84.2903236  43.7571512 110.1903926
  84.8441047  44.3135667 111.4848463  85.2005567  40.6239840 108.0432155
  85.2503572  40.4589847 108.9847678  85.0919491  39.7567099 107.6530036
  74.0841826  43.3028385  95.3324244  74.2329946  43.9863850  94.6790917
  74.8908269  43.2833475  95.8473700  82.4909330  36.6070768 109.3591462
  83.3919192  36.4677232 109.0675460  82.5657304  36.7725222 110.2989639
  76.8252135  33.9837622 108.2044648  75.9555444  34.2771188 107.9327237
  77.0611615  34.5678067 108.9251912  86.7023764  43.0436781 108.2874177
  86.4108572  43.4066762 109.1237638  86.0895895  42.3303789 108.1087509
  87.9019446  40.6089661 100.8076747  88.7366338  41.0479465 100.9714307
  88.0378575  40.1328314  99.9884993  84.9510952  38.1669396 106.7554235
  85.4265074  38.3597042 105.9473086  84.0276518  38.2228582 106.5097618
  71.8394459  39.3293563  96.3385313  71.5940501  38.4255893  96.5365523
  72.0090373  39.3310713  95.3964791  79.5291169  30.2017239 105.7210069
  80.0473113  30.9378266 105.3956557  79.1746302  30.5081233 106.5556828
  71.1090106  35.0621920  93.8371475  70.4159351  35.1366275  93.1811510
  70.8641858  34.2982264  94.3592991  79.7803763  26.6217522 101.2410965
  80.0605517  25.9540711 101.8671392  80.5654370  26.8146617 100.7285629
  77.5837231  45.7976516  92.8035992  77.0111199  46.4166703  92.3506463
  78.1570025  46.3475877  93.3375914  83.6512621  35.0435156 104.9882540
  84.6030044  35.1433253 105.0094764  83.4816072  34.2513424 105.4980625
  81.6727001  32.1290739 105.1741941  81.0776933  32.4095752 104.4788430
  81.3876698  32.6184640 105.9458682  80.8034491  46.0813666  93.9344574
  81.7365164  46.0159228  94.1377449  80.7157704  46.9169933  93.4759106
  83.4322508  45.3979536  90.8948521  83.3536139  45.0639400  91.7884279
  84.2532175  45.8901304  90.8939994  86.1300699  38.2641276 104.1024840
  86.0977019  37.3257276 104.2884524  86.7401323  38.3425312 103.3690665
  77.9684030  37.1337328  90.1452044  78.9143135  37.0043537  90.2140462
  77.5898275  36.3951990  90.6221472  86.2795188  35.0552319 104.1483123
  85.7634236  34.2710776 103.9613052  87.1635136  34.7271036 104.3129643
  83.9405915  28.7993335 100.1078936  83.7430736  28.4908423 100.9922268
  84.5505620  29.5254973 100.2376866  91.9477249  39.3257282 103.2430877
  92.6780637  39.0642570 103.8038580  91.3384194  38.5886004 103.2832945
  90.0292546  37.4665145 103.8405328  89.3025710  37.3321110 103.2321820
  89.6139833  37.7741974 104.6462046  77.8522723  41.1855075 111.6052701
  78.7725732  41.3633674 111.7992748  77.8172306  40.2411120 111.4532400
  76.1526947  35.0587305  90.0806929  75.2458403  34.7620418  90.1569643
  76.4302928  34.7617123  89.2141216  67.0704888  36.3793668 100.5305976
  66.7507672  35.5258976 100.2380350  66.5238316  36.5942246 101.2863943
  70.8484795  39.0956109 104.2475482  71.0670805  40.0273217 104.2663516
  71.2610569  38.7364084 105.0330286  77.7689013  29.6024195  96.2351171
  76.9589741  29.2571280  96.6106417  78.4573430  29.2931738  96.8238782
  79.6979561  28.6802241  97.8575467  80.2510600  29.0997695  98.5165490
  79.9349648  27.7537990  97.8998423  75.7212660  34.6689315 113.6378231
  75.6209387  35.6183672 113.5690322  75.5034202  34.3407554 112.7654301
  74.9225732  31.9174240  90.2218908  75.7844896  32.2429138  90.4814726
  75.1076076  31.1305736  89.7091974  66.9393148  39.9996580 102.4999097
  66.2456619  39.5850533 101.9869052  67.6866139  40.0417116 101.9032516
  83.0758368  30.7902767  97.3654131  82.4957037  31.4487571  96.9832184
  82.8094301  29.9680111  96.9541549  81.5261935  30.1907824  99.5675452
  82.0261713  30.3024359  98.7589771  82.1697543  29.8868877 100.2076260
  75.5843930  38.0986454 112.4543293  75.1011012  38.8986814 112.6607182
  75.6704869  38.1094399 111.5010737  68.8529890  39.9314834 100.3765112
  68.8300578  40.0302521  99.4246995  69.1630527  40.7779984 100.6982278
  71.5117268  41.9890989 104.4911727  72.4660521  41.9574931 104.4241658
  71.3129792  41.5281612 105.3061952  72.1016650  40.5592105 107.0582524
  72.9209539  41.0536183 107.0817362  72.3753458  39.6424073 107.0300092
  81.8583246  32.9502857  96.4210480  80.9709101  33.2352508  96.2030674
  82.2737235  32.7896620  95.5737757  85.2097782  32.9749378 100.1364819
  85.9858173  33.4645830 100.4089436  84.4845917  33.4007432 100.5936688
  87.6470341  33.6876997 101.1938760  88.2414832  33.4472733 100.4832068
  87.7196925  32.9684128 101.8212296  69.8667497  47.5310608 101.5081924
  69.7321965  46.7711009 100.9419922  69.4499559  48.2551508 101.0410713
  81.0026460  42.7147532  90.5158500  81.7062310  42.9197534  91.1316155
  80.2789109  43.2824293  90.7807583  81.8324270  38.4657393  96.6360770
  81.7759471  38.9225944  95.7968402  82.3852612  37.7048077  96.4583613
  85.6429076  34.2547125  97.4610889  85.3866010  33.8543760  98.2919097
  85.0181944  34.9690919  97.3361029  89.9541414  36.9943198  99.9682181
  89.3940972  37.0636387 100.7413743  89.3484917  36.8184183  99.2481677
  73.0236623  48.4279925 101.7200367  72.9069007  49.3725358 101.6179057
  72.2029069  48.1253487 102.1086166  82.9113157  43.1530061  92.5656960
  83.7458761  42.7211259  92.3834435  82.7497500  42.9812074  93.4933854
  82.5659049  39.6562174  93.9313299  82.5107853  39.4906446  92.9901743
  81.9405105  40.3638207  94.0875489  67.3551564  34.8930238 107.7574721
  68.0010428  34.3829192 108.2461946  67.1468715  35.6298920 108.3318147
  79.8804957  41.9611086 113.2566862  80.7496116  42.1351738 112.8953497
  79.4011708  42.7805503 113.1342591  75.8755175  29.1570283  93.5098617
  75.8633845  30.1012123  93.6666888  76.7678597  28.9740429  93.2158079
  74.0491137  49.0808187 104.9356296  74.9518383  49.1131797 105.2522790
  73.8228507  48.1508638 104.9502631  75.8044739  47.8339174 101.5966374
  74.8540370  47.8341035 101.4830746  76.1077225  47.0871908 101.0802409
  79.6907294  25.7513060  97.7644554  78.9239690  25.1971546  97.9101237
  80.1017999  25.8234929  98.6258706  71.6949055  32.0397856 111.8549736
  72.5580517  31.6834660 112.0653060  71.1214466  31.7011750 112.5425140
  91.5397432  53.6699712 102.6612137  92.1775842  53.5506459 101.9575477
  91.4218275  54.6180556 102.7200089  88.3487139  53.6227140 102.5973661
  88.0105650  53.5068205 101.7094196  89.2176907  53.2218305 102.5774667
  84.2073954  55.4762616  98.5870552  83.6438819  55.3852553  97.8186840
  84.0926349  54.6562521  99.0673045  88.8306922  54.7761992 108.5559867
  88.8195562  54.3814790 107.6840370  88.9927561  54.0428064 109.1493638
  81.7538386  56.9713808 101.4254773  82.5459678  56.6304633 101.0101072
  81.9935036  57.0808783 102.3456926  89.7873513  59.1433584  93.8985017
  89.1361493  59.7287665  93.5119031  90.5817876  59.6739779  93.9580055
  83.7129140  56.2322721  94.2972151  84.4860016  55.6851708  94.1585027
  84.0654539  57.0966971  94.5086613  85.5514183  57.5599104 107.5039051
  85.2604049  58.4644734 107.3885717  86.1871167  57.6015631 108.2183120
  86.4770390  54.9375952 104.0940410  87.0733962  54.7131974 103.3797373
  86.5345361  54.1960698 104.6965858  86.0495418  52.3915387  91.9290601
  86.3020939  51.8696909  91.1674064  85.1119977  52.2281533  92.0317285
  91.0938701  51.3951166  99.7365345  91.8801790  50.9770589  99.3855762
  91.3577405  52.2997258  99.9046993  91.2648778  56.8324016  94.4354001
  90.6294611  56.9058643  95.1474906  90.9346184  57.4217615  93.7573081
  96.4947128  51.3326399 100.6398323  97.2272300  50.7625616 100.8736153
  95.7386484  50.9447999 101.0804829  85.7691707  54.2943493  94.1314976
  85.6527965  53.6188397  94.7996061  85.8793967  53.8075867  93.3147129
  88.1123248  53.7553640  97.8361666  87.7481455  53.2284261  98.5474587
  88.9690363  53.3652110  97.6628151  94.0172548  45.0447973 105.0992932
  93.6855873  45.9143384 104.8754147  93.4218162  44.7284257 105.7786962
  87.7528735  48.7843540  92.8323014  87.9203137  49.6523777  93.1993485
  87.5625904  48.9470822  91.9084303  90.5104068  57.2460519 104.4988844
  90.2104791  58.1485558 104.3904652  90.1655127  56.9792702 105.3509997
  83.9616549  53.6974316 100.5325549  83.0367046  53.5650530 100.7403241
  84.2100962  54.4768535 101.0295491  93.9101212  49.7643059 102.1786282
  93.0018089  49.6958468 101.8845043  93.8588807  50.2415004 103.0068107
  87.7317955  51.2401198  93.8169681  87.6117581  51.6858248  94.6555161
  87.0370544  51.5886515  93.2583219  81.3225360  53.3407589 101.3669338
  81.4517741  53.5942068 102.2808750  80.6422812  53.9335297 101.0473993
  85.4924848  64.0104839  97.4659812  85.4148877  64.9612664  97.5448293
  84.8886491  63.6650712  98.1234738  87.9842077  51.1832705 110.1221179
  87.2075411  51.7426625 110.1124044  88.6232640  51.6689488 110.6436049
  95.7762858  47.9659498 103.9564156  95.1337238  48.2592031 103.3103950
  95.2717786  47.8512418 104.7617352  93.4303022  51.7122671  94.6450015
  94.3420878  51.9450058  94.4697712  92.9212669  52.2959715  94.0825094
  86.2388450  53.9918158 109.6839146  86.9803134  54.5303202 109.4073970
  85.5325435  54.6184447 109.8410698  91.7143789  56.1347299 108.2811308
  92.1227145  55.6929709 107.5365940  90.9921051  55.5599926 108.5345500
  88.0674859  51.0719905 105.6544864  88.9136054  51.4959319 105.7979513
  88.0073497  50.4153530 106.3483428  92.0372604  56.6948489 102.0363596
  91.4081466  56.8594203 101.3339664  91.6498266  57.1090099 102.8074560
  95.9161836  57.6302927  99.3907960  95.2312874  58.0101828  98.8404993
  96.0005685  58.2398254 100.1239908  91.2174305  48.7324274 107.3126038
  90.9735237  49.4866334 106.7760314  91.4934235  49.1109621 108.1473285
  93.1712767  55.2762886 105.9903304  93.3829663  55.9194646 105.3137685
  93.1242516  54.4425203 105.5225234  90.7738996  47.8880707 102.8939876
  89.9123475  48.1861960 103.1856613  90.8001431  48.1051106 101.9620908
  87.5900566  56.4322897  99.3013681  88.0538911  56.7110600  98.5118304
  87.3257364  55.5306342  99.1186772  84.4824647  55.9794379 102.2393445
  85.0526004  56.4081647 101.6010929  85.0732759  55.6976964 102.9377630
  86.5269452  52.5546050  96.1103247  87.2293495  53.0067093  96.5777173
  86.1950080  51.9129869  96.7383140  84.9749813  51.1457806 110.4854456
  84.3448474  51.8274087 110.7189853  84.8685901  51.0340888 109.5407594
  80.2694786  50.8129602 101.4120380  79.4793840  51.0687131 100.9360491
  80.7606033  51.6277940 101.5172421  94.2858595  58.1534842 104.1625661
  95.1076039  57.7515029 103.8808343  94.2820998  58.0503076 105.1141777
  82.2209531  51.1774182  98.3703857  81.4240694  51.2892876  98.8887353
  81.9935123  51.5160834  97.5044747  88.0515199  57.7018885 106.3186372
  88.1159631  58.1639292 107.1544543  87.3426123  57.0716250 106.4468681
  78.5532489  51.0660093 103.8435371  78.8040527  51.9507103 104.1092947
  79.0892037  50.8864694 103.0710463 102.3764588  54.4973590 100.5110632
 101.6228297  53.9280988 100.3554637 102.5112130  54.4636255 101.4581267
  87.7663216  59.3686992  96.1865352  87.6308891  60.2138528  96.6150200
  88.3073029  59.5706270  95.4231286  84.2530556  45.4478572 112.8479707
  83.8597502  44.8944771 113.5227351  85.0696696  45.7589151 113.2386225
  81.2192614  56.8862430  96.7593277  81.7317134  57.6805681  96.9098842
  81.8715327  56.1888721  96.6926878  83.0287499  60.0028187  98.8416030
  83.2054127  60.9246151  98.6537014  83.8244332  59.6886606  99.2710410
  87.1698517  46.8636451 110.4399964  87.9108230  47.4643604 110.3604426
  87.4016440  46.1214089 109.8818006  82.3139855  52.0492819 108.7178193
  82.1993370  51.1478076 109.0185292  81.4584373  52.2956515 108.3663010
  89.3931693  59.9910559 110.3165694  88.9495547  59.2046937 109.9986598
  90.0548906  60.1789709 109.6509585  84.1518814  61.5206360 104.8426372
  84.7026239  61.3923424 104.0703366  83.3130290  61.8201249 104.4921265
  91.4912931  60.2713359 108.3447095  91.4731406  61.0922240 107.8527364
  92.4132851  60.1467434 108.5697236  87.9485985  57.7857488 109.1870604
  88.4814322  57.0245776 108.9569912  87.4200066  57.4931140 109.9294758
  91.1155680  42.8917554 104.7164245  90.7719949  43.7819196 104.6403356
  91.4834643  42.7019212 103.8533830  79.1841531  55.2151085  97.5352847
  80.0216753  55.6248093  97.3186555  79.3619798  54.2750527  97.5053041
  91.0805963  52.8826165  93.2236680  90.5652586  53.6530770  93.4625068
  90.8083271  52.2091302  93.8469742  88.6653074  47.7275866  98.2821919
  87.8094670  47.3382717  98.1027557  89.0780026  47.8067827  97.4221704
  90.1952220  45.2622209 102.6813479  89.6917016  45.2252345 101.8681284
  90.4882827  46.1714952 102.7410135  86.4395106  45.3460939 101.6879660
  87.3048103  45.1503748 101.3285550  86.5072615  45.1171291 102.6149017
  96.0540237  55.6358520  95.1589854  95.2769680  55.2969679  94.7145016
  96.7331718  55.6411143  94.4844819  90.8692266  50.7553257  95.0496462
  90.5642401  51.0699407  95.9006605  91.8222708  50.8334677  95.0923795
  89.3138698  56.9143481  96.6989416  88.7860059  56.1796240  96.3862653
  88.8126200  57.6918157  96.4529384  94.2931544  55.1092501 101.8156462
  93.6355218  55.7991763 101.9036591  95.0971943  55.4988933 102.1590448
  84.0457425  47.5763147  99.0596027  84.6201177  47.3538329  98.3269220
  84.6328408  47.6451842  99.8124628  93.1037003  53.4636874  99.8660404
  93.6168884  54.0966866 100.3682113  93.7538226  52.8638069  99.5003764
  84.3727012  49.6067608  93.0791912  83.5364325  49.9442295  93.4001187
  84.2331782  49.4716588  92.1419049  86.3480093  44.4504396  97.7871097
  85.6944505  44.1353413  97.1627711  86.3060567  43.8280136  98.5130919
  87.4591298  54.7323691  89.7024389  86.5518360  54.5012944  89.9015538
  87.9562330  53.9361310  89.8898370  90.3659377  63.4421198  92.6221075
  89.6921076  63.7452895  93.2306033  90.7525199  64.2450279  92.2726532
  89.5817833  50.9386329 102.1118744  88.6640395  51.1601277 101.9540432
  89.9977977  51.0132640 101.2530451  90.3652881  52.3377745  97.2421424
  91.1124700  52.8499142  96.9328546  90.6344471  52.0161798  98.1025818
  88.6379531  54.8336286  94.2248379  87.7290751  54.5495319  94.3220848
  88.6674615  55.2535364  93.3651686  93.8698799  58.4442875  97.9939546
  93.4161126  57.6033785  98.0504737  93.2392765  59.0804274  98.3314326
  92.8131718  49.3734861  99.2240214  92.0754475  48.8612248  99.5550456
  93.0658492  48.9335243  98.4123491  92.3131738  60.2819372  98.9289364
  92.6054712  60.8424429  98.2101730  92.8230359  60.5747933  99.6842524
  92.9143346  42.1511113  99.8181983  93.2202222  41.2908477  99.5307898
  93.6395950  42.7428734  99.6180977  79.2067702  52.5541800  98.2063581
  79.0092102  51.9611161  97.4814647  78.6514366  52.2494010  98.9239520
  87.1864425  52.4464906 100.3258174  87.2413035  51.4938743 100.2500651
  86.3755627  52.6024346 100.8099472  88.3355619  56.3745030  91.5636457
  87.8975049  55.6580888  91.1042095  89.0766060  56.6021144  91.0021549
  85.1256785  51.0641966  98.0848553  84.3124651  51.3636137  98.4913745
  85.6215780  50.6697655  98.8023035  87.2765363  61.0599723 100.0182818
  87.2341542  61.2860569  99.0891350  88.1928062  60.8263098 100.1668619
  90.7230997  51.5283791 106.9163447  91.0780385  51.7555264 107.7757913
  91.3703128  51.8602168 106.2940702  96.4528734  54.6502227  97.6212776
  96.3146633  54.8403823  96.6933965  96.0964953  55.4121609  98.0780827
  84.6170860  48.6360322 103.7009788  85.2570239  48.4949081 103.0032751
  83.7848391  48.3494835 103.3248390  96.4798114  56.7178754 102.6324047
  96.9134620  56.6254043 103.4807101  97.1929694  56.6936254 101.9944063
  85.3931164  57.9362752  99.8144780  86.1871762  57.4413072  99.6127355
  84.6822856  57.4080615  99.4512486  90.2126008  60.3180848 104.1657148
  90.2663031  60.8871784 104.9334864  89.3440790  60.4882733 103.8011185
  81.7013927  52.0805834  95.8904533  80.7711516  52.0190289  96.1074495
  81.7971399  51.5581787  95.0941174  81.6199477  48.6060647  98.4782775
  81.8806294  49.5205980  98.3691935  82.4416649  48.1385089  98.6279387
  83.0924402  50.0198404 105.6481599  83.7647455  49.8115766 104.9994248
  82.2654188  49.8220490 105.2086831  97.3413663  56.7602454 105.1656933
  97.5349553  57.6648265 105.4116208  97.2414281  56.3009873 105.9995518
  88.9949974  46.6460345 107.6647260  88.3477889  47.3450295 107.5711736
  89.7650989  47.0796489 108.0323508  92.4028772  56.9109197 110.7397813
  92.2514278  56.6819749 109.8227897  92.3933451  57.8679798 110.7529158
  89.1714108  54.4841110 105.7244080  90.1006168  54.6352269 105.5513047
  88.7505138  54.5725131 104.8692726  87.9702440  58.5091774 103.4942617
  87.8313526  58.1410559 104.3668556  87.1817036  59.0239414 103.3226575
  88.5650592  63.6100871  94.8368154  88.7402348  63.1388914  95.6513777
  87.8783380  64.2366637  95.0649415  89.5207655  57.8873377 100.8831455
  89.1857488  57.8474147 101.7789105  89.0211601  57.2218093 100.4101865
  83.4951899  53.2941007 106.4084036  83.3571697  52.5621246 107.0095575
  84.4056823  53.2049907 106.1268224  92.4566847  55.2329411  91.1568515
  91.8396017  54.5076239  91.0601568  91.9883335  55.9938771  90.8135589
  86.1234200  53.0060966 105.8967716  86.8333818  52.3654158 105.8554334
  86.0803508  53.2573861 106.8193897  94.1120978  59.9428320 108.8174295
  94.0533525  59.2587540 108.1504878  94.5140497  60.6847310 108.3654921
  84.8363134  49.9926184 107.7163355  84.3000491  49.5416923 108.3684952
  84.2479842  50.1272093 106.9733820  83.1311677  66.7590233 101.6108014
  83.3708275  67.3908758 102.2887033  82.2880874  66.4078273 101.8973373
  84.2465393  49.4514836  90.2789819  83.3694859  49.3303636  89.9152066
  84.7223146  48.6600914  90.0268708  94.1138386  57.9067904 107.0488275
  93.2265164  57.5693825 107.1714674  94.6836937  57.1750935 107.2857040
  75.7667533  54.2391995 100.3731326  76.4538573  53.9253725  99.7852342
  75.6115662  55.1433360 100.0998578  80.5702255  49.1282192 104.8016350
  80.4860444  48.5207861 104.0666760  79.7484961  49.6191210 104.8025846
  87.6439539  62.5669356 104.0149518  87.5709711  63.3724327 104.5268823
  87.2016932  62.7661322 103.1897539  87.4329319  61.8041126  97.5252340
  86.6496841  62.3462806  97.6190564  88.1322064  62.3215106  97.9246581
  90.7425969  47.6135755 100.1686545  91.2394668  46.8605718  99.8487615
  89.9712950  47.6500072  99.6029754  98.5955726  53.3176121 101.8104837
  98.5845602  54.2000836 101.4398770  97.7273106  52.9647672 101.6159374
  90.1038223  62.4656190 106.1707677  90.8166195  63.1003655 106.0983578
  89.6128251  62.5620056 105.3547679  91.8255750  56.3707443  97.7424968
  90.8912028  56.4908905  97.5729673  92.0032418  55.4679909  97.4784978
  87.3260938  49.7553138  99.8958230  86.9558725  49.2024179 100.5839135
  87.8220030  49.1511272  99.3433230  95.2128301  52.2124762  98.2775003
  95.6788753  53.0452753  98.2035305  95.6635801  51.7469743  98.9820261
  85.1550136  60.2150633 106.9913248  85.8559596  60.8487116 107.1442642
  84.6845251  60.5565365 106.2308887  93.2804532  58.5568583  95.2761155
  93.5564376  58.4425178  96.1855029  92.4109031  58.1586068  95.2373328
  93.1844964  44.5805349 102.3165904  92.2708043  44.8109576 102.4848111
  93.6138065  44.6643793 103.1679936  92.9551422  52.7695241 104.8165798
  92.3022872  53.0171148 104.1618251  93.3331802  51.9559379 104.4828275
  89.9158596  62.8054934  98.9193968  90.0980991  61.9876590  99.3821721
  90.7391582  63.0222626  98.4818858  90.2500762  61.7323119  96.1809017
  90.7788528  61.2215574  95.5679179  90.5128981  61.4165649  97.0454550
  89.0038995  53.5115052 111.3031835  88.3279632  53.4109181 111.9734210
  89.8266629  53.3554266 111.7667832  80.7517854  59.7486988 103.9244350
  81.3371291  59.0030676 104.0572254  80.5542693  60.0590945 104.8081014
  83.6056509  62.7838236  98.9406793  82.9366885  63.2684363  98.4570833
  83.4669379  63.0307456  99.8550171  75.3435509  52.3192589 102.6448793
  75.3819608  51.7856179 103.4385912  74.8375802  51.7927794 102.0259771
  87.7461778  64.8181979 105.5389451  88.2980086  64.9813601 106.3038536
  88.0867971  65.4086417 104.8669476  82.7226271  47.1657129 106.1411336
  82.7867598  48.0271960 105.7288733  82.6593392  46.5531131 105.4083694
  82.1978544  49.2380262 109.7884370  82.8250583  48.8557339 110.4021894
  81.3406463  49.0194464 110.1540062  92.5972652  59.6443237 111.3938105
  93.1412556  60.2573195 110.8993060  92.0159497  60.2022815 111.9105118
  78.9744087  51.0456691  95.7202725  79.2697528  50.1367369  95.6669778
  78.0732122  51.0244430  95.3983727  90.8830165  62.7663955 102.5253133
  90.7581305  61.9653695 102.0164079  91.5409256  63.2610148 102.0367103
  82.5038334  49.1212687 101.7030273  81.7824919  49.7348655 101.5637747
  83.2931589  49.6570452 101.6246919  92.9465074  60.5672975 104.1532683
  91.9995409  60.4478326 104.0811010  93.2947847  59.6795473 104.2358945
  85.3064647  46.4567114 107.9770925  85.8299049  46.7029410 108.7397234
  85.0876980  47.2887149 107.5574062  80.7031928  48.7270788  95.8442050
  80.3744634  47.8468167  95.6617156  81.0571299  48.6718457  96.7318439
  89.9511507  60.3625691 100.3537035  89.8036469  59.4342399 100.5344606
  90.7765001  60.3845782  99.8694111  83.8173751  49.0143758  96.2117528
  84.1569824  49.5429679  95.4896136  84.2645872  49.3524164  96.9876094
  93.5545629  61.1854250 101.4401908  94.4792176  60.9797111 101.3026359
  93.3860932  60.9370651 102.3491250  86.5117192  47.3980809 105.6620596
  86.1714012  46.5988622 106.0641276  85.8056198  47.6982520 105.0897429
  87.1633664  44.4830121 104.1147919  87.9859733  44.0090600 103.9926809
  87.4071727  45.2620605 104.6146605  85.8041898  47.5118380  94.4110820
  86.5250261  47.8899633  93.9074537  85.1807203  48.2307257  94.5145798
  89.9473021  48.2163529  95.3469153  90.1636636  49.0988167  95.0457981
  89.4667088  47.8249742  94.6174795  84.6872243  51.1749242 101.9239897
  84.5416823  51.4889545 102.8164179  84.2097446  51.7934142 101.3710796
  86.5468626  48.1651790 101.9720787  86.5330194  47.2692883 101.6353085
  87.2641054  48.1722454 102.6059073  88.3994756  48.5989130 104.0173914
  88.1412534  49.5206201 104.0158245  87.8679797  48.2019565 104.7074378
  93.3440945  61.7039917  96.7964000  93.5177823  61.1386340  96.0437852
  93.8369836  62.5040812  96.6143490  79.1617905  53.7154586 104.8627559
  78.6171373  54.4914394 104.9947833  80.0397255  54.0625391 104.7046680
  85.9505522  47.0466170  97.2408357  86.0721433  46.1182816  97.4399245
  85.6607564  47.0604856  96.3286672  88.8196712  44.7321081 100.3775077
  88.8418409  44.7960414  99.4227056  89.2364771  43.8925589 100.5715583
  99.1980336  54.4676340  98.4154299  99.6411482  53.7183665  98.0173423
  98.3206847  54.4586477  98.0328031  94.3316118  61.0206682  93.8960898
  95.0267022  61.6413374  94.1148213  94.6739268  60.1702033  94.1713276
  79.9483927  52.8424483 107.7557715  79.2065663  52.9907118 108.3422346
  79.6276671  53.1032748 106.8924465  96.2307541  58.4706387  95.4248229
  96.7558865  58.8093660  94.6997549  96.1429893  57.5353403  95.2411363
  87.8927589  62.3840461 107.5538105  88.2014716  62.1389608 108.4260805
  88.6903071  62.5887099 107.0656976  87.9148201  64.5378371  99.7843482
  87.4753192  64.0454749 100.4776339  88.6656318  63.9951338  99.5435557
  80.3940540  60.7289911  99.7868110  81.2198560  60.4293683  99.4066754
  80.0434592  59.9597534 100.2357899  85.3622074  60.0816380 101.8565784
  84.7402083  59.4187085 101.5568011  86.0326940  60.1077512 101.1739431
  78.5949145  58.6476238 100.7457044  77.7581054  58.2198412 100.5641045
  78.5672791  58.8408681 101.6827835  85.4346601  48.5598168 111.4498290
  85.4834757  49.4360290 111.0676059  85.9769115  48.0175561 110.8769933
  95.9201447  59.1039291 110.7299427  95.1296990  59.0863430 110.1903926
  95.6834801  59.6427585 111.4848463  96.0399322  55.9531757 108.0432155
  96.0897327  55.7881765 108.9847678  95.9313245  55.0859016 107.6530036
  84.9235580  58.6320303  95.3324244  85.0723701  59.3155767  94.6790917
  85.7302024  58.6125393  95.8473700  93.3303084  51.9362685 109.3591462
  94.2312947  51.7969150 109.0675460  93.4051059  52.1017140 110.2989639
  87.6645889  49.3129540 108.2044648  86.7949199  49.6063106 107.9327237
  87.9005370  49.8969985 108.9251912  97.5417519  58.3728699 108.2874177
  97.2502327  58.7358679 109.1237638  96.9289650  57.6595707 108.1087509
  98.7413201  55.9381579 100.8076747  99.5760092  56.3771383 100.9714307
  98.8772330  55.4620232  99.9884993  95.7904707  53.4961313 106.7554235
  96.2658828  53.6888960 105.9473086  94.8670272  53.5520499 106.5097618
  82.6788213  54.6585481  96.3385313  82.4334255  53.7547811  96.5365523
  82.8484128  54.6602631  95.3964791  90.3684923  45.5309157 105.7210069
  90.8866867  46.2670184 105.3956557  90.0140056  45.8373150 106.5556828
  81.9483861  50.3913838  93.8371475  81.2553106  50.4658193  93.1811510
  81.7035613  49.6274182  94.3592991  90.6197517  41.9509440 101.2410965
  90.8999271  41.2832629 101.8671392  91.4048124  42.1438535 100.7285629
  88.4230986  61.1268433  92.8035992  87.8504953  61.7458621  92.3506463
  88.9963780  61.6767795  93.3375914  94.4906376  50.3727073 104.9882540
  95.4423799  50.4725171 105.0094764  94.3209826  49.5805342 105.4980625
  92.5120755  47.4582657 105.1741941  91.9170687  47.7387669 104.4788430
  92.2270452  47.9476558 105.9458682  91.6428246  61.4105584  93.9344574
  92.5758919  61.3451145  94.1377449  91.5551459  62.2461850  93.4759106
  94.2716262  60.7271454  90.8948521  94.1929894  60.3931317  91.7884279
  95.0925929  61.2193222  90.8939994  96.9694454  53.5933193 104.1024840
  96.9370774  52.6549194 104.2884524  97.5795077  53.6717230 103.3690665
  88.8077784  52.4629246  90.1452044  89.7536889  52.3335454  90.2140462
  88.4292029  51.7243908  90.6221472  97.1188942  50.3844237 104.1483123
  96.6027991  49.6002693 103.9613052  98.0028891  50.0562953 104.3129643
  94.7799669  44.1285252 100.1078936  94.5824490  43.8200340 100.9922268
  95.3899375  44.8546891 100.2376866 102.7871003  54.6549200 103.2430877
 103.5174392  54.3934488 103.8038580 102.1777949  53.9177922 103.2832945
 100.8686301  52.7957063 103.8405328 100.1419464  52.6613028 103.2321820
 100.4533587  53.1033891 104.6462046  88.6916477  56.5146992 111.6052701
  89.6119486  56.6925591 111.7992748  88.6566060  55.5703038 111.4532400
  86.9920702  50.3879223  90.0806929  86.0852157  50.0912335  90.1569643
  87.2696683  50.0909041  89.2141216  77.9098642  51.7085586 100.5305976
  77.5901426  50.8550894 100.2380350  77.3632070  51.9234164 101.2863943
  81.6878550  54.4248027 104.2475482  81.9064559  55.3565135 104.2663516
  82.1004323  54.0656001 105.0330286  88.6082767  44.9316112  96.2351171
  87.7983496  44.5863197  96.6106417  89.2967184  44.6223656  96.8238782
  90.5373316  44.0094159  97.8575467  91.0904354  44.4289612  98.5165490
  90.7743402  43.0829907  97.8998423  86.5606415  49.9981233 113.6378231
  86.4603142  50.9475590 113.5690322  86.3427957  49.6699472 112.7654301
  85.7619486  47.2466158  90.2218908  86.6238650  47.5721056  90.4814726
  85.9469830  46.4597654  89.7091974  77.7786902  55.3288497 102.4999097
  77.0850373  54.9142450 101.9869052  78.5259893  55.3709034 101.9032516
  93.9152123  46.1194684  97.3654131  93.3350792  46.7779488  96.9832184
  93.6488055  45.2972029  96.9541549  92.3655689  45.5199742  99.5675452
  92.8655467  45.6316276  98.7589771  93.0091297  45.2160795 100.2076260
  86.4237685  53.4278372 112.4543293  85.9404767  54.2278732 112.6607182
  86.5098624  53.4386316 111.5010737  79.6923645  55.2606751 100.3765112
  79.6694333  55.3594439  99.4246995  80.0024281  56.1071902 100.6982278
  82.3511022  57.3182906 104.4911727  83.3054276  57.2866849 104.4241658
  82.1523546  56.8573530 105.3061952  82.9410405  55.8884022 107.0582524
  83.7603294  56.3828101 107.0817362  83.2147212  54.9715990 107.0300092
  92.6977001  48.2794775  96.4210480  91.8102856  48.5644425  96.2030674
  93.1130990  48.1188538  95.5737757  96.0491537  48.3041296 100.1364819
  96.8251927  48.7937748 100.4089436  95.3239671  48.7299350 100.5936688
  98.4864096  49.0168915 101.1938760  99.0808586  48.7764651 100.4832068
  98.5590679  48.2976045 101.8212296  80.7061251  62.8602526 101.5081924
  80.5715719  62.1002927 100.9419922  80.2893313  63.5843426 101.0410713
  91.8420214  58.0439449  90.5158500  92.5456064  58.2489452  91.1316155
  91.1182863  58.6116211  90.7807583  92.6718025  53.7949311  96.6360770
  92.6153226  54.2517862  95.7968402  93.2246367  53.0339995  96.4583613
  96.4822830  49.5839042  97.4610889  96.2259765  49.1835678  98.2919097
  95.8575698  50.2982836  97.3361029 100.7935168  52.3235116  99.9682181
 100.2334726  52.3928305 100.7413743 100.1878672  52.1476100  99.2481677
  83.8630377  63.7571843 101.7200367  83.7462761  64.7017275 101.6179057
  83.0422823  63.4545404 102.1086166  93.7506912  58.4821978  92.5656960
  94.5852516  58.0503177  92.3834435  93.5891255  58.3103992  93.4933854
  93.4052804  54.9854092  93.9313299  93.3501608  54.8198363  92.9901743
  92.7798859  55.6930125  94.0875489  78.1945319  50.2222156 107.7574721
  78.8404182  49.7121110 108.2461946  77.9862470  50.9590838 108.3318147
  90.7198711  57.2903004 113.2566862  91.5889871  57.4643656 112.8953497
  90.2405462  58.1097420 113.1342591  86.7148929  44.4862201  93.5098617
  86.7027599  45.4304041  93.6666888  87.6072351  44.3032346  93.2158079
  84.8884891  64.4100105 104.9356296  85.7912138  64.4423715 105.2522790
  84.6622261  63.4800556 104.9502631  86.6438493  63.1631091 101.5966374
  85.6934124  63.1632953 101.4830746  86.9470979  62.4163826 101.0802409
  90.5301049  41.0804977  97.7644554  89.7633445  40.5263464  97.9101237
  90.9411754  41.1526846  98.6258706  82.5342810  47.3689773 111.8549736
  83.3974271  47.0126578 112.0653060  81.9608220  47.0303668 112.5425140
 102.3791187  68.9991630 102.6612137 103.0169597  68.8798377 101.9575477
 102.2612030  69.9472474 102.7200089  99.1880893  68.9519058 102.5973661
  98.8499405  68.8360122 101.7094196 100.0570661  68.5510223 102.5774667
  95.0467709  70.8054534  98.5870552  94.4832574  70.7144471  97.8186840
  94.9320104  69.9854439  99.0673045  99.6700676  70.1053909 108.5559867
  99.6589317  69.7106708 107.6840370  99.8321315  69.3719982 109.1493638
  92.5932141  72.3005726 101.4254773  93.3853433  71.9596550 101.0101072
  92.8328791  72.4100701 102.3456926 100.6267267  74.4725502  93.8985017
  99.9755247  75.0579582  93.5119031 101.4211630  75.0031697  93.9580055
  94.5522895  71.5614639  94.2972151  95.3253771  71.0143626  94.1585027
  94.9048293  72.4258888  94.5086613  96.3907937  72.8891021 107.5039051
  96.0997803  73.7936652 107.3885717  97.0264921  72.9307549 108.2183120
  97.3164144  70.2667870 104.0940410  97.9127716  70.0423892 103.3797373
  97.3739116  69.5252615 104.6965858  96.8889172  67.7207305  91.9290601
  97.1414693  67.1988826  91.1674064  95.9513731  67.5573451  92.0317285
 101.9332455  66.7243083  99.7365345 102.7195544  66.3062507  99.3855762
 102.1971160  67.6289176  99.9046993 102.1042533  72.1615934  94.4354001
 101.4688366  72.2350560  95.1474906 101.7739939  72.7509533  93.7573081
 107.3340882  66.6618317 100.6398323 108.0666054  66.0917533 100.8736153
 106.5780238  66.2739917 101.0804829  96.6085461  69.6235411  94.1314976
  96.4921719  68.9480314  94.7996061  96.7187721  69.1367785  93.3147129
  98.9517002  69.0845558  97.8361666  98.5875209  68.5576179  98.5474587
  99.8084118  68.6944027  97.6628151 104.8566303  60.3739891 105.0992932
 104.5249627  61.2435302 104.8754147 104.2611916  60.0576175 105.7786962
  98.5922489  64.1135458  92.8323014  98.7596891  64.9815694  93.1993485
  98.4019658  64.2762740  91.9084303 101.3497822  72.5752437 104.4988844
 101.0498545  73.4777476 104.3904652 101.0048882  72.3084620 105.3509997
  94.8010304  69.0266234 100.5325549  93.8760800  68.8942448 100.7403241
  95.0494717  69.8060453 101.0295491 104.7494966  65.0934977 102.1786282
 103.8411843  65.0250385 101.8845043 104.6982562  65.5706922 103.0068107
  98.5711710  66.5693115  93.8169681  98.4511335  67.0150166  94.6555161
  97.8764298  66.9178433  93.2583219  92.1619115  68.6699507 101.3669338
  92.2911496  68.9233986 102.2808750  91.4816566  69.2627215 101.0473993
  96.3318602  79.3396757  97.4659812  96.2542632  80.2904582  97.5448293
  95.7280246  78.9942630  98.1234738  98.8235832  66.5124623 110.1221179
  98.0469166  67.0718543 110.1124044  99.4626395  66.9981405 110.6436049
 106.6156612  63.2951415 103.9564156 105.9730993  63.5883948 103.3103950
 106.1111541  63.1804336 104.7617352 104.2696776  67.0414589  94.6450015
 105.1814632  67.2741975  94.4697712 103.7606423  67.6251633  94.0825094
  97.0782204  69.3210076 109.6839146  97.8196888  69.8595120 109.4073970
  96.3719190  69.9476365 109.8410698 102.5537544  71.4639216 108.2811308
 102.9620900  71.0221627 107.5365940 101.8314805  70.8891844 108.5345500
  98.9068614  66.4011823 105.6544864  99.7529809  66.8251237 105.7979513
  98.8467251  65.7445447 106.3483428 102.8766358  72.0240407 102.0363596
 102.2475221  72.1886121 101.3339664 102.4892020  72.4382017 102.8074560
 106.7555590  72.9594845  99.3907960 106.0706628  73.3393746  98.8404993
 106.8399440  73.5690171 100.1239908 102.0568059  64.0616191 107.3126038
 101.8128991  64.8158252 106.7760314 102.3327990  64.4401539 108.1473285
 104.0106522  70.6054804 105.9903304 104.2223417  71.2486564 105.3137685
 103.9636270  69.7717120 105.5225234 101.6132751  63.2172624 102.8939876
 100.7517230  63.5153878 103.1856613 101.6395186  63.4343023 101.9620908
  98.4294320  71.7614815  99.3013681  98.8932666  72.0402518  98.5118304
  98.1651118  70.8598260  99.1186772  95.3218401  71.3086297 102.2393445
  95.8919758  71.7373565 101.6010929  95.9126513  71.0268881 102.9377630
  97.3663206  67.8837967  96.1103247  98.0687250  68.3359011  96.5777173
  97.0343835  67.2421786  96.7383140  95.8143568  66.4749724 110.4854456
  95.1842228  67.1566005 110.7189853  95.7079656  66.3632806 109.5407594
  91.1088540  66.1421520 101.4120380  90.3187594  66.3979049 100.9360491
  91.5999788  66.9569858 101.5172421 105.1252350  73.4826759 104.1625661
 105.9469794  73.0806947 103.8808343 105.1214753  73.3794993 105.1141777
  93.0603286  66.5066099  98.3703857  92.2634449  66.6184794  98.8887353
  92.8328878  66.8452752  97.5044747  98.8908953  73.0310803 106.3186372
  98.9553386  73.4931210 107.1544543  98.1819877  72.4008167 106.4468681
  89.3926243  66.3952011 103.8435371  89.6434282  67.2799020 104.1092947
  89.9285792  66.2156612 103.0710463 113.2158343  69.8265508 100.5110632
 112.4622051  69.2572906 100.3554637 113.3505884  69.7928172 101.4581267
  98.6056971  74.6978910  96.1865352  98.4702646  75.5430446  96.6150200
  99.1466783  74.8998188  95.4231286  95.0924311  60.7770490 112.8479707
  94.6991256  60.2236688 113.5227351  95.9090451  61.0881068 113.2386225
  92.0586368  72.2154348  96.7593277  92.5710889  73.0097598  96.9098842
  92.7109081  71.5180639  96.6926878  93.8681253  75.3320104  98.8416030
  94.0447881  76.2538069  98.6537014  94.6638087  75.0178524  99.2710410
  98.0092272  62.1928369 110.4399964  98.7501985  62.7935522 110.3604426
  98.2410194  61.4506007 109.8818006  93.1533610  67.3784736 108.7178193
  93.0387125  66.4769993 109.0185292  92.2978127  67.6248433 108.3663010
 100.2325447  75.3202477 110.3165694  99.7889302  74.5338855 109.9986598
 100.8942661  75.5081627 109.6509585  94.9912568  76.8498278 104.8426372
  95.5419994  76.7215342 104.0703366  94.1524044  77.1493167 104.4921265
 102.3306685  75.6005276 108.3447095 102.3125161  76.4214158 107.8527364
 103.2526605  75.4759352 108.5697236  98.7879740  73.1149406 109.1870604
  99.3208076  72.3537694 108.9569912  98.2593821  72.8223058 109.9294758
 101.9549435  58.2209472 104.7164245 101.6113704  59.1111114 104.6403356
 102.3228397  58.0311130 103.8533830  90.0235285  70.5443002  97.5352847
  90.8610507  70.9540011  97.3186555  90.2013553  69.6042445  97.5053041
 101.9199717  68.2118083  93.2236680 101.4046341  68.9822688  93.4625068
 101.6477026  67.5383219  93.8469742  99.5046828  63.0567784  98.2821919
  98.6488425  62.6674634  98.1027557  99.9173780  63.1359745  97.4221704
 101.0345975  60.5914127 102.6813479 100.5310770  60.5544262 101.8681284
 101.3276582  61.5006870 102.7410135  97.2788861  60.6752857 101.6879660
  98.1441858  60.4795665 101.3285550  97.3466370  60.4463209 102.6149017
 106.8933991  70.9650438  95.1589854 106.1163434  70.6261597  94.7145016
 107.5725472  70.9703061  94.4844819 101.7086020  66.0845175  95.0496462
 101.4036156  66.3991324  95.9006605 102.6616463  66.1626595  95.0923795
 100.1532452  72.2435398  96.6989416  99.6253814  71.5088158  96.3862653
  99.6519955  73.0210075  96.4529384 105.1325298  70.4384419 101.8156462
 104.4748973  71.1283680 101.9036591 105.9365697  70.8280851 102.1590448
  94.8851180  62.9055065  99.0596027  95.4594932  62.6830246  98.3269220
  95.4722162  62.9743759  99.8124628 103.9430757  68.7928792  99.8660404
 104.4562639  69.4258783 100.3682113 104.5931981  68.1929987  99.5003764
  95.2120767  64.9359526  93.0791912  94.3758079  65.2734212  93.4001187
  95.0725537  64.8008506  92.1419049  97.1873848  59.7796314  97.7871097
  96.5338260  59.4645331  97.1627711  97.1454322  59.1572054  98.5130919
  98.2985052  70.0615609  89.7024389  97.3912114  69.8304862  89.9015538
  98.7956084  69.2653228  89.8898370 101.2053131  78.7713116  92.6221075
 100.5314830  79.0744813  93.2306033 101.5918953  79.5742196  92.2726532
 100.4211588  66.2678247 102.1118744  99.5034149  66.4893194 101.9540432
 100.8371732  66.3424558 101.2530451 101.2046636  67.6669663  97.2421424
 101.9518455  68.1791060  96.9328546 101.4738225  67.3453716  98.1025818
  99.4773286  70.1628204  94.2248379  98.5684505  69.8787236  94.3220848
  99.5068370  70.5827282  93.3651686 104.7092553  73.7734793  97.9939546
 104.2554880  72.9325703  98.0504737 104.0786520  74.4096191  98.3314326
 103.6525473  64.7026779  99.2240214 102.9148230  64.1904165  99.5550456
 103.9052246  64.2627161  98.4123491 103.1525493  75.6111290  98.9289364
 103.4448467  76.1716347  98.2101730 103.6624113  75.9039851  99.6842524
 103.7537100  57.4803031  99.8181983 104.0595977  56.6200395  99.5307898
 104.4789705  58.0720651  99.6180977  90.0461456  67.8833718  98.2063581
  89.8485856  67.2903078  97.4814647  89.4908120  67.5785928  98.9239520
  98.0258180  67.7756824 100.3258174  98.0806790  66.8230661 100.2500651
  97.2149382  67.9316263 100.8099472  99.1749374  71.7036947  91.5636457
  98.7368804  70.9872806  91.1042095  99.9159815  71.9313062  91.0021549
  95.9650540  66.3933884  98.0848553  95.1518405  66.6928054  98.4913745
  96.4609534  65.9989573  98.8023035  98.1159118  76.3891641 100.0182818
  98.0735297  76.6152487  99.0891350  99.0321817  76.1555015 100.1668619
 101.5624752  66.8575708 106.9163447 101.9174139  67.0847182 107.7757913
 102.2096883  67.1894085 106.2940702 107.2922488  69.9794144  97.6212776
 107.1540387  70.1695740  96.6933965 106.9358707  70.7413527  98.0780827
  95.4564615  63.9652239 103.7009788  96.0963994  63.8240999 103.0032751
  94.6242145  63.6786753 103.3248390 107.3191868  72.0470671 102.6324047
 107.7528375  71.9545960 103.4807101 108.0323449  72.0228172 101.9944063
  96.2324918  73.2654670  99.8144780  97.0265517  72.7704990  99.6127355
  95.5216611  72.7372533  99.4512486 101.0519763  75.6472765 104.1657148
 101.1056785  76.2163702 104.9334864 100.1834544  75.8174650 103.8011185
  92.5407682  67.4097752  95.8904533  91.6105270  67.3482207  96.1074495
  92.6365154  66.8873704  95.0941174  92.4593231  63.9352564  98.4782775
  92.7200048  64.8497898  98.3691935  93.2810403  63.4677007  98.6279387
  93.9318156  65.3490322 105.6481599  94.6041210  65.1407684 104.9994248
  93.1047943  65.1512408 105.2086831 108.1807418  72.0894372 105.1656933
 108.3743308  72.9940182 105.4116208 108.0808036  71.6301791 105.9995518
  99.8343728  61.9752263 107.6647260  99.1871643  62.6742212 107.5711736
 100.6044744  62.4088406 108.0323508 103.2422526  72.2401115 110.7397813
 103.0908033  72.0111666 109.8227897 103.2327206  73.1971716 110.7529158
 100.0107863  69.8133027 105.7244080 100.9399923  69.9644187 105.5513047
  99.5898893  69.9017048 104.8692726  98.8096194  73.8383692 103.4942617
  98.6707280  73.4702476 104.3668556  98.0210791  74.3531331 103.3226575
  99.4044346  78.9392788  94.8368154  99.5796102  78.4680832  95.6513777
  98.7177134  79.5658555  95.0649415 100.3601410  73.2165295 100.8831455
 100.0251242  73.1766065 101.7789105  99.8605355  72.5510010 100.4101865
  94.3345654  68.6232925 106.4084036  94.1965452  67.8913163 107.0095575
  95.2450577  68.5341825 106.1268224 103.2960601  70.5621329  91.1568515
 102.6789772  69.8368157  91.0601568 102.8277090  71.3230689  90.8135589
  96.9627954  68.3352884 105.8967716  97.6727573  67.6946076 105.8554334
  96.9197262  68.5865779 106.8193897 104.9514733  75.2720237 108.8174295
 104.8927279  74.5879457 108.1504878 105.3534251  76.0139227 108.3654921
  95.6756888  65.3218102 107.7163355  95.1394245  64.8708840 108.3684952
  95.0873597  65.4564011 106.9733820  93.9705432  82.0882151 101.6108014
  94.2102030  82.7200675 102.2887033  93.1274628  81.7370191 101.8973373
  95.0859147  64.7806753  90.2789819  94.2088614  64.6595554  89.9152066
  95.5616900  63.9892831  90.0268708 104.9532140  73.2359821 107.0488275
 104.0658919  72.8985743 107.1714674 105.5230691  72.5042852 107.2857040
  86.6061287  69.5683913 100.3731326  87.2932327  69.2545643  99.7852342
  86.4509416  70.4725278 100.0998578  91.4096009  64.4574109 104.8016350
  91.3254198  63.8499779 104.0666760  90.5878716  64.9483128 104.8025846
  98.4833294  77.8961274 104.0149518  98.4103465  78.7016245 104.5268823
  98.0410687  78.0953239 103.1897539  98.2723073  77.1333044  97.5252340
  97.4890595  77.6754724  97.6190564  98.9715818  77.6507023  97.9246581
 101.5819723  62.9427673 100.1686545 102.0788423  62.1897635  99.8487615
 100.8106705  62.9791990  99.6029754 109.4349481  68.6468039 101.8104837
 109.4239357  69.5292754 101.4398770 108.5666860  68.2939589 101.6159374
 100.9431977  77.7948108 106.1707677 101.6559949  78.4295572 106.0983578
 100.4522006  77.8911974 105.3547679 102.6649504  71.6999360  97.7424968
 101.7305783  71.8200823  97.5729673 102.8426172  70.7971827  97.4784978
  98.1654692  65.0845056  99.8958230  97.7952480  64.5316096 100.5839135
  98.6613785  64.4803189  99.3433230 106.0522055  67.5416680  98.2775003
 106.5182508  68.3744671  98.2035305 106.5029556  67.0761661  98.9820261
  95.9943891  75.5442551 106.9913248  96.6953350  76.1779034 107.1442642
  95.5239006  75.8857283 106.2308887 104.1198286  73.8860501  95.2761155
 104.3958130  73.7717095  96.1855029 103.2502785  73.4877986  95.2373328
 104.0238718  59.9097267 102.3165904 103.1101798  60.1401493 102.4848111
 104.4531820  59.9935711 103.1679936 103.7945177  68.0987158 104.8165798
 103.1416627  68.3463066 104.1618251 104.1725557  67.2851297 104.4828275
 100.7552351  78.1346852  98.9193968 100.9374745  77.3168508  99.3821721
 101.5785337  78.3514544  98.4818858 101.0894516  77.0615037  96.1809017
 101.6182282  76.5507491  95.5679179 101.3522736  76.7457567  97.0454550
  99.8432750  68.8406970 111.3031835  99.1673387  68.7401099 111.9734210
 100.6660384  68.6846183 111.7667832  91.5911609  75.0778906 103.9244350
  92.1765046  74.3322594 104.0572254  91.3936447  75.3882863 104.8081014
  94.4450264  78.1130153  98.9406793  93.7760639  78.5976281  98.4570833
  94.3063134  78.3599374  99.8550171  86.1829263  67.6484506 102.6448793
  86.2213363  67.1148097 103.4385912  85.6769556  67.1219712 102.0259771
  98.5855533  80.1473897 105.5389451  99.1373841  80.3105518 106.3038536
  98.9261726  80.7378335 104.8669476  93.5620026  62.4949047 106.1411336
  93.6261352  63.3563878 105.7288733  93.4987146  61.8823048 105.4083694
  93.0372298  64.5672179 109.7884370  93.6644337  64.1849257 110.4021894
  92.1800217  64.3486381 110.1540062  89.8137841  66.3748608  95.7202725
  90.1091282  65.4659287  95.6669778  88.9125877  66.3536348  95.3983727
 101.7223920  78.0955873 102.5253133 101.5975059  77.2945612 102.0164079
 102.3803011  78.5902066 102.0367103  93.3432088  64.4504605 101.7030273
  92.6218674  65.0640573 101.5637747  94.1325344  64.9862370 101.6246919
 103.7858828  75.8964893 104.1532683 102.8389164  75.7770244 104.0811010
 104.1341601  75.0087391 104.2358945  96.1458402  61.7859032 107.9770925
  96.6692803  62.0321328 108.7397234  95.9270735  62.6179066 107.5574062
  91.5425683  64.0562706  95.8442050  91.2138389  63.1760085  95.6617156
  91.8965053  64.0010375  96.7318439 100.7905261  75.6917609 100.3537035
 100.6430224  74.7634316 100.5344606 101.6158755  75.7137700  99.8694111
  94.6567506  64.3435676  96.2117528  94.9963578  64.8721597  95.4896136
  95.1039626  64.6816082  96.9876094 104.3939383  76.5146168 101.4401908
 105.3185931  76.3089029 101.3026359 104.2254687  76.2662569 102.3491250
  97.3510947  62.7272727 105.6620596  97.0107767  61.9280540 106.0641276
  96.6449953  63.0274437 105.0897429  98.0027418  59.8122039 104.1147919
  98.8253488  59.3382517 103.9926809  98.2465482  60.5912523 104.6146605
  96.6435653  62.8410297  94.4110820  97.3644015  63.2191550  93.9074537
  96.0200957  63.5599174  94.5145798 100.7866776  63.5455446  95.3469153
 101.0030390  64.4280084  95.0457981 100.3060843  63.1541660  94.6174795
  95.5265997  66.5041160 101.9239897  95.3810578  66.8181463 102.8164179
  95.0491201  67.1226060 101.3710796  97.3862380  63.4943708 101.9720787
  97.3723949  62.5984801 101.6353085  98.1034808  63.5014371 102.6059073
  99.2388511  63.9281048 104.0173914  98.9806289  64.8498119 104.0158245
  98.7073551  63.5311482 104.7074378 104.1834700  77.0331835  96.7964000
 104.3571577  76.4678257  96.0437852 104.6763591  77.8332730  96.6143490
  90.0011659  69.0446504 104.8627559  89.4565127  69.8206312 104.9947833
  90.8791009  69.3917309 104.7046680  96.7899276  62.3758088  97.2408357
  96.9115187  61.4474734  97.4399245  96.5001318  62.3896774  96.3286672
  99.6590466  60.0612998 100.3775077  99.6812163  60.1252331  99.4227056
 100.0758525  59.2217507 100.5715583 110.0374091  69.7968258  98.4154299
 110.4805237  69.0475583  98.0173423 109.1600601  69.7878394  98.0328031
 105.1709872  76.3498599  93.8960898 105.8660777  76.9705292  94.1148213
 105.5133022  75.4993951  94.1713276  90.7877681  68.1716400 107.7557715
  90.0459417  68.3199036 108.3422346  90.4670425  68.4324666 106.8924465
 107.0701295  73.7998305  95.4248229 107.5952619  74.1385578  94.6997549
 106.9823648  72.8645320  95.2411363  98.7321344  77.7132379 107.5538105
  99.0408470  77.4681525 108.4260805  99.5296826  77.9179017 107.0656976
  98.7541956  79.8670288  99.7843482  98.3146946  79.3746667 100.4776339
  99.5050073  79.3243256  99.5435557  91.2334295  76.0581829  99.7868110
  92.0592315  75.7585601  99.4066754  90.8828347  75.2889452 100.2357899
  96.2015828  75.4108297 101.8565784  95.5795837  74.7479002 101.5568011
  96.8720695  75.4369429 101.1739431  89.4342900  73.9768156 100.7457044
  88.5974808  73.5490330 100.5641045  89.4066545  74.1700599 101.6827835
  96.2740356  63.8890085 111.4498290  96.3228511  64.7652208 111.0676059
  96.8162870  63.3467478 110.8769933 106.8793076  71.2823675 108.0432155
 106.9291081  71.1173682 108.9847678 106.7707000  70.4150934 107.6530036
  95.7629335  73.9612221  95.3324244  95.9117455  74.6447685  94.6790917
  96.5695778  73.9417311  95.8473700 104.1696839  67.2654603 109.3591462
 105.0706701  67.1261068 109.0675460 104.2444813  67.4309058 110.2989639
  98.5039644  64.6421458 108.2044648  97.6342953  64.9355024 107.9327237
  98.7399124  65.2261903 108.9251912 108.3811273  73.7020616 108.2874177
 108.0896081  74.0650597 109.1237638 107.7683404  72.9887625 108.1087509
 109.5806955  71.2673496 100.8076747 110.4153847  71.7063300 100.9714307
 109.7166084  70.7912149  99.9884993 106.6298461  68.8253231 106.7554235
 107.1052583  69.0180877 105.9473086 105.7064027  68.8812417 106.5097618
  93.5181968  69.9877398  96.3385313  93.2728010  69.0839728  96.5365523
  93.6877882  69.9894549  95.3964791 101.2078678  60.8601075 105.7210069
 101.7260622  61.5962102 105.3956557 100.8533811  61.1665068 106.5556828
  92.7877615  65.7205756  93.8371475  92.0946860  65.7950111  93.1811510
  92.5429367  64.9566099  94.3592991 101.4591272  57.2801357 101.2410965
 101.7393026  56.6124546 101.8671392 102.2441879  57.4730453 100.7285629
  99.2624740  76.4560351  92.8035992  98.6898708  77.0750538  92.3506463
  99.8357534  77.0059713  93.3375914 105.3300130  65.7018991 104.9882540
 106.2817553  65.8017089 105.0094764 105.1603581  64.9097260 105.4980625
 103.3514510  62.7874574 105.1741941 102.7564442  63.0679587 104.4788430
 103.0664207  63.2768475 105.9458682 102.4822000  76.7397501  93.9344574
 103.4152673  76.6743063  94.1377449 102.3945213  77.5753768  93.4759106
 105.1110017  76.0563372  90.8948521 105.0323648  75.7223235  91.7884279
 105.9319684  76.5485139  90.8939994 107.8088208  68.9225111 104.1024840
 107.7764528  67.9841112 104.2884524 108.4188832  69.0009148 103.3690665
  99.6471539  67.7921164  90.1452044 100.5930644  67.6627372  90.2140462
  99.2685784  67.0535826  90.6221472 107.9582697  65.7136154 104.1483123
 107.4421745  64.9294611 103.9613052 108.8422645  65.3854871 104.3129643
 105.6193424  59.4577170 100.1078936 105.4218245  59.1492258 100.9922268
 106.2293129  60.1838809 100.2376866 113.6264758  69.9841118 103.2430877
 114.3568146  69.7226406 103.8038580 113.0171703  69.2469840 103.2832945
 111.7080055  68.1248980 103.8405328 110.9813219  67.9904945 103.2321820
 111.2927342  68.4325809 104.6462046  99.5310232  71.8438910 111.6052701
 100.4513241  72.0217509 111.7992748  99.4959815  70.8994955 111.4532400
  97.8314456  65.7171140  90.0806929  96.9245912  65.4204253  90.1569643
  98.1090437  65.4200958  89.2141216  88.7492397  67.0377504 100.5305976
  88.4295181  66.1842812 100.2380350  88.2025825  67.2526082 101.2863943
  92.5272304  69.7539945 104.2475482  92.7458314  70.6857052 104.2663516
  92.9398078  69.3947919 105.0330286  99.4476522  60.2608030  96.2351171
  98.6377250  59.9155115  96.6106417 100.1360939  59.9515574  96.8238782
 101.3767070  59.3386077  97.8575467 101.9298109  59.7581530  98.5165490
 101.6137157  58.4121825  97.8998423  97.4000169  65.3273150 113.6378231
  97.2996896  66.2767507 113.5690322  97.1821711  64.9991389 112.7654301
  96.6013241  62.5758075  90.2218908  97.4632405  62.9012974  90.4814726
  96.7863585  61.7889571  89.7091974  88.6180657  70.6580415 102.4999097
  87.9244128  70.2434368 101.9869052  89.3653648  70.7000952 101.9032516
 104.7545877  61.4486602  97.3654131 104.1744546  62.1071406  96.9832184
 104.4881810  60.6263946  96.9541549 103.2049444  60.8491660  99.5675452
 103.7049222  60.9608194  98.7589771 103.8485052  60.5452712 100.2076260
  97.2631439  68.7570289 112.4543293  96.7798521  69.5570649 112.6607182
  97.3492378  68.7678234 111.5010737  90.5317399  70.5898669 100.3765112
  90.5088087  70.6886356  99.4246995  90.8418036  71.4363820 100.6982278
  93.1904777  72.6474824 104.4911727  94.1448030  72.6158766 104.4241658
  92.9917301  72.1865448 105.3061952  93.7804159  71.2175940 107.0582524
  94.5997048  71.7120019 107.0817362  94.0540967  70.3007908 107.0300092
 103.5370755  63.6086692  96.4210480 102.6496610  63.8936343  96.2030674
 103.9524744  63.4480456  95.5737757 106.8885291  63.6333213 100.1364819
 107.6645682  64.1229666 100.4089436 106.1633426  64.0591267 100.5936688
 109.3257850  64.3460832 101.1938760 109.9202341  64.1056568 100.4832068
 109.3984434  63.6267963 101.8212296  91.5455006  78.1894443 101.5081924
  91.4109474  77.4294844 100.9419922  91.1287068  78.9135343 101.0410713
 102.6813969  73.3731367  90.5158500 103.3849819  73.5781369  91.1316155
 101.9576617  73.9408129  90.7807583 103.5111779  69.1241228  96.6360770
 103.4546980  69.5809780  95.7968402 104.0640121  68.3631913  96.4583613
 107.3216585  64.9130960  97.4610889 107.0653519  64.5127596  98.2919097
 106.6969453  65.6274754  97.3361029 111.6328923  67.6527033  99.9682181
 111.0728481  67.7220223 100.7413743 111.0272426  67.4768018  99.2481677
  94.7024132  79.0863760 101.7200367  94.5856516  80.0309193 101.6179057
  93.8816578  78.7837322 102.1086166 104.5900666  73.8113896  92.5656960
 105.4246270  73.3795095  92.3834435 104.4285009  73.6395910  93.4933854
 104.2446558  70.3146009  93.9313299 104.1895362  70.1490281  92.9901743
 103.6192614  71.0222042  94.0875489  89.0339073  65.5514074 107.7574721
  89.6797937  65.0413028 108.2461946  88.8256224  66.2882755 108.3318147
  97.5542684  59.8154118  93.5098617  97.5421354  60.7595958  93.6666888
  98.4466106  59.6324264  93.2158079  95.7278646  79.7392022 104.9356296
  96.6305892  79.7715633 105.2522790  95.5016016  78.8092473 104.9502631
  97.4832248  78.4923009 101.5966374  96.5327879  78.4924870 101.4830746
  97.7864734  77.7455743 101.0802409 101.3694803  56.4096895  97.7644554
 100.6027199  55.8555382  97.9101237 101.7805508  56.4818764  98.6258706
  93.3736564  62.6981691 111.8549736  94.2368026  62.3418496 112.0653060
  92.8001975  62.3595586 112.5425140 110.0274648  84.2810975 102.5973661
 109.6893159  84.1652040 101.7094196 110.8964416  83.8802140 102.5774667
 105.8861463  86.1346452  98.5870552 105.3226328  86.0436389  97.8186840
 105.7713858  85.3146356  99.0673045 103.4325895  87.6297643 101.4254773
 104.2247187  87.2888468 101.0101072 103.6722545  87.7392618 102.3456926
 111.4661022  89.8017419  93.8985017 110.8149002  90.3871500  93.5119031
 112.2605385  90.3323614  93.9580055 105.3916649  86.8906557  94.2972151
 106.1647525  86.3435544  94.1585027 105.7442048  87.7550806  94.5086613
 107.7282927  83.0499223  91.9290601 107.9808448  82.5280744  91.1674064
 106.7907486  82.8865368  92.0317285 112.7726210  82.0535001  99.7365345
 113.5589299  81.6354424  99.3855762 113.0364914  82.9581093  99.9046993
 112.9436287  87.4907851  94.4354001 112.3082120  87.5642478  95.1474906
 112.6133693  88.0801450  93.7573081 118.1734637  81.9910234 100.6398323
 118.9059809  81.4209451 100.8736153 117.4173993  81.6031835 101.0804829
 107.4479216  84.9527329  94.1314976 107.3315474  84.2772232  94.7996061
 107.5581476  84.4659703  93.3147129 109.7910757  84.4137476  97.8361666
 109.4268964  83.8868097  98.5474587 110.6477872  84.0235945  97.6628151
 115.6960057  75.7031808 105.0992932 115.3643382  76.5727219 104.8754147
 115.1005671  75.3868092 105.7786962 109.4316244  79.4427376  92.8323014
 109.5990646  80.3107612  93.1993485 109.2413413  79.6054657  91.9084303
 105.6404058  84.3558151 100.5325549 104.7154555  84.2234365 100.7403241
 105.8888471  85.1352371 101.0295491 109.4105464  81.8985033  93.8169681
 109.2905090  82.3442084  94.6555161 108.7158053  82.2470351  93.2583219
 103.0012869  83.9991425 101.3669338 103.1305250  84.2525904 102.2808750
 102.3210321  84.5919133 101.0473993 107.1712357  94.6688675  97.4659812
 107.0936386  95.6196500  97.5448293 106.5674000  94.3234547  98.1234738
 115.1090531  82.3706506  94.6450015 116.0208387  82.6033893  94.4697712
 114.6000178  82.9543550  94.0825094 112.4526505  78.5464542 102.8939876
 111.5910984  78.8445796 103.1856613 112.4788940  78.7634941 101.9620908
 109.2688075  87.0906733  99.3013681 109.7326420  87.3694436  98.5118304
 109.0044873  86.1890177  99.1186772 106.1612156  86.6378214 102.2393445
 106.7313513  87.0665483 101.6010929 106.7520268  86.3560799 102.9377630
 108.2056961  83.2129885  96.1103247 108.9081004  83.6650929  96.5777173
 107.8737589  82.5713704  96.7383140 101.9482295  81.4713438 101.4120380
 101.1581349  81.7270966 100.9360491 102.4393542  82.2861776 101.5172421
 103.8997040  81.8358017  98.3703857 103.1028203  81.9476711  98.8887353
 103.6722632  82.1744669  97.5044747 100.2319998  81.7243928 103.8435371
 100.4828036  82.6090938 104.1092947 100.7679546  81.5448530 103.0710463
 109.4450725  90.0270828  96.1865352 109.3096400  90.8722363  96.6150200
 109.9860538  90.2290105  95.4231286 102.8980123  87.5446266  96.7593277
 103.4104643  88.3389516  96.9098842 103.5502836  86.8472556  96.6926878
 104.7075008  90.6612022  98.8416030 104.8841636  91.5829987  98.6537014
 105.5031841  90.3470441  99.2710410 112.7943189  73.5501390 104.7164245
 112.4507458  74.4403031 104.6403356 113.1622152  73.3603047 103.8533830
 100.8629040  85.8734920  97.5352847 101.7004262  86.2831928  97.3186555
 101.0407307  84.9334362  97.5053041 112.7593472  83.5410001  93.2236680
 112.2440095  84.3114605  93.4625068 112.4870780  82.8675137  93.8469742
 110.3440583  78.3859701  98.2821919 109.4882179  77.9966552  98.1027557
 110.7567535  78.4651662  97.4221704 111.8739729  75.9206045 102.6813479
 111.3704525  75.8836180 101.8681284 112.1670336  76.8298787 102.7410135
 108.1182615  76.0044774 101.6879660 108.9835612  75.8087583 101.3285550
 108.1860124  75.7755126 102.6149017 117.7327746  86.2942355  95.1589854
 116.9557189  85.9553515  94.7145016 118.4119227  86.2994979  94.4844819
 112.5479775  81.4137093  95.0496462 112.2429910  81.7283242  95.9006605
 113.5010217  81.4918513  95.0923795 110.9926207  87.5727316  96.6989416
 110.4647568  86.8380076  96.3862653 110.4913709  88.3501992  96.4529384
 105.7244934  78.2346982  99.0596027 106.2988686  78.0122164  98.3269220
 106.3115917  78.3035677  99.8124628 114.7824512  84.1220709  99.8660404
 115.2956393  84.7550701 100.3682113 115.4325735  83.5221905  99.5003764
 106.0514521  80.2651443  93.0791912 105.2151834  80.6026130  93.4001187
 105.9119291  80.1300423  92.1419049 108.0267602  75.1088231  97.7871097
 107.3732014  74.7937248  97.1627711 107.9848076  74.4863972  98.5130919
 109.1378807  85.3907526  89.7024389 108.2305869  85.1596780  89.9015538
 109.6349839  84.5945146  89.8898370 112.0446886  94.1005034  92.6221075
 111.3708585  94.4036730  93.2306033 112.4312708  94.9034114  92.2726532
 111.2605342  81.5970165 102.1118744 110.3427904  81.8185112 101.9540432
 111.6765486  81.6716475 101.2530451 112.0440390  82.9961581  97.2421424
 112.7912209  83.5082978  96.9328546 112.3131980  82.6745633  98.1025818
 110.3167040  85.4920121  94.2248379 109.4078260  85.2079154  94.3220848
 110.3462124  85.9119200  93.3651686 114.4919227  80.0318697  99.2240214
 113.7541984  79.5196083  99.5550456 114.7446001  79.5919078  98.4123491
 114.5930855  72.8094949  99.8181983 114.8989731  71.9492312  99.5307898
 115.3183459  73.4012569  99.6180977 100.8855211  83.2125635  98.2063581
 100.6879611  82.6194996  97.4814647 100.3301875  82.9077846  98.9239520
 108.8651934  83.1048742 100.3258174 108.9200544  82.1522578 100.2500651
 108.0543136  83.2608181 100.8099472 110.0143128  87.0328865  91.5636457
 109.5762558  86.3164724  91.1042095 110.7553569  87.2604980  91.0021549
 106.8044294  81.7225802  98.0848553 105.9912160  82.0219972  98.4913745
 107.3003289  81.3281490  98.8023035 118.1316243  85.3086062  97.6212776
 117.9934142  85.4987658  96.6933965 117.7752462  86.0705445  98.0780827
 106.2958369  79.2944157 103.7009788 106.9357748  79.1532916 103.0032751
 105.4635900  79.0078671 103.3248390 107.0718673  88.5946588  99.8144780
 107.8659271  88.0996908  99.6127355 106.3610365  88.0664451  99.4512486
 103.3801436  82.7389669  95.8904533 102.4499025  82.6774125  96.1074495
 103.4758908  82.2165622  95.0941174 103.2986985  79.2644482  98.4782775
 103.5593803  80.1789815  98.3691935 104.1204158  78.7968925  98.6279387
 104.7711911  80.6782239 105.6481599 105.4434964  80.4699601 104.9994248
 103.9441697  80.4804325 105.2086831 110.2438101  94.2684706  94.8368154
 110.4189857  93.7972749  95.6513777 109.5570889  94.8950472  95.0649415
 114.1354356  85.8913247  91.1568515 113.5183526  85.1660075  91.0601568
 113.6670844  86.6522607  90.8135589 105.9252902  80.1098671  90.2789819
 105.0482368  79.9887472  89.9152066 106.4010655  79.3184749  90.0268708
  97.4455042  84.8975831 100.3731326  98.1326082  84.5837561  99.7852342
  97.2903171  85.8017195 100.0998578 102.2489764  79.7866027 104.8016350
 102.1647953  79.1791697 104.0666760 101.4272470  80.2775045 104.8025846
 109.1116828  92.4624961  97.5252340 108.3284350  93.0046641  97.6190564
 109.8109573  92.9798941  97.9246581 112.4213478  78.2719591 100.1686545
 112.9182177  77.5189553  99.8487615 111.6500459  78.3083907  99.6029754
 113.5043259  87.0291278  97.7424968 112.5699537  87.1492740  97.5729673
 113.6819927  86.1263745  97.4784978 109.0048447  80.4136974  99.8958230
 108.6346234  79.8608014 100.5839135 109.5007539  79.8095107  99.3433230
 116.8915810  82.8708597  98.2775003 117.3576262  83.7036589  98.2035305
 117.3423310  82.4053579  98.9820261 114.9592041  89.2152418  95.2761155
 115.2351885  89.1009013  96.1855029 114.0896540  88.8169903  95.2373328
 114.8632473  75.2389184 102.3165904 113.9495552  75.4693411 102.4848111
 115.2925574  75.3227628 103.1679936 111.9288270  92.3906954  96.1809017
 112.4576037  91.8799409  95.5679179 112.1916490  92.0749485  97.0454550
  97.0223018  82.9776424 102.6448793  97.0607117  82.4440015 103.4385912
  96.5163311  82.4511629 102.0259771 104.4013780  77.8240964 106.1411336
 104.4655107  78.6855795 105.7288733 104.3380900  77.2114966 105.4083694
 100.6531596  81.7040526  95.7202725 100.9485037  80.7951205  95.6669778
  99.7519631  81.6828266  95.3983727 104.1825843  79.7796523 101.7030273
 103.4612428  80.3932490 101.5637747 104.9719098  80.3154288 101.6246919
 102.3819437  79.3854624  95.8442050 102.0532143  78.5052003  95.6617156
 102.7358808  79.3302292  96.7318439 105.4961260  79.6727594  96.2117528
 105.8357333  80.2013515  95.4896136 105.9433381  80.0108000  96.9876094
 108.1904701  78.0564644 105.6620596 107.8501521  77.2572457 106.0641276
 107.4843707  78.3566355 105.0897429 108.8421173  75.1413957 104.1147919
 109.6647242  74.6674435 103.9926809 109.0859236  75.9204440 104.6146605
 107.4829407  78.1702215  94.4110820 108.2037770  78.5483468  93.9074537
 106.8594712  78.8891092  94.5145798 111.6260530  78.8747364  95.3469153
 111.8424145  79.7572002  95.0457981 111.1454597  78.4833578  94.6174795
 106.3659752  81.8333077 101.9239897 106.2204332  82.1473380 102.8164179
 105.8884955  82.4517978 101.3710796 108.2256135  78.8235625 101.9720787
 108.2117703  77.9276719 101.6353085 108.9428563  78.8306289 102.6059073
 110.0782265  79.2572966 104.0173914 109.8200043  80.1790036 104.0158245
 109.5467306  78.8603400 104.7074378 100.8405414  84.3738422 104.8627559
 100.2958882  85.1498230 104.9947833 101.7184764  84.7209226 104.7046680
 107.6293030  77.7050006  97.2408357 107.7508942  76.7766652  97.4399245
 107.3395073  77.7188692  96.3286672 110.4984221  75.3904916 100.3775077
 110.5205918  75.4544249  99.4227056 110.9152280  74.5509425 100.5715583
 116.0103627  91.6790517  93.8960898 116.7054531  92.2997210  94.1148213
 116.3526777  90.8285868  94.1713276 117.9095050  89.1290223  95.4248229
 118.4346374  89.4677495  94.6997549 117.8217402  88.1937238  95.2411363
 102.0728049  91.3873747  99.7868110 102.8986069  91.0877519  99.4066754
 101.7222101  90.6181369 100.2357899 100.2736654  89.3060073 100.7457044
  99.4368563  88.8782248 100.5641045 100.2460300  89.4992517 101.6827835
 106.6023089  89.2904138  95.3324244 106.7511210  89.9739603  94.6790917
 107.4089533  89.2709228  95.8473700 104.3575722  85.3169316  96.3385313
 104.1121764  84.4131646  96.5365523 104.5271637  85.3186466  95.3964791
 112.0472432  76.1892992 105.7210069 112.5654376  76.9254019 105.3956557
 111.6927565  76.4956986 106.5556828 103.6271370  81.0497674  93.8371475
 102.9340615  81.1242029  93.1811510 103.3823122  80.2858017  94.3592991
 112.2985026  72.6093275 101.2410965 112.5786780  71.9416464 101.8671392
 113.0835633  72.8022370 100.7285629 110.1018495  91.7852269  92.8035992
 109.5292462  92.4042456  92.3506463 110.6751289  92.3351630  93.3375914
 113.3215755  92.0689419  93.9344574 114.2546428  92.0034981  94.1377449
 113.2338968  92.9045686  93.4759106 115.9503771  91.3855289  90.8948521
 115.8717403  91.0515153  91.7884279 116.7713438  91.8777057  90.8939994
 110.4865293  83.1213082  90.1452044 111.4324398  82.9919290  90.2140462
 110.1079538  82.3827743  90.6221472 116.4587178  74.7869088 100.1078936
 116.2611999  74.4784176 100.9922268 117.0686884  75.5130726 100.2376866
 108.6708211  81.0463058  90.0806929 107.7639666  80.7496171  90.1569643
 108.9484192  80.7492876  89.2141216  99.5886151  82.3669421 100.5305976
  99.2688935  81.5134730 100.2380350  99.0419579  82.5817999 101.2863943
 103.3666059  85.0831862 104.2475482 103.5852068  86.0148970 104.2663516
 103.7791832  84.7239837 105.0330286 110.2870276  75.5899948  96.2351171
 109.4771005  75.2447033  96.6106417 110.9754693  75.2807491  96.8238782
 112.2160825  74.6677994  97.8575467 112.7691863  75.0873448  98.5165490
 112.4530911  73.7413743  97.8998423 107.4406995  77.9049993  90.2218908
 108.3026159  78.2304891  90.4814726 107.6257339  77.1181489  89.7091974
  99.4574411  85.9872333 102.4999097  98.7637882  85.5726286 101.9869052
 100.2047402  86.0292869 101.9032516 115.5939632  76.7778520  97.3654131
 115.0138301  77.4363324  96.9832184 115.3275564  75.9555864  96.9541549
 114.0443198  76.1783577  99.5675452 114.5442976  76.2900112  98.7589771
 114.6878806  75.8744630 100.2076260 101.3711154  85.9190587 100.3765112
 101.3481842  86.0178274  99.4246995 101.6811790  86.7655737 100.6982278
 114.3764510  78.9378610  96.4210480 113.4890365  79.2228261  96.2030674
 114.7918499  78.7772373  95.5737757 117.7279046  78.9625131 100.1364819
 118.5039436  79.4521583 100.4089436 117.0027180  79.3883185 100.5936688
 120.1651604  79.6752750 101.1938760 120.7596095  79.4348486 100.4832068
 120.2378188  78.9559881 101.8212296 113.5207723  88.7023285  90.5158500
 114.2243573  88.9073287  91.1316155 112.7970372  89.2700047  90.7807583
 114.3505533  84.4533146  96.6360770 114.2940735  84.9101697  95.7968402
 114.9033876  83.6923830  96.4583613 118.1610339  80.2422878  97.4610889
 117.9047274  79.8419513  98.2919097 117.5363207  80.9566672  97.3361029
 115.4294421  89.1405814  92.5656960 116.2640025  88.7087012  92.3834435
 115.2678764  88.9687828  93.4933854 115.0840313  85.6437927  93.9313299
 115.0289117  85.4782199  92.9901743 114.4586368  86.3513960  94.0875489
  99.8732828  80.8805992 107.7574721 100.5191691  80.3704945 108.2461946
  99.6649979  81.6174673 108.3318147 108.3936438  75.1446036  93.5098617
 108.3815108  76.0887876  93.6666888 109.2859860  74.9616182  93.2158079
 112.2088558  71.7388813  97.7644554 111.4420954  71.1847299  97.9101237
 112.6199263  71.8110682  98.6258706 116.8908276  95.5943361  93.0791912
 116.0545588  95.9318048  93.4001187 116.7513046  95.4592341  92.1419049
 116.7646656  95.4390589  90.2789819 115.8876122  95.3179389  89.9152066
 117.2404409  94.6476667  90.0268708 114.4665124  96.3789591  93.8371475
 113.7734369  96.4533946  93.1811510 114.2216876  95.6149935  94.3592991
 119.5101965  96.3754976  90.0806929 118.6033421  96.0788088  90.1569643
 119.7877946  96.0784794  89.2141216 118.2800750  93.2341911  90.2218908
 119.1419914  93.5596809  90.4814726 118.4651094  92.4473407  89.7091974
 119.2330193  90.4737954  93.5098617 119.2208863  91.4179794  93.6666888
 120.1253615  90.2908099  93.2158079  52.9743585  -4.9708791  84.1905119
  52.8967615  -4.0200966  84.2693599  52.3705229  -5.3162919  84.8480045
  50.6130415  -2.2223397  88.3353321  50.8527013  -1.5904873  89.0132339
  49.7699612  -2.5735357  88.6218680  51.0875247  -6.1975395  85.6652099
  50.4185622  -5.7129267  85.1816139  50.9488117  -5.9506174  86.5795478
  55.2280516  -4.1631651  92.2634758  55.7798824  -4.0000030  93.0283843
  55.5686709  -3.5727213  91.5914782  55.3966939  -4.4435260  86.5088789
  54.9571929  -4.9358881  87.2021645  56.1475056  -4.9862292  86.2680864
  48.1879989  -6.1211105  88.2327231  48.0534457  -6.8810704  87.6665229
  47.7712051  -5.3970205  87.7656020  51.3449115  -5.2241788  88.4445674
  51.2281499  -4.2796355  88.3424364  50.5241561  -5.5268226  88.8331473
  52.3703629  -4.5713526  91.6601602  53.2730876  -4.5389916  91.9768097
  52.1440999  -5.5013075  91.6747938  66.6699631  -0.0294573  89.3218968
  66.3318142  -0.1453508  88.4339503  67.5389399  -0.4303408  89.3019974
  62.5286446   1.8240904  85.3115859  61.9651312   1.7330841  84.5432147
  62.4138842   1.0040808  85.7918351  67.1519414   1.1240279  95.2805173
  67.1408055   0.7293077  94.4085677  67.3140053   0.3906352  95.8738945
  60.0750878   3.3192095  88.1500079  60.8672170   2.9782920  87.7346379
  60.3147529   3.4287070  89.0702233  68.1086005   5.4911871  80.6230324
  67.4573985   6.0765952  80.2364337  68.9030368   6.0218066  80.6825361
  62.0341632   2.5801009  81.0217458  62.8072508   2.0329996  80.8830334
  62.3867031   3.4445258  81.2331919  63.8726675   3.9077391  94.2284357
  63.5816541   4.8123022  94.1131024  64.5083659   3.9493918  94.9428427
  64.7982882   1.2854239  90.8185717  65.3946454   1.0610262  90.1042680
  64.8557853   0.5438985  91.4211165  64.3707910  -1.2606325  78.6535908
  64.6233431  -1.7824804  77.8919371  63.4332469  -1.4240180  78.7562592
  69.5861270   3.1802303  81.1599308  68.9507103   3.2536930  81.8720213
  69.2558677   3.7695902  80.4818387  64.0904199   0.6421781  80.8560283
  63.9740457  -0.0333316  81.5241367  64.2006459   0.1554155  80.0392436
  66.4335740   0.1031928  84.5606972  66.0693947  -0.4237451  85.2719894
  67.2902856  -0.2869603  84.3873458  68.8316560   3.5938806  91.2234151
  68.5317283   4.4963845  91.1149958  68.4867620   3.3270990  92.0755304
  62.2829041   0.0452603  87.2570855  61.3579538  -0.0871183  87.4648547
  62.5313455   0.8246822  87.7540798  59.6437853  -0.3114123  88.0914645
  59.7730234  -0.0579644  89.0054056  58.9635304   0.2813585  87.7719300
  63.8137340  10.3583127  84.1905119  63.7361370  11.3090952  84.2693599
  63.2098983  10.0128999  84.8480045  64.5600942   0.3396445  96.4084453
  65.3015626   0.8781489  96.1319276  63.8537927   0.9662734  96.5656004
  70.0356282   2.4825586  95.0056614  70.4439638   2.0407996  94.2611246
  69.3133543   1.9078213  95.2590807  70.3585096   3.0426777  88.7608903
  69.7293959   3.2072491  88.0584971  69.9710758   3.4568386  89.5319867
  74.2374328   3.9781214  86.1153267  73.5525366   4.3580116  85.5650300
  74.3218177   4.5876541  86.8485215  71.4925260   1.6241173  92.7148610
  71.7042155   2.2672933  92.0382991  71.4455008   0.7903490  92.2470540
  65.9113058   2.7801185  86.0258988  66.3751404   3.0588888  85.2363611
  65.6469856   1.8784629  85.8432079  62.8037139   2.3272666  88.9638751
  63.3738496   2.7559935  88.3256236  63.3945251   2.0455251  89.6622937
  64.8481944  -1.0975663  82.8348553  65.5505987  -0.6454619  83.3022480
  64.5162573  -1.7391844  83.4628446  63.2962306  -2.5063906  97.2099763
  62.6660966  -1.8247626  97.4435159  63.1898394  -2.6180825  96.2652901
  58.5907278  -2.8392110  88.1365687  57.8006332  -2.5834582  87.6605797
  59.0818525  -2.0243772  88.2417727  72.6071088   4.5013129  90.8870968
  73.4288531   4.0993316  90.6053649  72.6033490   4.3981363  91.8387083
  60.5422023  -2.4747531  85.0949164  59.7453187  -2.3628837  85.6132659
  60.3147616  -2.1360879  84.2290054  66.3727691   4.0497172  93.0431678
  66.4372124   4.5117579  93.8789850  65.6638615   3.4194537  93.1713988
  56.8744981  -2.5861620  90.5680678  57.1253019  -1.7014610  90.8338254
  57.4104529  -2.7657018  89.7955769  66.0875709   5.7165280  82.9110658
  65.9521384   6.5616815  83.3395506  66.6285521   5.9184557  82.1476592
  59.5405106   3.2340718  83.4838584  60.0529627   4.0283968  83.6344148
  60.1927819   2.5367008  83.4172185  61.3499991   6.3506474  85.5661337
  61.5266619   7.2724439  85.3782321  62.1456824   6.0364893  85.9955717
  60.6352347  -1.6028894  95.4423500  60.5205862  -2.5043637  95.7430599
  59.7796865  -1.3565197  95.0908316  67.7144185   6.3388846  97.0411001
  67.2708039   5.5525225  96.7231905  68.3761399   6.5267997  96.3754891
  62.4731306   7.8684648  91.5671679  63.0238731   7.7401711  90.7948673
  61.6342782   8.1679537  91.2166572  69.8125423   6.6191646  95.0692402
  69.7943899   7.4400527  94.5772671  70.7345343   6.4945721  95.2942543
  66.2698477   4.1335776  95.9115910  66.8026814   3.3724064  95.6815218
  65.7412558   3.8409427  96.6540065  57.5054023   1.5629372  84.2598154
  58.3429245   1.9726380  84.0431862  57.6832291   0.6228814  84.2298348
  74.3752729   1.9836807  81.8835161  73.5982172   1.6447967  81.4390323
  75.0544210   1.9889430  81.2090126  67.6351190   3.2621768  83.4234722
  67.1072552   2.5274528  83.1107960  67.1338693   4.0396444  83.1774691
  72.6144036   1.4570789  88.5401769  71.9567710   2.1470050  88.6281897
  73.4184435   1.8467220  88.8835755  65.7803790   1.0801978  76.4269695
  64.8730852   0.8491232  76.6260844  66.2774822   0.2839598  76.6143677
  68.6871869   9.7899485  79.3466381  68.0133568  10.0931182  79.9551339
  69.0737691  10.5928566  78.9971838  66.9592024   1.1814573  80.9493685
  66.0503243   0.8973606  81.0466155  66.9887107   1.6013652  80.0896992
  72.1911291   4.7921163  84.7184853  71.7373618   3.9512073  84.7750043
  71.5605258   5.4282561  85.0559633  70.6344230   6.6297659  85.6534671
  70.9267205   7.1902716  84.9347037  71.1442851   6.9226220  86.4087830
  57.5280194  -1.0979913  84.9308888  57.3304594  -1.6910552  84.2059954
  56.9726858  -1.4027703  85.6484826  66.6568111   2.7223317  78.2881764
  66.2187541   2.0059176  77.8287401  67.3978552   2.9499432  77.7266855
  65.5977855   7.4078010  86.7428124  65.5554034   7.6338857  85.8136656
  66.5140554   7.1741385  86.8913925  74.8010606   3.0657041  89.3569354
  75.2347113   2.9732330  90.2052408  75.5142187   3.0414541  88.7189370
  63.7143656   4.2841039  86.5390087  64.5084255   3.7891360  86.3372662
  63.0035349   3.7558903  86.1757793  68.5338501   6.6659135  90.8902455
  68.5875523   7.2350071  91.6580170  67.6653282   6.8361020  90.5256492
  60.0226420  -1.5715879  82.6149840  59.0924008  -1.6331423  82.8319802
  60.1183892  -2.0939926  81.8186481  75.6626155   3.1080742  91.8902239
  75.8562045   4.0126552  92.1361514  75.5626774   2.6488161  92.7240824
  70.7241264   3.2587484  97.4643120  70.5726770   3.0298036  96.5473204
  70.7145944   4.2158086  97.4774465  67.4926600   0.8319397  92.4489386
  68.4218660   0.9830557  92.2758354  67.0717630   0.9203418  91.5938033
  66.2914932   4.8570061  90.2187924  66.1526018   4.4888846  91.0913862
  65.5029528   5.3717701  90.0471882  66.8863084   9.9579158  81.5613461
  67.0614840   9.4867201  82.3759083  66.1995872  10.5844924  81.7894721
  67.8420147   4.2351664  87.6076762  67.5069980   4.1952434  88.5034412
  67.3424093   3.5696380  87.1347172  61.8164391  -0.3580706  93.1329343
  61.6784189  -1.0900467  93.7340882  62.7269315  -0.4471806  92.8513531
  70.7779339   1.5807698  77.8813821  70.1608510   0.8554527  77.7846874
  70.3095828   2.3417059  77.5380896  64.4446692  -0.6460747  92.6213023
  65.1546311  -1.2867554  92.5799641  64.4016000  -0.3947852  93.5439203
  72.4333471   6.2906607  95.5419602  72.3746017   5.6065827  94.8750185
  72.8352989   7.0325597  95.0900228  61.4524170  13.1068521  88.3353321
  61.6920768  13.7387045  89.0132339  60.6093366  12.7556561  88.6218680
  72.4350878   4.2546191  93.7733582  71.5477657   3.9172113  93.8959980
  73.0049429   3.5229222  94.0102347  54.0880025   0.5870282  87.0976633
  54.7751065   0.2732013  86.5097648  53.9328154   1.4911647  86.8243884
  65.9652031   8.9147643  90.7394825  65.8922203   9.7202615  91.2514129
  65.5229424   9.1139609  89.9142846  65.7541811   8.1519413  84.2497646
  64.9709333   8.6941093  84.3435871  66.4534556   8.6693393  84.6491887
  68.4250715   8.8134477  92.8952983  69.1378687   9.4481942  92.8228885
  67.9340744   8.9098343  92.0792985  70.1468242   2.7185730  84.4670275
  69.2124521   2.8387192  84.2974979  70.3244910   1.8158197  84.2030285
  63.4762628   6.5628921  93.7158554  64.1772088   7.1965404  93.8687948
  63.0057743   6.9043652  92.9554193  71.6017024   4.9046870  82.0006461
  71.8776868   4.7903465  82.9100335  70.7321523   4.5064355  81.9618634
  68.2371088   9.1533221  85.6439275  68.4193483   8.3354877  86.1067027
  69.0604074   9.3700913  85.2064165  68.5713254   8.0801406  82.9054323
  69.1001020   7.5693861  82.2924485  68.8341473   7.7643937  83.7699856
  67.3251487  -0.1406661  98.0277142  66.6492124  -0.2412532  98.6979517
  68.1479121  -0.2967447  98.4913139  59.0730347   6.0965276  90.6489657
  59.6583783   5.3508964  90.7817561  58.8755185   6.4069232  91.5326321
  61.9269002   9.1316523  85.6652099  61.2579377   9.6162651  85.1816139
  61.7881871   9.3785743  86.5795478  53.6648001  -1.3329124  89.3694100
  53.7032101  -1.8665533  90.1631218  53.1588294  -1.8593919  88.7505077
  66.0674270  11.1660267  92.2634758  66.6192578  11.3291888  93.0283843
  66.4080464  11.7564704  91.5914782  70.9185145   5.9921524  98.1183412
  71.4625049   6.6051482  97.6238367  70.3371989   6.5501102  98.6350425
  57.2956579  -2.6065022  82.4448031  57.5910020  -3.5154344  82.3915085
  56.3944615  -2.6277283  82.1229034  69.2042658   9.1142242  89.2498440
  69.0793797   8.3131982  88.7409385  69.8621749   9.6088435  88.7612410
  71.2677566   6.9151262  90.8777990  70.3207902   6.7956613  90.8056317
  71.6160339   6.0273760  90.9604251  68.2723999   6.7103978  87.0782342
  68.1248962   5.7820686  87.2589912  69.0977493   6.7324069  86.5939417
  71.8758121   7.5332537  88.1647215  72.8004669   7.3275398  88.0271666
  71.7073424   7.2848938  89.0736556  63.0084735  -2.4772471  88.6485204
  62.8629316  -2.1632168  89.5409485  62.5309939  -1.8587570  88.0956103
  71.6653437   8.0518205  83.5209306  71.8390315   7.4864627  82.7683159
  72.1582329   8.8519099  83.3388796  57.4830397   0.0632874  91.5872865
  56.9383865   0.8392682  91.7193139  58.3609747   0.4103678  91.4291987
  72.6528610   7.3684969  80.6206205  73.3479514   7.9891662  80.8393519
  72.9951760   6.5180320  80.8958582  58.2696419  -0.8097230  94.4803022
  57.5278155  -0.6614595  95.0667652  57.9489163  -0.5488964  93.6169771
  74.5520033   4.8184674  82.1493535  75.0771357   5.1571947  81.4242855
  74.4642385   3.8831690  81.9656670  66.2140082   8.7318748  94.2783412
  66.5227208   8.4867895  95.1506112  67.0115564   8.9365387  93.7902282
  66.2360694  10.8856658  86.5088789  65.7965684  10.3933036  87.2021645
  66.9868811  10.3429625  86.2680864  58.7153033   7.0768199  86.5113417
  59.5411053   6.7771971  86.1312060  58.3647085   6.3075821  86.9603205
  63.6834566   6.4294667  88.5811090  63.0614575   5.7665372  88.2813318
  64.3539433   6.4555799  87.8984738  56.9161638   4.9954525  87.4702350
  56.0793546   4.5676699  87.2886351  56.8885283   5.1886968  88.4073141
  74.2413939   5.4517578  97.4544733  73.4509483   5.4341717  96.9149233
  74.0047294   5.9905872  98.2093770  74.3611814   2.3010045  94.7677462
  74.4109819   2.1360052  95.7092985  74.2525737   1.4337304  94.3775343
  63.2448073   4.9798590  82.0569551  63.3936193   5.6634055  81.4036224
  64.0514516   4.9603680  82.5719007  75.8630011   4.7206986  95.0119483
  75.5714819   5.0836967  95.8482944  75.2502142   4.0073994  94.8332815
  61.0000706   1.0063768  83.0630620  60.7546748   0.1026098  83.2610830
  61.1696620   1.0080918  82.1210098  66.7443478   7.4746721  79.5281298
  66.1717445   8.0936908  79.0751770  67.3176272   8.0246082  80.0621220
  69.9640738   7.7583871  80.6589880  70.8971411   7.6929432  80.8622756
  69.8763951   8.5940138  80.2004413  72.5928755   7.0749741  77.6193828
  72.5142386   6.7409605  78.5129586  73.4138422   7.5671509  77.6185300
  67.0128969   2.8625280  98.3298008  67.9331979   3.0403879  98.5238054
  66.9778552   1.9181325  98.1777707  56.2311134  -1.9436127  87.2551282
  55.9113919  -2.7970819  86.9625656  55.6844562  -1.7287549  88.0109250
  60.0091042   0.7726314  90.9720789  60.2277052   1.7043422  90.9908823
  60.4216816   0.4134289  91.7575593  56.0999394   1.6766785  89.2244404
  55.4062866   1.2620737  88.7114358  56.8472385   1.7187321  88.6277823
  64.7450177  -0.2243341  99.1788599  64.2617259   0.5757019  99.3852488
  64.8311116  -0.2135396  98.2256043  58.0136137   1.6085038  87.1010419
  57.9906825   1.7072726  86.1492302  58.3236773   2.4550189  87.4227585
  60.6723515   3.6661193  91.2157033  61.6266768   3.6345136  91.1486965
  60.4736038   3.2051817  92.0307259  61.2622897   2.2362310  93.7827831
  62.0815786   2.7306388  93.8062668  61.5359705   1.3194278  93.7545398
  59.0273743   9.2080813  88.2327231  58.8928211   8.4481214  87.6665229
  58.6105806   9.9321713  87.7656020  70.1632707   4.3917737  77.2403806
  70.8668557   4.5967739  77.8561462  69.4395355   4.9594498  77.5052890
  62.1842869  10.1050130  88.4445674  62.0675254  11.0495562  88.3424364
  61.3635316   9.8023692  88.8331473  72.0719404   4.8300266  79.2902266
  72.9065008   4.3981464  79.1079741  71.9103747   4.6582279  80.2179161
  71.7265296   1.3332379  80.6558606  71.6714100   1.1676650  79.7147050
  71.1011351   2.0408412  80.8120795  56.5157811  -3.4299557  94.4820028
  57.1616675  -3.9400603  94.9707253  56.3074962  -2.6930875  95.0563453
  69.0411203   3.6381291  99.9812168  69.9102363   3.8121943  99.6198803
  68.5617955   4.4575708  99.8587898  63.2097383  10.7578392  91.6601602
  64.1124630  10.7902002  91.9768097  62.9834754   9.8278843  91.6747938
  64.9650986   9.5109378  88.3211681  64.0146617   9.5111240  88.2076053
  65.2683472   8.7642113  87.8047715  80.7003679  15.3469917  89.3857443
  81.3382089  15.2276664  88.6820783  80.5824522  16.2950761  89.4445395
  77.5093385  15.2997345  89.3218968  77.1711897  15.1838410  88.4339503
  78.3783153  14.8988510  89.3019974  73.3680201  17.1532821  85.3115859
  72.8045066  17.0622758  84.5432147  73.2532596  16.3332726  85.7918351
  77.9913168  16.4532197  95.2805173  77.9801809  16.0584995  94.4085677
  78.1533808  15.7198269  95.8738945  70.9144633  18.6484013  88.1500079
  71.7065925  18.3074838  87.7346379  71.1541283  18.7578988  89.0702233
  78.9479760  20.8203789  80.6230324  78.2967739  21.4057869  80.2364337
  79.7424122  21.3509984  80.6825361  72.8735387  17.9092926  81.0217458
  73.6466263  17.3621913  80.8830334  73.2260786  18.7737176  81.2331919
  74.7120429  19.2369308  94.2284357  74.4210295  20.1414939  94.1131024
  75.3477414  19.2785836  94.9428427  75.6376636  16.6146157  90.8185717
  76.2340209  16.3902179  90.1042680  75.6951608  15.8730902  91.4211165
  75.2101665  14.0685592  78.6535908  75.4627185  13.5467114  77.8919371
  74.2726224  13.9051738  78.7562592  80.2544947  13.0721371  86.4610651
  81.0408037  12.6540794  86.1101068  80.5183652  13.9767463  86.6292300
  80.4255025  18.5094221  81.1599308  79.7900858  18.5828848  81.8720213
  80.0952431  19.0987820  80.4818387  85.6553375  13.0096604  87.3643630
  86.3878547  12.4395821  87.5981459  84.8992730  12.6218204  87.8050135
  74.9297953  15.9713698  80.8560283  74.8134212  15.2958602  81.5241367
  75.0400213  15.4846072  80.0392436  77.2729494  15.4323845  84.5606972
  76.9087702  14.9054466  85.2719894  78.1296610  15.0422314  84.3873458
  83.1778795   6.7218178  91.8238238  82.8462120   7.5913589  91.5999453
  82.5824408   6.4054462  92.5032269  76.9134981  10.4613745  79.5568321
  77.0809384  11.3293981  79.9238792  76.7232150  10.6241027  78.6329610
  79.6710314  18.9230724  91.2234151  79.3711038  19.8255763  91.1149958
  79.3261374  18.6562907  92.0755304  73.1222796  15.3744521  87.2570855
  72.1973292  15.2420735  87.4648547  73.3707209  16.1538740  87.7540798
  83.0707458  11.4413264  88.9031588  82.1624336  11.3728673  88.6090349
  83.0195054  11.9185209  89.7313414  76.8924202  12.9171403  80.5414988
  76.7723827  13.3628453  81.3800468  76.1976791  13.2656720  79.9828526
  70.4831607  15.0177794  88.0914645  70.6123988  15.2712273  89.0054056
  69.8029058  15.6105502  87.7719300  74.6531094  25.6875044  84.1905119
  74.5755124  26.6382869  84.2693599  74.0492738  25.3420917  84.8480045
  77.1448324  12.8602910  96.8466486  76.3681658  13.4196830  96.8369350
  77.7838887  13.3459693  97.3681356  84.9369105   9.6429703  90.6809462
  84.2943485   9.9362236  90.0349257  84.4324033   9.5282623  91.4862659
  82.5909268  13.3892876  81.3695322  83.5027124  13.6220263  81.1943019
  82.0818915  13.9729920  80.8070400  75.3994696  15.6688363  96.4084453
  76.1409381  16.2073407  96.1319276  74.6931682  16.2954652  96.5656004
  80.8750036  17.8117504  95.0056614  81.2833392  17.3699914  94.2611246
  80.1527298  17.2370131  95.2590807  77.2281106  12.7490110  92.3790171
  78.0742301  13.1729524  92.5224820  77.1679744  12.0923735  93.0728734
  81.1978851  18.3718694  88.7608903  80.5687713  18.5364408  88.0584971
  80.8104513  18.7860304  89.5319867  85.0768083  19.3073132  86.1153267
  84.3919121  19.6872033  85.5650300  85.1611932  19.9168459  86.8485215
  80.3780551  10.4094479  94.0371345  80.1341483  11.1636539  93.5005620
  80.6540482  10.7879826  94.8718592  82.3319014  16.9533091  92.7148610
  82.5435909  17.5964851  92.0382991  82.2848762  16.1195408  92.2470540
  79.9345243   9.5650912  89.6185182  79.0729722   9.8632165  89.9101920
  79.9607678   9.7821311  88.6866215  76.7506813  18.1093102  86.0258988
  77.2145158  18.3880805  85.2363611  76.4863611  17.2076547  85.8432079
  73.6430894  17.6564584  88.9638751  74.2132251  18.0851852  88.3256236
  74.2339005  17.3747169  89.6622937  75.6875699  14.2316255  82.8348553
  76.3899742  14.6837298  83.3022480  75.3556327  13.5900074  83.4628446
  74.1356060  12.8228011  97.2099763  73.5054721  13.5044292  97.4435159
  74.0292148  12.7111093  96.2652901  69.4301033  12.4899807  88.1365687
  68.6400087  12.7457336  87.6605797  69.9212280  13.3048145  88.2417727
  83.4464842  19.8305047  90.8870968  84.2682286  19.4285234  90.6053649
  83.4427245  19.7273281  91.8387083  71.3815778  12.8544387  85.0949164
  70.5846941  12.9663081  85.6132659  71.1541370  13.1931039  84.2290054
  77.2121446  19.3789090  93.0431678  77.2765878  19.8409497  93.8789850
  76.5032369  18.7486455  93.1713988  67.7138736  12.7430298  90.5680678
  67.9646774  13.6277308  90.8338254  68.2498284  12.5634899  89.7955769
  91.5370835  16.1743795  87.2355939  90.7834544  15.6051193  87.0799944
  91.6718376  16.1406459  88.1826574  76.9269463  21.0457197  82.9110658
  76.7915138  21.8908733  83.3395506  77.4679276  21.2476475  82.1476592
  73.4136803   7.1248777  99.5725014  73.0203748   6.5714976 100.2472658
  74.2302943   7.4359356  99.9631531  70.3798861  18.5632635  83.4838584
  70.8923381  19.3575886  83.6344148  71.0321573  17.8658926  83.4172185
  72.1893745  21.6798392  85.5661337  72.3660374  22.6016356  85.3782321
  72.9850579  21.3656811  85.9955717  76.3304764   8.5406656  97.1645270
  77.0714477   9.1413809  97.0849733  76.5622687   7.7984294  96.6063313
  71.4746102  13.7263023  95.4423500  71.3599617  12.8248281  95.7430599
  70.6190620  13.9726720  95.0908316  78.5537940  21.6680764  97.0411001
  78.1101794  20.8817142  96.7231905  79.2155153  21.8559914  96.3754891
  73.3125061  23.1976565  91.5671679  73.8632486  23.0693629  90.7948673
  72.4736537  23.4971454  91.2166572  80.6519178  21.9483564  95.0692402
  80.6337653  22.7692445  94.5772671  81.5739098  21.8237639  95.2942543
  77.1092232  19.4627693  95.9115910  77.6420569  18.7015981  95.6815218
  76.5806313  19.1701345  96.6540065  80.2761927   4.5687759  91.4409552
  79.9326196   5.4589401  91.3648663  80.6440889   4.3789417  90.5779137
  68.3447777  16.8921290  84.2598154  69.1822999  17.3018298  84.0431862
  68.5226045  15.9520732  84.2298348  80.2412210  14.5596370  79.9481987
  79.7258833  15.3300975  80.1870374  79.9689518  13.8861506  80.5715048
  77.8259321   9.4046071  85.0067225  76.9700917   9.0152921  84.8272864
  78.2386272   9.4838032  84.1467011  79.3558467   6.9392414  89.4058785
  78.8523263   6.9022549  88.5926590  79.6489074   7.8485157  89.4655442
  75.6001353   7.0231144  88.4124967  76.4654350   6.8273953  88.0530856
  75.6678862   6.7941496  89.3394324  85.2146484  17.3128725  81.8835161
  84.4375926  16.9739884  81.4390323  85.8937965  17.3181348  81.2090126
  80.0298513  12.4323462  81.7741768  79.7248648  12.7469612  82.6251911
  80.9828955  12.5104882  81.8169101  78.4744945  18.5913686  83.4234722
  77.9466306  17.8566445  83.1107960  77.9732447  19.3688362  83.1774691
  83.4537791  16.7862706  88.5401769  82.7961465  17.4761968  88.6281897
  84.2578190  17.1759138  88.8835755  73.2063672   9.2533352  85.7841334
  73.7807424   9.0308533  85.0514527  73.7934655   9.3222046  86.5369935
  82.2643249  15.1407079  86.5905710  82.7775131  15.7737071  87.0927420
  82.9144473  14.5408274  86.2249070  73.5333259  11.2837813  79.8037219
  72.6970571  11.6212500  80.1246494  73.3938029  11.1486793  78.8664356
  75.5086340   6.1274601  84.5116403  74.8550752   5.8123618  83.8873018
  75.4666814   5.5050341  85.2376226  76.6197545  16.4093896  76.4269695
  75.7124606  16.1783149  76.6260844  77.1168577  15.6131515  76.6143677
  79.5265624  25.1191403  79.3466381  78.8527322  25.4223100  79.9551339
  79.9131446  25.9220483  78.9971838  78.7424080  12.6156534  88.8364051
  77.8246642  12.8371481  88.6785739  79.1584224  12.6902845  87.9775758
  79.5259128  14.0147950  83.9666731  80.2730947  14.5269347  83.6573853
  79.7950718  13.6932003  84.8271125  77.7985778  16.5106491  80.9493685
  76.8896997  16.2265524  81.0466155  77.8280862  16.9305569  80.0896992
  83.0305046  20.1213080  84.7184853  82.5767373  19.2803990  84.7750043
  82.3999012  20.7574479  85.0559633  81.9737965  11.0505066  85.9485520
  81.2360722  10.5382453  86.2795763  82.2264739  10.6105448  85.1368797
  81.4737985  21.9589577  85.6534671  81.7660959  22.5194634  84.9347037
  81.9836605  22.2518138  86.4087830  68.3673949  14.2312005  84.9308888
  68.1698348  13.6381366  84.2059954  67.8120613  13.9264215  85.6484826
  76.3470672  14.1235111  87.0503481  76.4019282  13.1708948  86.9745957
  75.5361874  14.2794551  87.5344779  77.4961866  18.0515234  78.2881764
  77.0581296  17.3351093  77.8287401  78.2372307  18.2791349  77.7266855
  74.2863032  12.7412171  84.8093860  73.4730898  13.0406342  85.2159052
  74.7822026  12.3467860  85.5268342  76.4371610  22.7369928  86.7428124
  76.3947789  22.9630774  85.8136656  77.3534309  22.5033303  86.8913925
  79.8837244  13.2053996  93.6408753  80.2386632  13.4325469  94.5003219
  80.5309375  13.5372372  93.0186009  85.6134981  16.3272432  84.3458082
  85.4752879  16.5174028  83.4179272  85.2571200  17.0891814  84.8026134
  73.7777107  10.3130527  90.4255095  74.4176486  10.1719286  89.7278058
  72.9454637  10.0265040  90.0493696  85.6404360  18.3948959  89.3569354
  86.0740867  18.3024248  90.2052408  86.3535941  18.3706459  88.7189370
  74.5537411  19.6132957  86.5390087  75.3478009  19.1183277  86.3372662
  73.8429103  19.0850820  86.1757793  79.3732255  21.9951053  90.8902455
  79.4269278  22.5641989  91.6580170  78.5047037  22.1652938  90.5256492
  70.8620174  13.7576039  82.6149840  69.9317762  13.6960494  82.8319802
  70.9577646  13.2351992  81.8186481  70.7805723  10.2830852  85.2028081
  71.0412541  11.1976185  85.0937242  71.6022896   9.8155294  85.3524694
  72.2530649  11.6968609  92.3726906  72.9253702  11.4885971  91.7239555
  71.4260435  11.4990695  91.9332138  86.5019910  18.4372659  91.8902239
  86.6955800  19.3418470  92.1361514  86.4020528  17.9780078  92.7240824
  78.1556221   8.3230550  94.3892567  77.5084136   9.0220499  94.2957043
  78.9257236   8.7566694  94.7568815  81.5635019  18.5879402  97.4643120
  81.4120525  18.3589954  96.5473204  81.5539698  19.5450003  97.4774465
  78.3320355  16.1611315  92.4489386  79.2612415  16.3122474  92.2758354
  77.9111385  16.2495335  91.5938033  77.1308687  20.1861979  90.2187924
  76.9919772  19.8180763  91.0913862  76.3423283  20.7009619  90.0471882
  77.7256839  25.2871076  81.5613461  77.9008594  24.8159119  82.3759083
  77.0389627  25.9136842  81.7894721  78.6813902  19.5643582  87.6076762
  78.3463735  19.5244352  88.5034412  78.1817848  18.8988298  87.1347172
  72.6558146  14.9711212  93.1329343  72.5177944  14.2391451  93.7340882
  73.5663069  14.8820112  92.8513531  81.6173094  16.9099616  77.8813821
  81.0002264  16.1846444  77.7846874  81.1489582  17.6708976  77.5380896
  75.2840447  14.6831171  92.6213023  75.9940065  14.0424363  92.5799641
  75.2409755  14.9344066  93.5439203  83.2727225  21.6198524  95.5419602
  83.2139771  20.9357745  94.8750185  83.6746744  22.3617514  95.0900228
  73.9969381  11.6696389  94.4408662  73.4606738  11.2187127  95.0930258
  73.4086089  11.8042298  93.6979126  72.2917924  28.4360438  88.3353321
  72.5314522  29.0678962  89.0132339  71.4487120  28.0848478  88.6218680
  73.4071639  11.1285040  77.0035126  72.5301106  11.0073841  76.6397372
  73.8829393  10.3371119  76.7514014  83.2744632  19.5838108  93.7733582
  82.3871411  19.2464030  93.8959980  83.8443184  18.8521140  94.0102347
  64.9273780  15.9162200  87.0976633  65.6144819  15.6023930  86.5097648
  64.7721908  16.8203565  86.8243884  69.7308502  10.8052397  91.5261657
  69.6466690  10.1978066  90.7912067  68.9091208  11.2961415  91.5271153
  76.8045786  24.2439561  90.7394825  76.7315957  25.0494532  91.2514129
  76.3623179  24.4431527  89.9142846  76.5935565  23.4811331  84.2497646
  75.8103087  24.0233011  84.3435871  77.2928311  23.9985310  84.6491887
  79.9032216   9.2905960  86.8931852  80.4000915   8.5375923  86.5732922
  79.1319197   9.3270277  86.3275061  87.7561973  14.9946326  88.5350143
  87.7451849  15.8771041  88.1644076  86.8879352  14.6417877  88.3404680
  79.2644469  24.1426395  92.8952983  79.9772442  24.7773860  92.8228885
  78.7734498  24.2390261  92.0792985  80.9861996  18.0477647  84.4670275
  80.0518275  18.1679110  84.2974979  81.1638665  17.1450114  84.2030285
  76.4867184  11.4323343  86.6203536  76.1164972  10.8794384  87.3084442
  76.9826277  10.8281477  86.0678536  84.3734548  13.8894967  85.0020309
  84.8395000  14.7222958  84.9280612  84.8242048  13.4239948  85.7065568
  74.3156383  21.8920838  93.7158554  75.0165842  22.5257321  93.8687948
  73.8451498  22.2335570  92.9554193  82.4410779  20.2338788  82.0006461
  82.7170623  20.1195383  82.9100335  81.5715277  19.8356273  81.9618634
  82.3451210   6.2575554  89.0411211  81.4314290   6.4879781  89.2093417
  82.7744312   6.3413998  89.8925243  82.1157669  14.4465446  91.5411105
  81.4629119  14.6941353  90.8863557  82.4938049  13.6329584  91.2073582
  79.0764843  24.4825139  85.6439275  79.2587237  23.6646795  86.1067027
  79.8997829  24.6992831  85.2064165  79.4107008  23.4093324  82.9054323
  79.9394775  22.8985779  82.2924485  79.6735228  23.0935854  83.7699856
  78.1645242  15.1885257  98.0277142  77.4885879  15.0879386  98.6979517
  78.9872876  15.0324471  98.4913139  69.9124101  21.4257193  90.6489657
  70.4977538  20.6800881  90.7817561  69.7148939  21.7361150  91.5326321
  72.7662756  24.4608441  85.6652099  72.0973131  24.9454568  85.1816139
  72.6275626  24.7077661  86.5795478  64.5041756  13.9962794  89.3694100
  64.5425855  13.4626384  90.1631218  63.9982049  13.4697999  88.7505077
  76.9068025  26.4952184  92.2634758  77.4586333  26.6583806  93.0283843
  77.2474218  27.0856622  91.5914782  71.8832518   8.8427334  92.8656642
  71.9473845   9.7042165  92.4534040  71.8199638   8.2301336  92.1329001
  71.3584791  10.9150467  96.5129677  71.9856829  10.5327544  97.1267201
  70.5012709  10.6964669  96.8785369  81.7578899  21.3213442  98.1183412
  82.3018803  21.9343400  97.6238367  81.1765744  21.8793020  98.6350425
  68.1350333  12.7226896  82.4448031  68.4303774  11.8137574  82.3915085
  67.2338369  12.7014635  82.1229034  80.0436412  24.4434160  89.2498440
  79.9187552  23.6423900  88.7409385  80.7015503  24.9380353  88.7612410
  71.6644580  10.7982892  88.4275580  70.9431166  11.4118860  88.2883053
  72.4537836  11.3340657  88.3492226  82.1071320  22.2443180  90.8777990
  81.1601656  22.1248531  90.8056317  82.4554094  21.3565678  90.9604251
  74.4670894   8.1337319  94.7016232  74.9905296   8.3799615  95.4642541
  74.2483227   8.9657354  94.2819369  69.8638175  10.4040993  82.5687357
  69.5350881   9.5238372  82.3862463  70.2177546  10.3488662  83.4563746
  79.1117754  22.0395896  87.0782342  78.9642716  21.1112603  87.2589912
  79.9371247  22.0615987  86.5939417  72.9779998  10.6913963  82.9362834
  73.3176071  11.2199884  82.2141443  73.4252119  11.0294369  83.7121401
  82.7151876  22.8624455  88.1647215  83.6398423  22.6567316  88.0271666
  82.5467179  22.6140856  89.0736556  75.6723439   9.0751014  92.3865902
  75.3320259   8.2758827  92.7886582  74.9662445   9.3752725  91.8142736
  76.3239911   6.1600326  90.8393225  77.1465980   5.6860804  90.7172116
  76.5677974   6.9390810  91.3391912  74.9648145   9.1888585  81.1356127
  75.6856508   9.5669838  80.6319844  74.3413449   9.9077462  81.2391105
  79.1079268   9.8933734  82.0714459  79.3242882  10.7758372  81.7703288
  78.6273335   9.5019947  81.3420101  73.8478489  12.8519447  88.6485204
  73.7023070  13.1659750  89.5409485  73.3703693  13.4704347  88.0956103
  75.7074872   9.8421995  88.6966094  75.6936441   8.9463088  88.3598391
  76.4247300   9.8492659  89.3304380  77.5601003  10.2759335  90.7419221
  77.3018781  11.1976406  90.7403551  77.0286043   9.8789770  91.4319685
  82.5047192  23.3810122  83.5209306  82.6784069  22.8156545  82.7683159
  82.9976083  24.1811017  83.3388796  68.3224152  15.3924791  91.5872865
  67.7777620  16.1684599  91.7193139  69.2003501  15.7395596  91.4291987
  75.1111768   8.7236375  83.9653664  75.2327679   7.7953021  84.1644551
  74.8213811   8.7375061  83.0531979  77.9802959   6.4091286  87.1020383
  78.0024655   6.4730619  86.1472363  78.3971018   5.5695794  87.2960890
  88.3586583  16.1446545  85.1399606  88.8017729  15.3953870  84.7418729
  87.4813093  16.1356682  84.7573338  83.4922364  22.6976887  80.6206205
  84.1873269  23.3183579  80.8393519  83.8345514  21.8472238  80.8958582
  69.1090173  14.5194688  94.4803022  68.3671910  14.6677323  95.0667652
  68.7882918  14.7802953  93.6169771  85.3913787  20.1476592  82.1493535
  85.9165112  20.4863865  81.4242855  85.3036140  19.2123607  81.9656670
  77.0533836  24.0610666  94.2783412  77.3620963  23.8159813  95.1506112
  77.8509318  24.2657304  93.7902282  77.0754448  26.2148575  86.5088789
  76.6359438  25.7224954  87.2021645  77.8262565  25.6721543  86.2680864
  69.5546787  22.4060116  86.5113417  70.3804807  22.1063888  86.1312060
  69.2040839  21.6367739  86.9603205  74.5228320  21.7586585  88.5811090
  73.9008330  21.0957290  88.2813318  75.1933187  21.7847716  87.8984738
  67.7555392  20.3246443  87.4702350  66.9187301  19.8968617  87.2886351
  67.7279038  20.5178886  88.4073141  74.5952848  10.2368373  98.1743596
  74.6441003  11.1130495  97.7921366  75.1375362   9.6945766  97.6015239
  85.0807693  20.7809496  97.4544733  84.2903237  20.7633635  96.9149233
  84.8441048  21.3197790  98.2093770  85.2005569  17.6301962  94.7677462
  85.2503573  17.4651970  95.7092985  85.0919492  16.7629221  94.3775343
  74.0841827  20.3090508  82.0569551  74.2329948  20.9925972  81.4036224
  74.8908271  20.2895598  82.5719007  82.4909331  13.6132890  96.0836769
  83.3919194  13.4739355  95.7920766  82.5657305  13.7787345  97.0234946
  76.8252136  10.9899745  94.9289955  75.9555446  11.2833311  94.6572543
  77.0611617  11.5740190  95.6497219  86.7023765  20.0498904  95.0119483
  86.4108574  20.4128884  95.8482944  86.0895897  19.3365912  94.8332815
  87.9019448  17.6151783  87.5322054  88.7366339  18.0541588  87.6959614
  88.0378576  17.1390437  86.7130299  84.9510954  15.1731518  93.4799541
  85.4265075  15.3659165  92.6718393  84.0276519  15.2290704  93.2342925
  71.8394460  16.3355686  83.0630620  71.5940502  15.4318016  83.2610830
  72.0090375  16.3372836  82.1210098  79.5291170   7.2079362  92.4455375
  80.0473114   7.9440389  92.1201864  79.1746303   7.5143355  93.2802134
  71.1090108  12.0684043  80.5616781  70.4159353  12.1428398  79.9056817
  70.8641860  11.3044387  81.0838298  77.5837233  22.8038638  79.5281298
  77.0111200  23.4228825  79.0751770  78.1570026  23.3538000  80.0621220
  83.6512623  12.0497278  91.7127847  84.6030045  12.1495376  91.7340071
  83.4816073  11.2575547  92.2225931  81.6727002   9.1352862  91.8987248
  81.0776934   9.4157874  91.2033737  81.3876699   9.6246763  92.6703989
  80.8034493  23.0875788  80.6589880  81.7365166  23.0221350  80.8622756
  80.7157705  23.9232055  80.2004413  83.4322509  22.4041659  77.6193828
  83.3536141  22.0701522  78.5129586  84.2532176  22.8963427  77.6185300
  86.1300700  15.2703398  90.8270147  86.0977020  14.3319399  91.0129830
  86.7401324  15.3487435  90.0935972  77.9684031  14.1399451  76.8697351
  78.9143136  14.0105659  76.9385769  77.5898276  13.4014113  77.3466779
  86.2795189  12.0614442  90.8728430  85.7634238  11.2772898  90.6858359
  87.1635137  11.7333158  91.0374949  83.9405916   5.8055457  86.8324243
  83.7430737   5.4970545  87.7167574  84.5505621   6.5317096  86.9622172
  91.9477250  16.3319405  89.9676183  92.6780639  16.0704693  90.5283887
  91.3384196  15.5948127  90.0078251  90.0292547  14.4727268  90.5650635
  89.3025711  14.3383232  89.9567126  89.6139834  14.7804096  91.3707353
  77.8522724  18.1917197  98.3298008  78.7725733  18.3695796  98.5238054
  77.8172307  17.2473243  98.1777707  76.1526948  12.0649427  76.8052236
  75.2458404  11.7682540  76.8814950  76.4302929  11.7679246  75.9386522
  67.0704889  13.3855791  87.2551282  66.7507673  12.5321099  86.9625656
  66.5238317  13.6004369  88.0109250  70.8484796  16.1018232  90.9720789
  71.0670806  17.0335340  90.9908823  71.2610570  15.7426206  91.7575593
  77.7689014   6.6086317  82.9596477  76.9589742   6.2633402  83.3351723
  78.4573431   6.2993861  83.5484089  79.6979562   5.6864364  84.5820774
  80.2510601   6.1059817  85.2410797  79.9349649   4.7600112  84.6243730
  75.7212662  11.6751438 100.3623538  75.6209389  12.6245795 100.2935629
  75.5034204  11.3469677  99.4899608  74.9225733   8.9236363  76.9464215
  75.7844897   9.2491261  77.2060032  75.1076077   8.1367859  76.4337281
  66.9393149  17.0058702  89.2244404  66.2456620  16.5912655  88.7114358
  67.6866140  17.0479239  88.6277823  83.0758370   7.7964889  84.0899438
  82.4957039   8.4549693  83.7077491  82.8094302   6.9742234  83.6786856
  81.5261936   7.1969947  86.2920758  82.0261714   7.3086481  85.4835077
  82.1697544   6.8931000  86.9321567  75.5843932  15.1048576  99.1788599
  75.1011013  15.9048937  99.3852488  75.6704871  15.1156521  98.2256043
  68.8529891  16.9376956  87.1010419  68.8300579  17.0364643  86.1492302
  69.1630528  17.7842107  87.4227585  71.5117269  18.9953111  91.2157033
  72.4660523  18.9637054  91.1486965  71.3129793  18.5343735  92.0307259
  72.1016651  17.5654227  93.7827831  72.9209540  18.0598306  93.8062668
  72.3753459  16.6486195  93.7545398  81.8583248   9.9564980  83.1455786
  80.9709103  10.2414630  82.9275981  82.2737237   9.7958743  82.2983063
  85.2097784   9.9811501  86.8610126  85.9858174  10.4707953  87.1334742
  84.4845918  10.4069555  87.3181995  87.6470342  10.6939120  87.9184066
  88.2414833  10.4534856  87.2077374  87.7196926   9.9746250  88.5457603
  69.8667498  24.5372731  88.2327231  69.7321966  23.7773132  87.6665229
  69.4499560  25.2613631  87.7656020  81.0026461  19.7209654  77.2403806
  81.7062311  19.9259657  77.8561462  80.2789110  20.2886416  77.5052890
  81.8324271  15.4719515  83.3606077  81.7759473  15.9288067  82.5213709
  82.3852614  14.7110200  83.1828919  85.6429077  11.2609247  84.1856196
  85.3866011  10.8605883  85.0164404  85.0181945  11.9753041  84.0606335
  89.9541415  14.0005321  86.6927487  89.3940973  14.0698510  87.4659049
  89.3484918  13.8246305  85.9726984  73.0236624  25.4342048  88.4445674
  72.9069008  26.3787480  88.3424364  72.2029070  25.1315609  88.8331473
  82.9113158  20.1592183  79.2902266  83.7458762  19.7273382  79.1079741
  82.7497501  19.9874197  80.2179161  82.5659051  16.6624297  80.6558606
  82.5107854  16.4968568  79.7147050  81.9405106  17.3700330  80.8120795
  67.3551566  11.8992361  94.4820028  68.0010429  11.3891315  94.9707253
  67.1468717  12.6361043  95.0563453  79.8804958  18.9673209  99.9812168
  80.7496117  19.1413861  99.6198803  79.4011709  19.7867625  99.8587898
  75.8755176   6.1632406  80.2343924  75.8633846   7.1074246  80.3912195
  76.7678598   5.9802551  79.9403385  74.0491138  26.0870310  91.6601602
  74.9518385  26.1193920  91.9768097  73.8228508  25.1570761  91.6747938
  75.8044740  24.8401296  88.3211681  74.8540371  24.8403158  88.2076053
  76.1077226  24.0934031  87.8047715  71.6949057   9.0459978  98.5795042
  72.5580518   8.6896783  98.7898367  71.1214467   8.7073873  99.2670446
  91.5397433  30.6761835  89.3857443  92.1775843  30.5568582  88.6820783
  91.4218276  31.6242678  89.4445395  88.3487140  30.6289263  89.3218968
  88.0105651  30.5130327  88.4339503  89.2176908  30.2280428  89.3019974
  84.2073955  32.4824739  85.3115859  83.6438821  32.3914676  84.5432147
  84.0926351  31.6624643  85.7918351  88.8306923  31.7824114  95.2805173
  88.8195564  31.3876913  94.4085677  88.9927562  31.0490187  95.8738945
  81.7538387  33.9775931  88.1500079  82.5459679  33.6366755  87.7346379
  81.9935038  34.0870906  89.0702233  89.7873514  36.1495707  80.6230324
  89.1361494  36.7349787  80.2364337  90.5817877  36.6801902  80.6825361
  83.7129141  33.2384844  81.0217458  84.4860017  32.6913831  80.8830334
  84.0654540  34.1029093  81.2331919  85.5514184  34.5661226  94.2284357
  85.2604050  35.4706857  94.1131024  86.1871168  34.6077754  94.9428427
  86.4770391  31.9438075  90.8185717  87.0733963  31.7194097  90.1042680
  86.5345362  31.2022820  91.4211165  86.0495419  29.3977510  78.6535908
  86.3020940  28.8759031  77.8919371  85.1119978  29.2343655  78.7562592
  91.0938702  28.4013288  86.4610651  91.8801791  27.9832712  86.1101068
  91.3577406  29.3059381  86.6292300  91.2648779  33.8386139  81.1599308
  90.6294612  33.9120765  81.8720213  90.9346186  34.4279738  80.4818387
  96.4947129  28.3388522  87.3643630  97.2272301  27.7687738  87.5981459
  95.7386485  27.9510122  87.8050135  85.7691708  31.3005616  80.8560283
  85.6527966  30.6250519  81.5241367  85.8793968  30.8137990  80.0392436
  88.1123249  30.7615763  84.5606972  87.7481456  30.2346384  85.2719894
  88.9690365  30.3714232  84.3873458  94.0172549  22.0510096  91.8238238
  93.6855874  22.9205507  91.5999453  93.4218163  21.7346380  92.5032269
  87.7528736  25.7905663  79.5568321  87.9203138  26.6585899  79.9238792
  87.5625905  25.9532944  78.6329610  90.5104069  34.2522642  91.2234151
  90.2104792  35.1547680  91.1149958  90.1655129  33.9854825  92.0755304
  83.9616550  30.7036439  87.2570855  83.0367047  30.5712653  87.4648547
  84.2100964  31.4830658  87.7540798  93.9101213  26.7705182  88.9031588
  93.0018090  26.7020590  88.6090349  93.8588809  27.2477127  89.7313414
  87.7317957  28.2463320  80.5414988  87.6117582  28.6920371  81.3800468
  87.0370545  28.5948638  79.9828526  81.3225362  30.3469712  88.0914645
  81.4517743  30.6004191  89.0054056  80.6422813  30.9397420  87.7719300
  85.4924849  41.0166962  84.1905119  85.4148878  41.9674787  84.2693599
  84.8886492  40.6712835  84.8480045  87.9842079  28.1894827  96.8466486
  87.2075413  28.7488748  96.8369350  88.6232642  28.6751610  97.3681356
  95.7762859  24.9721620  90.6809462  95.1337239  25.2654153  90.0349257
  95.2717788  24.8574541  91.4862659  93.4303023  28.7184793  81.3695322
  94.3420879  28.9512180  81.1943019  92.9212670  29.3021838  80.8070400
  86.2388451  30.9980281  96.4084453  86.9803135  31.5365325  96.1319276
  85.5325436  31.6246570  96.5656004  91.7143791  33.1409421  95.0056614
  92.1227147  32.6991832  94.2611246  90.9921052  32.5662049  95.2590807
  88.0674861  28.0782028  92.3790171  88.9136056  28.5021442  92.5224820
  88.0073498  27.4215652  93.0728734  92.0372605  33.7010612  88.7608903
  91.4081468  33.8656326  88.0584971  91.6498267  34.1152221  89.5319867
  95.9161837  34.6365050  86.1153267  95.2312875  35.0163951  85.5650300
  96.0005686  35.2460376  86.8485215  91.2174306  25.7386396  94.0371345
  90.9735238  26.4928457  93.5005620  91.4934236  26.1171744  94.8718592
  93.1712769  32.2825009  92.7148610  93.3829664  32.9256769  92.0382991
  93.1242517  31.4487325  92.2470540  90.7738998  24.8942829  89.6185182
  89.9123477  25.1924083  89.9101920  90.8001432  25.1113228  88.6866215
  87.5900567  33.4385020  86.0258988  88.0538913  33.7172723  85.2363611
  87.3257365  32.5368465  85.8432079  84.4824648  32.9856502  88.9638751
  85.0526005  33.4143770  88.3256236  85.0732760  32.7039086  89.6622937
  86.5269453  29.5608172  82.8348553  87.2293496  30.0129216  83.3022480
  86.1950082  28.9191991  83.4628446  84.9749815  28.1519929  97.2099763
  84.3448475  28.8336210  97.4435159  84.8685902  28.0403011  96.2652901
  80.2694787  27.8191725  88.1365687  79.4793841  28.0749254  87.6605797
  80.7606034  28.6340063  88.2417727  94.2858597  35.1596964  90.8870968
  95.1076040  34.7577151  90.6053649  94.2820999  35.0565198  91.8387083
  82.2209532  28.1836304  85.0949164  81.4240696  28.2954999  85.6132659
  81.9935125  28.5222956  84.2290054  88.0515200  34.7081007  93.0431678
  88.1159633  35.1701415  93.8789850  87.3426124  34.0778372  93.1713988
  78.5532490  28.0722215  90.5680678  78.8040528  28.9569225  90.8338254
  79.0892038  27.8926817  89.7955769 102.3764590  31.5035713  87.2355939
 101.6228298  30.9343111  87.0799944 102.5112131  31.4698377  88.1826574
  87.7663218  36.3749115  82.9110658  87.6308892  37.2200651  83.3395506
  88.3073030  36.5768393  82.1476592  84.2530557  22.4540695  99.5725014
  83.8597503  21.9006893 100.2472658  85.0696698  22.7651273  99.9631531
  81.2192615  33.8924553  83.4838584  81.7317136  34.6867803  83.6344148
  81.8715328  33.1950843  83.4172185  83.0287500  37.0090309  85.5661337
  83.2054128  37.9308274  85.3782321  83.8244333  36.6948728  85.9955717
  87.1698518  23.8698574  97.1645270  87.9108232  24.4705727  97.0849733
  87.4016441  23.1276212  96.6063313  82.3139856  29.0554941  95.4423500
  82.1993371  28.1540198  95.7430599  81.4584374  29.3018638  95.0908316
  89.3931694  36.9972681  97.0411001  88.9495548  36.2109060  96.7231905
  90.0548908  37.1851832  96.3754891  84.1518815  38.5268483  91.5671679
  84.7026240  38.3985546  90.7948673  83.3130291  38.8263372  91.2166572
  91.4912932  37.2775481  95.0692402  91.4731407  38.0984362  94.5772671
  92.4132852  37.1529557  95.2942543  87.9485986  34.7919611  95.9115910
  88.4814323  34.0307899  95.6815218  87.4200067  34.4993263  96.6540065
  91.1155681  19.8979677  91.4409552  90.7719951  20.7881319  91.3648663
  91.4834644  19.7081334  90.5779137  79.1841532  32.2213207  84.2598154
  80.0216754  32.6310216  84.0431862  79.3619800  31.2812649  84.2298348
  91.0805964  29.8888288  79.9481987  90.5652587  30.6592893  80.1870374
  90.8083272  29.2153424  80.5715048  88.6653075  24.7337989  85.0067225
  87.8094671  24.3444839  84.8272864  89.0780027  24.8129950  84.1467011
  90.1952222  22.2684332  89.4058785  89.6917017  22.2314467  88.5926590
  90.4882829  23.1777075  89.4655442  86.4395108  22.3523062  88.4124967
  87.3048104  22.1565870  88.0530856  86.5072616  22.1233413  89.3394324
  96.0540238  32.6420643  81.8835161  95.2769681  32.3031802  81.4390323
  96.7331719  32.6473266  81.2090126  90.8692267  27.7615380  81.7741768
  90.5642403  28.0761529  82.6251911  91.8222709  27.8396800  81.8169101
  89.3138699  33.9205603  83.4234722  88.7860061  33.1858363  83.1107960
  88.8126202  34.6980280  83.1774691  94.2931545  32.1154624  88.5401769
  93.6355219  32.8053885  88.6281897  95.0971944  32.5051056  88.8835755
  84.0457427  24.5825270  85.7841334  84.6201179  24.3600451  85.0514527
  84.6328409  24.6513964  86.5369935  93.1037004  30.4698997  86.5905710
  93.6168886  31.1028988  87.0927420  93.7538228  29.8700192  86.2249070
  84.3727014  26.6129731  79.8037219  83.5364326  26.9504417  80.1246494
  84.2331783  26.4778710  78.8664356  86.3480094  21.4566519  84.5116403
  85.6944507  21.1415536  83.8873018  86.3060568  20.8342259  85.2376226
  87.4591299  31.7385814  76.4269695  86.5518361  31.5075067  76.6260844
  87.9562331  30.9423433  76.6143677  90.3659378  40.4483321  79.3466381
  89.6921077  40.7515018  79.9551339  90.7525200  41.2512401  78.9971838
  89.5817835  27.9448452  88.8364051  88.6640396  28.1663399  88.6785739
  89.9977978  28.0194763  87.9775758  90.3652882  29.3439868  83.9666731
  91.1124701  29.8561265  83.6573853  90.6344472  29.0223921  84.8271125
  88.6379533  31.8398409  80.9493685  87.7290752  31.5557441  81.0466155
  88.6674616  32.2597487  80.0896992  93.8698800  35.4504998  84.7184853
  93.4161127  34.6095908  84.7750043  93.2392767  36.0866396  85.0559633
  92.8131720  26.3796984  85.9485520  92.0754476  25.8674370  86.2795763
  93.0658493  25.9397366  85.1368797  92.3131739  37.2881495  85.6534671
  92.6054714  37.8486552  84.9347037  92.8230360  37.5810056  86.4087830
  92.9143347  19.1573236  86.5427290  93.2202224  18.2970599  86.2553205
  93.6395952  19.7490856  86.3426284  79.2067703  29.5603923  84.9308888
  79.0092103  28.9673283  84.2059954  78.6514367  29.2556133  85.6484826
  87.1864427  29.4527029  87.0503481  87.2413036  28.5000866  86.9745957
  86.3755629  29.6086468  87.5344779  88.3355620  33.3807152  78.2881764
  87.8975050  32.6643011  77.8287401  89.0766061  33.6083267  77.7266855
  85.1256787  28.0704089  84.8093860  84.3124652  28.3698259  85.2159052
  85.6215781  27.6759778  85.5268342  87.2765364  38.0661846  86.7428124
  87.2341543  38.2922692  85.8136656  88.1928063  37.8325220  86.8913925
  90.7230998  28.5345913  93.6408753  91.0780386  28.7617386  94.5003219
  91.3703129  28.8664290  93.0186009  96.4528735  31.6564349  84.3458082
  96.3146634  31.8465945  83.4179272  96.0964954  32.4183732  84.8026134
  84.6170861  25.6422444  90.4255095  85.2570241  25.5011203  89.7278058
  83.7848392  25.3556958  90.0493696  96.4798115  33.7240876  89.3569354
  96.9134621  33.6316165  90.2052408  97.1929696  33.6998377  88.7189370
  85.3931165  34.9424875  86.5390087  86.1871764  34.4475195  86.3372662
  84.6822858  34.4142738  86.1757793  90.2126010  37.3242970  90.8902455
  90.2663032  37.8933907  91.6580170  89.3440791  37.4944855  90.5256492
  81.7013929  29.0867957  82.6149840  80.7711517  29.0252412  82.8319802
  81.7971401  28.5643909  81.8186481  81.6199478  25.6122769  85.2028081
  81.8806295  26.5268103  85.0937242  82.4416650  25.1447212  85.3524694
  83.0924403  27.0260527  92.3726906  83.7647457  26.8177889  91.7239555
  82.2654190  26.8282613  91.9332138  97.3413664  33.7664577  91.8902239
  97.5349554  34.6710387  92.1361514  97.2414283  33.3071996  92.7240824
  88.9949975  23.6522467  94.3892567  88.3477890  24.3512417  94.2957043
  89.7650991  24.0858611  94.7568815  92.4028773  33.9171320  97.4643120
  92.2514279  33.6881871  96.5473204  92.3933453  34.8741921  97.4774465
  89.1714109  31.4903232  92.4489386  90.1006169  31.6414392  92.2758354
  88.7505139  31.5787253  91.5938033  87.9702441  35.5153897  90.2187924
  87.8313527  35.1472681  91.0913862  87.1817037  36.0301536  90.0471882
  88.5650593  40.6162993  81.5613461  88.7402349  40.1451036  82.3759083
  87.8783381  41.2428759  81.7894721  89.5207656  34.8935499  87.6076762
  89.1857489  34.8536269  88.5034412  89.0211602  34.2280215  87.1347172
  83.4951900  30.3003129  93.1329343  83.3571698  29.5683368  93.7340882
  84.4056824  30.2112030  92.8513531  92.4566848  32.2391534  77.8813821
  91.8396019  31.5138362  77.7846874  91.9883337  33.0000894  77.5380896
  86.1234201  30.0123089  92.6213023  86.8333820  29.3716281  92.5799641
  86.0803509  30.2635984  93.5439203  94.1120980  36.9490442  95.5419602
  94.0533526  36.2649662  94.8750185  94.5140498  37.6909432  95.0900228
  84.8363135  26.9988307  94.4408662  84.3000492  26.5479045  95.0930258
  84.2479843  27.1334216  93.6979126  83.1311679  43.7652356  88.3353321
  83.3708277  44.3970880  89.0132339  82.2880875  43.4140396  88.6218680
  84.2465394  26.4576958  77.0035126  83.3694860  26.3365759  76.6397372
  84.7223147  25.6663036  76.7514014  94.1138387  34.9130026  93.7733582
  93.2265166  34.5755948  93.8959980  94.6836938  34.1813057  94.0102347
  75.7667534  31.2454118  87.0976633  76.4538574  30.9315848  86.5097648
  75.6115663  32.1495482  86.8243884  80.5702256  26.1344314  91.5261657
  80.4860445  25.5269984  90.7912067  79.7484963  26.6253333  91.5271153
  87.6439540  39.5731478  90.7394825  87.5709712  40.3786450  91.2514129
  87.2016933  39.7723444  89.9142846  87.4329320  38.8103248  84.2497646
  86.6496842  39.3524929  84.3435871  88.1322065  39.3277228  84.6491887
  90.7425970  24.6197878  86.8931852  91.2394670  23.8667840  86.5732922
  89.9712952  24.6562195  86.3275061  98.5955728  30.3238243  88.5350143
  98.5845604  31.2062959  88.1644076  97.7273107  29.9709794  88.3404680
  90.1038224  39.4718312  92.8952983  90.8166196  40.1065777  92.8228885
  89.6128253  39.5682178  92.0792985  91.8255751  33.3769565  84.4670275
  90.8912030  33.4971028  84.2974979  92.0032419  32.4742032  84.2030285
  87.3260939  26.7615261  86.6203536  86.9558726  26.2086301  87.3084442
  87.8220031  26.1573394  86.0678536  95.2128302  29.2186884  85.0020309
  95.6788754  30.0514876  84.9280612  95.6635803  28.7531866  85.7065568
  85.1550137  37.2212756  93.7158554  85.8559597  37.8549239  93.8687948
  84.6845252  37.5627487  92.9554193  93.2804533  35.5630706  82.0006461
  93.5564377  35.4487300  82.9100335  92.4109032  35.1648191  81.9618634
  93.1844965  21.5867471  89.0411211  92.2708045  21.8171698  89.2093417
  93.6138066  21.6705915  89.8925243  92.9551423  29.7757363  91.5411105
  92.3022874  30.0233271  90.8863557  93.3331803  28.9621502  91.2073582
  89.9158597  39.8117057  85.6439275  90.0980992  38.9938713  86.1067027
  90.7391583  40.0284749  85.2064165  90.2500763  38.7385242  82.9054323
  90.7788529  38.2277696  82.2924485  90.5128982  38.4227772  83.7699856
  89.0038996  30.5177174  98.0277142  88.3279633  30.4171304  98.6979517
  89.8266630  30.3616388  98.4913139  80.7517855  36.7549111  90.6489657
  81.3371292  36.0092799  90.7817561  80.5542694  37.0653068  91.5326321
  83.6056511  39.7900358  85.6652099  82.9366886  40.2746486  85.1816139
  83.4669380  40.0369579  86.5795478  75.3435510  29.3254711  89.3694100
  75.3819610  28.7918302  90.1631218  74.8375803  28.7989917  88.7505077
  87.7461779  41.8244102  92.2634758  88.2980087  41.9875723  93.0283843
  88.0867973  42.4148540  91.5914782  82.7226273  24.1719252  92.8656642
  82.7867599  25.0334083  92.4534040  82.6593393  23.5593253  92.1329001
  82.1978545  26.2442384  96.5129677  82.8250584  25.8619462  97.1267201
  81.3406464  26.0256586  96.8785369  92.5972654  36.6505359  98.1183412
  93.1412558  37.2635318  97.6238367  92.0159498  37.2084938  98.6350425
  78.9744088  28.0518813  82.4448031  79.2697529  27.1429492  82.3915085
  78.0732124  28.0306553  82.1229034  90.8830167  39.7726077  89.2498440
  90.7581306  38.9715817  88.7409385  91.5409258  40.2672271  88.7612410
  82.5038335  26.1274810  88.4275580  81.7824921  26.7410778  88.2883053
  83.2931591  26.6632575  88.3492226  92.9465075  37.5735098  90.8777990
  91.9995410  37.4540449  90.8056317  93.2947848  36.6857596  90.9604251
  85.3064648  23.4629236  94.7016232  85.8299050  23.7091533  95.4642541
  85.0876982  24.2949271  94.2819369  80.7031929  25.7332911  82.5687357
  80.3744636  24.8530290  82.3862463  81.0571300  25.6780580  83.4563746
  89.9511508  37.3687814  87.0782342  89.8036471  36.4404521  87.2589912
  90.7765002  37.3907904  86.5939417  83.8173753  26.0205881  82.9362834
  84.1569825  26.5491802  82.2141443  84.2645873  26.3586287  83.7121401
  93.5545630  38.1916372  88.1647215  94.4792178  37.9859234  88.0271666
  93.3860933  37.9432774  89.0736556  86.5117193  24.4042932  92.3865902
  86.1714014  23.6050745  92.7886582  85.8056200  24.7044642  91.8142736
  87.1633665  21.4892244  90.8393225  87.9859735  21.0152722  90.7172116
  87.4071729  22.2682728  91.3391912  85.8041900  24.5180502  81.1356127
  86.5250262  24.8961755  80.6319844  85.1807204  25.2369379  81.2391105
  89.9473023  25.2225651  82.0714459  90.1636637  26.1050289  81.7703288
  89.4667090  24.8311865  81.3420101  84.6872244  28.1811365  88.6485204
  84.5416825  28.4951668  89.5409485  84.2097448  28.7996265  88.0956103
  86.5468627  25.1713913  88.6966094  86.5330196  24.2755006  88.3598391
  87.2641055  25.1784576  89.3304380  88.3994758  25.6051253  90.7419221
  88.1412535  26.5268323  90.7403551  87.8679798  25.2081687  91.4319685
  93.3440946  38.7102040  83.5209306  93.5177824  38.1448462  82.7683159
  93.8369838  39.5102935  83.3388796  79.1617906  30.7216709  91.5872865
  78.6171374  31.4976517  91.7193139  80.0397256  31.0687513  91.4291987
  85.9505523  24.0528293  83.9653664  86.0721434  23.1244939  84.1644551
  85.6607565  24.0666979  83.0531979  88.8196713  21.7383203  87.1020383
  88.8418410  21.8022536  86.1472363  89.2364772  20.8987712  87.2960890
  99.1980337  31.4738463  85.1399606  99.6411484  30.7245788  84.7418729
  98.3206848  31.4648599  84.7573338  94.3316119  38.0268804  80.6206205
  95.0267023  38.6475497  80.8393519  94.6739269  37.1764156  80.8958582
  79.9483928  29.8486605  94.4803022  79.2065664  29.9969241  95.0667652
  79.6276672  30.1094871  93.6169771  96.2307542  35.4768510  82.1493535
  96.7558866  35.8155783  81.4242855  96.1429894  34.5415525  81.9656670
  87.8927591  39.3902583  94.2783412  88.2014717  39.1451730  95.1506112
  88.6903073  39.5949222  93.7902282  87.9148203  41.5440493  86.5088789
  87.4753193  41.0516872  87.2021645  88.6656320  41.0013461  86.2680864
  80.3940542  37.7352034  86.5113417  81.2198562  37.4355806  86.1312060
  80.0434594  36.9659656  86.9603205  85.3622075  37.0878502  88.5811090
  84.7402084  36.4249207  88.2813318  86.0326942  37.1139634  87.8984738
  78.5949147  35.6538360  87.4702350  77.7581055  35.2260535  87.2886351
  78.5672792  35.8470804  88.4073141  85.4346602  25.5660290  98.1743596
  85.4834758  26.4422413  97.7921366  85.9769117  25.0237683  97.6015239
  95.9201448  36.1101413  97.4544733  95.1296992  36.0925552  96.9149233
  95.6834803  36.6489707  98.2093770  96.0399323  32.9593880  94.7677462
  96.0897328  32.7943887  95.7092985  95.9313246  32.0921139  94.3775343
  84.9235582  35.6382426  82.0569551  85.0723702  36.3217890  81.4036224
  85.7302025  35.6187516  82.5719007  93.3303085  28.9424808  96.0836769
  94.2312948  28.8031273  95.7920766  93.4051060  29.1079263  97.0234946
  87.6645891  26.3191663  94.9289955  86.7949200  26.6125229  94.6572543
  87.9005371  26.9032108  95.6497219  97.5417520  35.3790821  95.0119483
  97.2502328  35.7420802  95.8482944  96.9289651  34.6657830  94.8332815
  98.7413202  32.9443701  87.5322054  99.5760094  33.3833505  87.6959614
  98.8772331  32.4682354  86.7130299  95.7904708  30.5023436  93.4799541
  96.2658830  30.6951082  92.6718393  94.8670273  30.5582622  93.2342925
  82.6788215  31.6647603  83.0630620  82.4334257  30.7609933  83.2610830
  82.8484129  31.6664754  82.1210098  90.3684925  22.5371280  92.4455375
  90.8866868  23.2732306  92.1201864  90.0140057  22.8435273  93.2802134
  81.9483862  27.3975961  80.5616781  81.2553107  27.4720316  79.9056817
  81.7035614  26.6336304  81.0838298  90.6197519  18.9571562  87.9656272
  90.8999273  18.2894751  88.5916698  91.4048126  19.1500658  87.4530936
  88.4230987  38.1330556  79.5281298  87.8504954  38.7520743  79.0751770
  88.9963781  38.6829918  80.0621220  94.4906377  27.3789196  91.7127847
  95.4423800  27.4787294  91.7340071  94.3209828  26.5867465  92.2225931
  92.5120757  24.4644779  91.8987248  91.9170689  24.7449792  91.2033737
  92.2270453  24.9538680  92.6703989  91.6428247  38.4167706  80.6589880
  92.5758920  38.3513268  80.8622756  91.5551460  39.2523973  80.2004413
  94.2716264  37.7333576  77.6193828  94.1929895  37.3993440  78.5129586
  95.0925930  38.2255344  77.6185300  96.9694455  30.5995316  90.8270147
  96.9370775  29.6611317  91.0129830  97.5795079  30.6779352  90.0935972
  88.8077786  29.4691369  76.8697351  89.7536890  29.3397577  76.9385769
  88.4292031  28.7306031  77.3466779  97.1188943  27.3906359  90.8728430
  96.6027992  26.6064816  90.6858359  98.0028892  27.0625076  91.0374949
  94.7799670  21.1347375  86.8324243  94.5824491  20.8262463  87.7167574
  95.3899376  21.8609014  86.9622172 102.7871005  31.6611323  89.9676183
 103.5174393  31.3996611  90.5283887 102.1777950  30.9240045  90.0078251
 100.8686302  29.8019185  90.5650635 100.1419465  29.6675150  89.9567126
 100.4533589  30.1096014  91.3707353  88.6916478  33.5209115  98.3298008
  89.6119488  33.6987714  98.5238054  88.6566061  32.5765160  98.1777707
  86.9920703  27.3941345  76.8052236  86.0852158  27.0974458  76.8814950
  87.2696684  27.0971163  75.9386522  77.9098643  28.7147709  87.2551282
  77.5901428  27.8613017  86.9625656  77.3632071  28.9296287  88.0109250
  81.6878551  31.4310150  90.9720789  81.9064561  32.3627257  90.9908823
  82.1004325  31.0718124  91.7575593  88.6082769  21.9378235  82.9596477
  87.7983497  21.5925320  83.3351723  89.2967186  21.6285779  83.5484089
  90.5373317  21.0156282  84.5820774  91.0904356  21.4351735  85.2410797
  90.7743403  20.0892030  84.6243730  86.5606416  27.0043355 100.3623538
  86.4603143  27.9537712 100.2935629  86.3427958  26.6761594  99.4899608
  85.7619488  24.2528280  76.9464215  86.6238652  24.5783179  77.2060032
  85.9469832  23.4659776  76.4337281  77.7786903  32.3350620  89.2244404
  77.0850375  31.9204573  88.7114358  78.5259894  32.3771157  88.6277823
  93.9152124  23.1256807  84.0899438  93.3350793  23.7841611  83.7077491
  93.6488057  22.3034151  83.6786856  92.3655690  22.5261865  86.2920758
  92.8655469  22.6378399  85.4835077  93.0091298  22.2222917  86.9321567
  86.4237686  30.4340494  99.1788599  85.9404768  31.2340854  99.3852488
  86.5098625  30.4448439  98.2256043  79.6923646  32.2668874  87.1010419
  79.6694334  32.3656561  86.1492302  80.0024282  33.1134025  87.4227585
  82.3511024  34.3245029  91.2157033  83.3054277  34.2928971  91.1486965
  82.1523547  33.8635653  92.0307259  82.9410406  32.8946145  93.7827831
  83.7603295  33.3890224  93.8062668  83.2147214  31.9778113  93.7545398
  92.6977002  25.2856897  83.1455786  91.8102857  25.5706548  82.9275981
  93.1130991  25.1250661  82.2983063  96.0491538  25.3103418  86.8610126
  96.8251928  25.7999871  87.1334742  95.3239672  25.7361472  87.3181995
  98.4864097  26.0231037  87.9184066  99.0808588  25.7826773  87.2077374
  98.5590680  25.3038168  88.5457603  80.7061252  39.8664648  88.2327231
  80.5715720  39.1065049  87.6665229  80.2893315  40.5905548  87.7656020
  91.8420215  35.0501572  77.2403806  92.5456066  35.2551574  77.8561462
  91.1182864  35.6178334  77.5052890  92.6718026  30.8011433  83.3606077
  92.6153227  31.2579985  82.5213709  93.2246368  30.0402118  83.1828919
  96.4822832  26.5901165  84.1856196  96.2259766  26.1897801  85.0164404
  95.8575700  27.3044959  84.0606335 100.7935170  29.3297238  86.6927487
 100.2334728  29.3990428  87.4659049 100.1878673  29.1538223  85.9726984
  83.8630378  40.7633965  88.4445674  83.7462762  41.7079398  88.3424364
  83.0422825  40.4607527  88.8331473  93.7506913  35.4884101  79.2902266
  94.5852517  35.0565300  79.1079741  93.5891256  35.3166115  80.2179161
  93.4052805  31.9916214  80.6558606  93.3501609  31.8260486  79.7147050
  92.7798860  32.6992247  80.8120795  78.1945320  27.2284279  94.4820028
  78.8404184  26.7183233  94.9707253  77.9862471  27.9652960  95.0563453
  90.7198712  34.2965126  99.9812168  91.5889872  34.4705779  99.6198803
  90.2405464  35.1159543  99.8587898  86.7148931  21.4924323  80.2343924
  86.7027600  22.4366163  80.3912195  87.6072352  21.3094469  79.9403385
  84.8884892  41.4162227  91.6601602  85.7912139  41.4485838  91.9768097
  84.6622263  40.4862678  91.6747938  86.6438494  40.1693214  88.3211681
  85.6934126  40.1695075  88.2076053  86.9470981  39.4225948  87.8047715
  90.5301050  18.0867100  84.4889861  89.7633446  17.5325587  84.6346543
  90.9411755  18.1588969  85.3504013  82.5342811  24.3751896  98.5795042
  83.3974273  24.0188701  98.7898367  81.9608222  24.0365791  99.2670446
 102.3791188  46.0053752  89.3857443 103.0169598  45.8860500  88.6820783
 102.2612031  46.9534596  89.4445395  99.1880894  45.9581180  89.3218968
  98.8499406  45.8422245  88.4339503 100.0570662  45.5572345  89.3019974
  95.0467710  47.8116657  85.3115859  94.4832575  47.7206594  84.5432147
  94.9320105  46.9916561  85.7918351  99.6700677  47.1116032  95.2805173
  99.6589318  46.7168830  94.4085677  99.8321317  46.3782105  95.8738945
  92.5932142  49.3067848  88.1500079  93.3853434  48.9658673  87.7346379
  92.8328792  49.4162823  89.0702233 100.6267269  51.4787624  80.6230324
  99.9755248  52.0641705  80.2364337 101.4211631  52.0093819  80.6825361
  94.5522896  48.5676762  81.0217458  95.3253772  48.0205749  80.8830334
  94.9048295  49.4321011  81.2331919  96.3907938  49.8953144  94.2284357
  96.0997804  50.7998775  94.1131024  97.0264923  49.9369671  94.9428427
  97.3164145  47.2729992  90.8185717  97.9127717  47.0486015  90.1042680
  97.3739117  46.5314738  91.4211165  96.8889174  44.7269428  78.6535908
  97.1414694  44.2050949  77.8919371  95.9513733  44.5635573  78.7562592
 101.9332456  43.7305206  86.4610651 102.7195546  43.3124629  86.1101068
 102.1971161  44.6351298  86.6292300 102.1042534  49.1678056  81.1599308
 101.4688367  49.2412683  81.8720213 101.7739940  49.7571655  80.4818387
 107.3340884  43.6680439  87.3643630 108.0666056  43.0979656  87.5981459
 106.5780239  43.2802040  87.8050135  96.6085462  46.6297534  80.8560283
  96.4921720  45.9542437  81.5241367  96.7187722  46.1429908  80.0392436
  98.9517003  46.0907681  84.5606972  98.5875211  45.5638302  85.2719894
  99.8084119  45.7006150  84.3873458 104.8566304  37.3802013  91.8238238
 104.5249629  38.2497424  91.5999453 104.2611917  37.0638297  92.5032269
  98.5922490  41.1197580  79.5568321  98.7596893  41.9877817  79.9238792
  98.4019659  41.2824862  78.6329610 101.3497823  49.5814559  91.2234151
 101.0498547  50.4839598  91.1149958 101.0048883  49.3146743  92.0755304
  94.8010305  46.0328356  87.2570855  93.8760801  45.9004570  87.4648547
  95.0494718  46.8122575  87.7540798 104.7494967  42.0997100  88.9031588
 103.8411845  42.0312508  88.6090349 104.6982563  42.5769044  89.7313414
  98.5711711  43.5755238  80.5414988  98.4511336  44.0212289  81.3800468
  97.8764300  43.9240556  79.9828526  92.1619116  45.6761630  88.0914645
  92.2911497  45.9296109  89.0054056  91.4816567  46.2689338  87.7719300
  96.3318603  56.3458880  84.1905119  96.2542633  57.2966705  84.2693599
  95.7280247  56.0004752  84.8480045  98.8235833  43.5186745  96.8466486
  98.0469167  44.0780665  96.8369350  99.4626396  44.0043528  97.3681356
 106.6156614  40.3013538  90.6809462 105.9730994  40.5946071  90.0349257
 106.1111542  40.1866458  91.4862659 104.2696777  44.0476711  81.3695322
 105.1814633  44.2804098  81.1943019 103.7606424  44.6313755  80.8070400
  97.0782205  46.3272198  96.4084453  97.8196890  46.8657242  96.1319276
  96.3719191  46.9538487  96.5656004 102.5537545  48.4701339  95.0056614
 102.9620901  48.0283749  94.2611246 101.8314806  47.8953966  95.2590807
  98.9068615  43.4073946  92.3790171  99.7529810  43.8313359  92.5224820
  98.8467253  42.7507570  93.0728734 102.8766360  49.0302530  88.7608903
 102.2475222  49.1948244  88.0584971 102.4892022  49.4444139  89.5319867
 106.7555592  49.9656967  86.1153267 106.0706630  50.3455869  85.5650300
 106.8399441  50.5752294  86.8485215 102.0568060  41.0678314  94.0371345
 101.8128992  41.8220375  93.5005620 102.3327991  41.4463662  94.8718592
 104.0106523  47.6116926  92.7148610 104.2223418  48.2548686  92.0382991
 103.9636271  46.7779243  92.2470540 101.6132752  40.2234747  89.6185182
 100.7517231  40.5216001  89.9101920 101.6395187  40.4405146  88.6866215
  98.4294322  48.7676938  86.0258988  98.8932667  49.0464641  85.2363611
  98.1651120  47.8660382  85.8432079  95.3218403  48.3148419  88.9638751
  95.8919760  48.7435688  88.3256236  95.9126514  48.0331004  89.6622937
  97.3663208  44.8900090  82.8348553  98.0687251  45.3421134  83.3022480
  97.0343836  44.2483909  83.4628446  95.8143569  43.4811847  97.2099763
  95.1842230  44.1628128  97.4435159  95.7079657  43.3694928  96.2652901
  91.1088542  43.1483643  88.1365687  90.3187596  43.4041171  87.6605797
  91.5999789  43.9631981  88.2417727 105.1252351  50.4888882  90.8870968
 105.9469795  50.0869069  90.6053649 105.1214754  50.3857116  91.8387083
  93.0603287  43.5128222  85.0949164  92.2634450  43.6246916  85.6132659
  92.8328879  43.8514874  84.2290054  98.8908955  50.0372925  93.0431678
  98.9553387  50.4993332  93.8789850  98.1819878  49.4070290  93.1713988
  89.3926245  43.4014133  90.5680678  89.6434283  44.2861143  90.8338254
  89.9285793  43.2218735  89.7955769 113.2158344  46.8327630  87.2355939
 112.4622053  46.2635028  87.0799944 113.3505885  46.7990295  88.1826574
  98.6056972  51.7041033  82.9110658  98.4702647  52.5492568  83.3395506
  99.1466785  51.9060310  82.1476592  95.0924312  37.7832612  99.5725014
  94.6991257  37.2298811 100.2472658  95.9090452  38.0943191  99.9631531
  92.0586370  49.2216471  83.4838584  92.5710890  50.0159721  83.6344148
  92.7109082  48.5242761  83.4172185  93.8681254  52.3382227  85.5661337
  94.0447883  53.2600192  85.3782321  94.6638088  52.0240646  85.9955717
  98.0092273  39.1990492  97.1645270  98.7501986  39.7997645  97.0849733
  98.2410196  38.4568129  96.6063313  93.1533611  44.3846859  95.4423500
  93.0387126  43.4832116  95.7430599  92.2978129  44.6310556  95.0908316
 100.2325449  52.3264599  97.0411001  99.7889303  51.5400978  96.7231905
 100.8942662  52.5143750  96.3754891  94.9912570  53.8560401  91.5671679
  95.5419995  53.7277464  90.7948673  94.1524046  54.1555290  91.2166572
 102.3306687  52.6067399  95.0692402 102.3125162  53.4276280  94.5772671
 103.2526607  52.4821474  95.2942543  98.7879741  50.1211529  95.9115910
  99.3208078  49.3599817  95.6815218  98.2593822  49.8285180  96.6540065
 101.9549436  35.2271595  91.4409552 101.6113705  36.1173236  91.3648663
 102.3228398  35.0373252  90.5779137  90.0235286  47.5505125  84.2598154
  90.8610508  47.9602133  84.0431862  90.2013554  46.6104567  84.2298348
 101.9199718  45.2180206  79.9481987 101.4046342  45.9884810  80.1870374
 101.6477027  44.5445342  80.5715048  99.5046830  40.0629906  85.0067225
  98.6488426  39.6736757  84.8272864  99.9173781  40.1421867  84.1467011
 101.0345976  37.5976250  89.4058785 100.5310772  37.5606385  88.5926590
 101.3276583  38.5068992  89.4655442  97.2788862  37.6814979  88.4124967
  98.1441859  37.4857788  88.0530856  97.3466371  37.4525331  89.3394324
 106.8933993  47.9712560  81.8835161 106.1163435  47.6323720  81.4390323
 107.5725474  47.9765183  81.2090126 101.7086022  43.0907298  81.7741768
 101.4036157  43.4053447  82.6251911 102.6616464  43.1688718  81.8169101
 100.1532454  49.2497521  83.4234722  99.6253815  48.5150281  83.1107960
  99.6519956  50.0272197  83.1774691 105.1325300  47.4446542  88.5401769
 104.4748974  48.1345803  88.6281897 105.9365699  47.8342973  88.8835755
  94.8851181  39.9117187  85.7841334  95.4594933  39.6892369  85.0514527
  95.4722164  39.9805882  86.5369935 103.9430758  45.7990914  86.5905710
 104.4562640  46.4320906  87.0927420 104.5931982  45.1992110  86.2249070
  95.2120768  41.9421648  79.8037219  94.3758080  42.2796335  80.1246494
  95.0725538  41.8070628  78.8664356  97.1873849  36.7858436  84.5116403
  96.5338261  36.4707453  83.8873018  97.1454323  36.1634177  85.2376226
  98.2985054  47.0677731  76.4269695  97.3912115  46.8366985  76.6260844
  98.7956086  46.2715351  76.6143677 101.2053133  55.7775238  79.3466381
 100.5314831  56.0806935  79.9551339 101.5918955  56.5804319  78.9971838
 100.4211589  43.2740370  88.8364051  99.5034151  43.4955317  88.6785739
 100.8371733  43.3486680  87.9775758 101.2046637  44.6731785  83.9666731
 101.9518456  45.1853183  83.6573853 101.4738226  44.3515838  84.8271125
  99.4773287  47.1690326  80.9493685  98.5684506  46.8849359  81.0466155
  99.5068371  47.5889405  80.0896992 104.7092555  50.7796916  84.7184853
 104.2554882  49.9387826  84.7750043 104.0786521  51.4158314  85.0559633
 103.6525474  41.7088902  85.9485520 102.9148231  41.1966288  86.2795763
 103.9052248  41.2689283  85.1368797 103.1525494  52.6173412  85.6534671
 103.4448468  53.1778469  84.9347037 103.6624114  52.9101973  86.4087830
 103.7537101  34.4865154  86.5427290 104.0595978  33.6262517  86.2553205
 104.4789706  35.0782774  86.3426284  90.0461458  44.8895840  84.9308888
  89.8485857  44.2965201  84.2059954  89.4908121  44.5848050  85.6484826
  98.0258181  44.7818947  87.0503481  98.0806791  43.8292783  86.9745957
  97.2149383  44.9378386  87.5344779  99.1749375  48.7099070  78.2881764
  98.7368805  47.9934929  77.8287401  99.9159816  48.9375185  77.7266855
  95.9650541  43.3996007  84.8093860  95.1518407  43.6990177  85.2159052
  96.4609535  43.0051695  85.5268342  98.1159119  53.3953763  86.7428124
  98.0735298  53.6214610  85.8136656  99.0321818  53.1617138  86.8913925
 101.5624753  43.8637831  93.6408753 101.9174140  44.0909304  94.5003219
 102.2096884  44.1956208  93.0186009 107.2922490  46.9856267  84.3458082
 107.1540388  47.1757863  83.4179272 106.9358709  47.7475650  84.8026134
  95.4564616  40.9714362  90.4255095  96.0963995  40.8303121  89.7278058
  94.6242146  40.6848875  90.0493696 107.3191869  49.0532794  89.3569354
 107.7528376  48.9608083  90.2052408 108.0323450  49.0290294  88.7189370
  96.2324920  50.2716792  86.5390087  97.0265518  49.7767113  86.3372662
  95.5216612  49.7434656  86.1757793 101.0519764  52.6534888  90.8902455
 101.1056786  53.2225824  91.6580170 100.1834546  52.8236773  90.5256492
  92.5407683  44.4159874  82.6149840  91.6105271  44.3544330  82.8319802
  92.6365155  43.8935827  81.8186481  92.4593232  40.9414687  85.2028081
  92.7200050  41.8560020  85.0937242  93.2810405  40.4739130  85.3524694
  93.9318158  42.3552444  92.3726906  94.6041211  42.1469806  91.7239555
  93.1047944  42.1574530  91.9332138 108.1807419  49.0956495  91.8902239
 108.3743309  50.0002305  92.1361514 108.0808037  48.6363914  92.7240824
  99.8343730  38.9814385  94.3892567  99.1871645  39.6804335  94.2957043
 100.6044745  39.4150529  94.7568815 103.2422528  49.2463237  97.4643120
 103.0908034  49.0173789  96.5473204 103.2327207  50.2033839  97.4774465
 100.0107864  46.8195150  92.4489386 100.9399924  46.9706310  92.2758354
  99.5898894  46.9079171  91.5938033  98.8096196  50.8445814  90.2187924
  98.6707281  50.4764599  91.0913862  98.0210792  51.3593454  90.0471882
  99.4044348  55.9454911  81.5613461  99.5796103  55.4742954  82.3759083
  98.7177136  56.5720677  81.7894721 100.3601411  50.2227417  87.6076762
 100.0251243  50.1828187  88.5034412  99.8605357  49.5572133  87.1347172
  94.3345655  45.6295047  93.1329343  94.1965453  44.8975286  93.7340882
  95.2450578  45.5403947  92.8513531 103.2960603  47.5683451  77.8813821
 102.6789773  46.8430280  77.7846874 102.8277091  48.3292812  77.5380896
  96.9627956  45.3415007  92.6213023  97.6727574  44.7008199  92.5799641
  96.9197264  45.5927901  93.5439203 104.9514734  52.2782360  95.5419602
 104.8927280  51.5941580  94.8750185 105.3534253  53.0201350  95.0900228
  95.6756889  42.3280224  94.4408662  95.1394247  41.8770963  95.0930258
  95.0873598  42.4626133  93.6979126  93.9705433  59.0944274  88.3353321
  94.2102031  59.7262798  89.0132339  93.1274629  58.7432314  88.6218680
  95.0859148  41.7868876  77.0035126  94.2088615  41.6657677  76.6397372
  95.5616902  40.9954954  76.7514014 104.9532141  50.2421944  93.7733582
 104.0658920  49.9047866  93.8959980 105.5230693  49.5104975  94.0102347
  86.6061289  46.5746036  87.0976633  87.2932328  46.2607766  86.5097648
  86.4509417  47.4787400  86.8243884  91.4096011  41.4636232  91.5261657
  91.3254199  40.8561902  90.7912067  90.5878717  41.9545250  91.5271153
  98.4833295  54.9023396  90.7394825  98.4103466  55.7078368  91.2514129
  98.0410688  55.1015362  89.9142846  98.2723074  54.1395166  84.2497646
  97.4890596  54.6816846  84.3435871  98.9715820  54.6569146  84.6491887
 101.5819725  39.9489796  86.8931852 102.0788424  39.1959758  86.5732922
 100.8106706  39.9854112  86.3275061 109.4349482  45.6530161  88.5350143
 109.4239358  46.5354877  88.1644076 108.5666861  45.3001712  88.3404680
 100.9431978  54.8010230  92.8952983 101.6559951  55.4357695  92.8228885
 100.4522007  54.8974096  92.0792985 102.6649505  48.7061483  84.4670275
 101.7305784  48.8262945  84.2974979 102.8426174  47.8033950  84.2030285
  98.1654693  42.0907179  86.6203536  97.7952481  41.5378219  87.3084442
  98.6613786  41.4865312  86.0678536 106.0522057  44.5478802  85.0020309
 106.5182509  45.3806794  84.9280612 106.5029557  44.0823784  85.7065568
  95.9943892  52.5504674  93.7158554  96.6953351  53.1841157  93.8687948
  95.5239007  52.8919405  92.9554193 104.1198288  50.8922623  82.0006461
 104.3958132  50.7779218  82.9100335 103.2502786  50.4940108  81.9618634
 104.0238719  36.9159389  89.0411211 103.1101799  37.1463616  89.2093417
 104.4531821  36.9997833  89.8925243 103.7945178  45.1049281  91.5411105
 103.1416628  45.3525189  90.8863557 104.1725558  44.2913419  91.2073582
 100.7552352  55.1408974  85.6439275 100.9374746  54.3230630  86.1067027
 101.5785338  55.3576667  85.2064165 101.0894517  54.0677159  82.9054323
 101.6182284  53.5569614  82.2924485 101.3522737  53.7519690  83.7699856
  99.8432751  45.8469092  98.0277142  99.1673388  45.7463221  98.6979517
 100.6660385  45.6908306  98.4913139  91.5911610  52.0841029  90.6489657
  92.1765047  51.3384717  90.7817561  91.3936448  52.3944985  91.5326321
  94.4450265  55.1192276  85.6652099  93.7760640  55.6038404  85.1816139
  94.3063135  55.3661497  86.5795478  86.1829265  44.6546629  89.3694100
  86.2213364  44.1210220  90.1631218  85.6769558  44.1281834  88.7505077
  98.5855534  57.1536020  92.2634758  99.1373842  57.3167641  93.0283843
  98.9261727  57.7440457  91.5914782  93.5620027  39.5011169  92.8656642
  93.6261353  40.3626000  92.4534040  93.4987147  38.8885171  92.1329001
  93.0372300  41.5734302  96.5129677  93.6644338  41.1911379  97.1267201
  92.1800218  41.3548504  96.8785369 103.4366408  51.9797277  98.1183412
 103.9806312  52.5927235  97.6238367 102.8553253  52.5376855  98.6350425
  89.8137842  43.3810731  82.4448031  90.1091283  42.4721409  82.3915085
  88.9125878  43.3598470  82.1229034 101.7223921  55.1017995  89.2498440
 101.5975061  54.3007735  88.7409385 102.3803012  55.5964188  88.7612410
  93.3432089  41.4566728  88.4275580  92.6218675  42.0702695  88.2883053
  94.1325345  41.9924492  88.3492226 103.7858829  52.9027015  90.8777990
 102.8389165  52.7832366  90.8056317 104.1341603  52.0149513  90.9604251
  96.1458403  38.7921154  94.7016232  96.6692805  39.0383451  95.4642541
  95.9270736  39.6241189  94.2819369  91.5425684  41.0624829  82.5687357
  91.2138390  40.1822208  82.3862463  91.8965055  41.0072497  83.4563746
 100.7905263  52.6979731  87.0782342 100.6430225  51.7696439  87.2589912
 101.6158756  52.7199822  86.5939417  94.6567507  41.3497798  82.9362834
  94.9963580  41.8783720  82.2141443  95.1039628  41.6878205  83.7121401
 104.3939385  53.5208290  88.1647215 105.3185932  53.3151151  88.0271666
 104.2254688  53.2724691  89.0736556  97.3510948  39.7334849  92.3865902
  97.0107768  38.9342662  92.7886582  96.6449954  40.0336560  91.8142736
  98.0027420  36.8184162  90.8393225  98.8253489  36.3444640  90.7172116
  98.2465483  37.5974645  91.3391912  96.6435654  39.8472420  81.1356127
  97.3644017  40.2253673  80.6319844  96.0200958  40.5661297  81.2391105
 100.7866777  40.5517569  82.0714459 101.0030391  41.4342207  81.7703288
 100.3060844  40.1603782  81.3420101  95.5265998  43.5103282  88.6485204
  95.3810579  43.8243585  89.5409485  95.0491202  44.1288183  88.0956103
  97.3862381  40.5005830  88.6966094  97.3723950  39.6046924  88.3598391
  98.1034809  40.5076494  89.3304380  99.2388512  40.9343170  90.7419221
  98.9806290  41.8560241  90.7403551  98.7073552  40.5373605  91.4319685
 104.1834701  54.0393958  83.5209306 104.3571578  53.4740380  82.7683159
 104.6763592  54.8394852  83.3388796  90.0011661  46.0508627  91.5872865
  89.4565129  46.8268435  91.7193139  90.8791010  46.3979431  91.4291987
  96.7899277  39.3820211  83.9653664  96.9115188  38.4536857  84.1644551
  96.5001320  39.3958897  83.0531979  99.6590468  37.0675121  87.1020383
  99.6812164  37.1314454  86.1472363 100.0758527  36.2279630  87.2960890
 110.0374092  46.8030381  85.1399606 110.4805238  46.0537706  84.7418729
 109.1600602  46.7940517  84.7573338 105.1709873  53.3560722  80.6206205
 105.8660778  53.9767415  80.8393519 105.5133023  52.5056073  80.8958582
  90.7877682  45.1778523  94.4803022  90.0459418  45.3261158  95.0667652
  90.4670427  45.4386789  93.6169771 107.0701296  50.8060428  82.1493535
 107.5952620  51.1447700  81.4242855 106.9823649  49.8707443  81.9656670
  98.7321345  54.7194501  94.2783412  99.0408472  54.4743648  95.1506112
  99.5296827  54.9241140  93.7902282  98.7541957  56.8732411  86.5088789
  98.3146947  56.3808789  87.2021645  99.5050074  56.3305378  86.2680864
  91.2334296  53.0643952  86.5113417  92.0592316  52.7647724  86.1312060
  90.8828348  52.2951574  86.9603205  96.2015829  52.4170420  88.5811090
  95.5795839  51.7541125  88.2813318  96.8720696  52.4431552  87.8984738
  89.4342901  50.9830278  87.4702350  88.5974809  50.5552452  87.2886351
  89.4066547  51.1762721  88.4073141  96.2740357  40.8952208  98.1743596
  96.3228512  41.7714331  97.7921366  96.8162871  40.3529601  97.6015239
 106.7595202  51.4393331  97.4544733 105.9690746  51.4217470  96.9149233
 106.5228557  51.9781625  98.2093770 106.8793078  48.2885798  94.7677462
 106.9291082  48.1235805  95.7092985 106.7707001  47.4213057  94.3775343
  95.7629336  50.9674343  82.0569551  95.9117457  51.6509808  81.4036224
  96.5695780  50.9479433  82.5719007 104.1696840  44.2716726  96.0836769
 105.0706703  44.1323190  95.7920766 104.2444814  44.4371180  97.0234946
  98.5039645  41.6483580  94.9289955  97.6342955  41.9417146  94.6572543
  98.7399126  42.2324025  95.6497219 108.3811274  50.7082739  95.0119483
 108.0896083  51.0712720  95.8482944 107.7683406  49.9949747  94.8332815
 109.5806957  48.2735619  87.5322054 110.4153848  48.7125423  87.6959614
 109.7166085  47.7974272  86.7130299 106.6298463  45.8315354  93.4799541
 107.1052584  46.0243000  92.6718393 105.7064028  45.8874540  93.2342925
  93.5181969  46.9939521  83.0630620  93.2728011  46.0901851  83.2610830
  93.6877884  46.9956671  82.1210098 101.2078679  37.8663197  92.4455375
 101.7260623  38.6024224  92.1201864 100.8533812  38.1727191  93.2802134
  92.7877617  42.7267878  80.5616781  92.0946862  42.8012233  79.9056817
  92.5429369  41.9628222  81.0838298 101.4591273  34.2863480  87.9656272
 101.7393027  33.6186669  88.5916698 102.2441880  34.4792575  87.4530936
  99.2624742  53.4622474  79.5281298  98.6898709  54.0812661  79.0751770
  99.8357535  54.0121835  80.0621220 105.3300132  42.7081114  91.7127847
 106.2817554  42.8079211  91.7340071 105.1603582  41.9159382  92.2225931
 103.3514511  39.7936697  91.8987248 102.7564443  40.0741710  91.2033737
 103.0664208  40.2830598  92.6703989 102.4822002  53.7459624  80.6589880
 103.4152675  53.6805185  80.8622756 102.3945214  54.5815891  80.2004413
 105.1110018  53.0625494  77.6193828 105.0323650  52.7285358  78.5129586
 105.9319685  53.5547262  77.6185300 107.8088209  45.9287233  90.8270147
 107.7764529  44.9903234  91.0129830 108.4188833  46.0071270  90.0935972
  99.6471540  44.7983286  76.8697351 100.5930645  44.6689495  76.9385769
  99.2685785  44.0597948  77.3466779 107.9582698  42.7198277  90.8728430
 107.4421747  41.9356734  90.6858359 108.8422646  42.3916994  91.0374949
 105.6193425  36.4639292  86.8324243 105.4218246  36.1554381  87.7167574
 106.2293130  37.1900931  86.9622172 113.6264759  46.9903240  89.9676183
 114.3568148  46.7288528  90.5283887 113.0171705  46.2531962  90.0078251
 111.7080056  45.1311103  90.5650635 110.9813220  44.9967068  89.9567126
 111.2927343  45.4387931  91.3707353  99.5310233  48.8501033  98.3298008
 100.4513242  49.0279632  98.5238054  99.4959816  47.9057078  98.1777707
  97.8314457  42.7233263  76.8052236  96.9245913  42.4266376  76.8814950
  98.1090438  42.4263081  75.9386522  88.7492398  44.0439626  87.2551282
  88.4295182  43.1904934  86.9625656  88.2025826  44.2588204  88.0109250
  92.5272305  46.7602067  90.9720789  92.7458315  47.6919175  90.9908823
  92.9398079  46.4010042  91.7575593  99.4476523  37.2670153  82.9596477
  98.6377251  36.9217238  83.3351723 100.1360940  36.9577696  83.5484089
 101.3767071  36.3448199  84.5820774 101.9298110  36.7643653  85.2410797
 101.6137158  35.4183947  84.6243730  97.4000171  42.3335273 100.3623538
  97.2996898  43.2829630 100.2935629  97.1821713  42.0053512  99.4899608
  96.6013242  39.5820198  76.9464215  97.4632406  39.9075096  77.2060032
  96.7863586  38.7951694  76.4337281  88.6180658  47.6642538  89.2244404
  87.9244129  47.2496491  88.7114358  89.3653649  47.7063074  88.6277823
 104.7545878  38.4548724  84.0899438 104.1744548  39.1133529  83.7077491
 104.4881811  37.6326069  83.6786856 103.2049445  37.8553782  86.2920758
 103.7049223  37.9670317  85.4835077 103.8485053  37.5514835  86.9321567
  97.2631441  45.7632412  99.1788599  96.7798522  46.5632772  99.3852488
  97.3492380  45.7740357  98.2256043  90.5317400  47.5960792  87.1010419
  90.5088088  47.6948479  86.1492302  90.8418037  48.4425942  87.4227585
  93.1904778  49.6536947  91.2157033  94.1448032  49.6220889  91.1486965
  92.9917302  49.1927570  92.0307259  93.7804160  48.2238063  93.7827831
  94.5997049  48.7182141  93.8062668  94.0540968  47.3070031  93.7545398
 103.5370757  40.6148815  83.1455786 102.6496612  40.8998466  82.9275981
 103.9524746  40.4542578  82.2983063 106.8885293  40.6395336  86.8610126
 107.6645683  41.1291788  87.1334742 106.1633427  41.0653390  87.3181995
 109.3257851  41.3522955  87.9184066 109.9202342  41.1118691  87.2077374
 109.3984435  40.6330086  88.5457603  91.5455007  55.1956566  88.2327231
  91.4109475  54.4356967  87.6665229  91.1287069  55.9197466  87.7656020
 102.6813970  50.3793490  77.2403806 103.3849820  50.5843492  77.8561462
 101.9576619  50.9470251  77.5052890 103.5111780  46.1303351  83.3606077
 103.4546982  46.5871902  82.5213709 104.0640123  45.3694035  83.1828919
 107.3216586  41.9193083  84.1856196 107.0653520  41.5189718  85.0164404
 106.6969454  42.6336877  84.0606335 111.6328924  44.6589156  86.6927487
 111.0728482  44.7282345  87.4659049 111.0272427  44.4830141  85.9726984
  94.7024133  56.0925883  88.4445674  94.5856517  57.0371316  88.3424364
  93.8816579  55.7899445  88.8331473 104.5900667  50.8176019  79.2902266
 105.4246271  50.3857217  79.1079741 104.4285010  50.6458032  80.2179161
 104.2446560  47.3208132  80.6558606 104.1895363  47.1552403  79.7147050
 103.6192615  48.0284165  80.8120795  89.0339075  42.5576196  94.4820028
  89.6797938  42.0475150  94.9707253  88.8256226  43.2944878  95.0563453
 101.5592467  49.6257044  99.9812168 102.4283626  49.7997696  99.6198803
 101.0799218  50.4451461  99.8587898  97.5542685  36.8216241  80.2343924
  97.5421355  37.7658081  80.3912195  98.4466107  36.6386386  79.9403385
  95.7278647  56.7454145  91.6601602  96.6305894  56.7777755  91.9768097
  95.5016017  55.8154596  91.6747938  97.4832249  55.4985131  88.3211681
  96.5327880  55.4986993  88.2076053  97.7864735  54.7517866  87.8047715
 101.3694804  33.4159018  84.4889861 100.6027200  32.8617504  84.6346543
 101.7805509  33.4880886  85.3504013  93.3736566  39.7043814  98.5795042
  94.2368027  39.3480618  98.7898367  92.8001976  39.3657708  99.2670446
 113.2184942  61.3345670  89.3857443 113.8563352  61.2152417  88.6820783
 113.1005785  62.2826514  89.4445395 110.0274649  61.2873098  89.3218968
 109.6893160  61.1714163  88.4339503 110.8964417  60.8864263  89.3019974
 105.8861464  63.1408574  85.3115859 105.3226330  63.0498511  84.5432147
 105.7713859  62.3208479  85.7918351 110.5094432  62.4407950  95.2805173
 110.4983073  62.0460748  94.4085677 110.6715071  61.7074022  95.8738945
 103.4325896  64.6359766  88.1500079 104.2247188  64.2950591  87.7346379
 103.6722547  64.7454741  89.0702233 111.4661023  66.8079542  80.6230324
 110.8149003  67.3933622  80.2364337 112.2605386  67.3385737  80.6825361
 105.3916650  63.8968679  81.0217458 106.1647526  63.3497666  80.8830334
 105.7442049  64.7612929  81.2331919 107.2301693  65.2245061  94.2284357
 106.9391559  66.1290692  94.1131024 107.8658677  65.2661589  94.9428427
 108.1557900  62.6021910  90.8185717 108.7521472  62.3777932  90.1042680
 108.2132871  61.8606655  91.4211165 107.7282928  60.0561345  78.6535908
 107.9808449  59.5342867  77.8919371 106.7907487  59.8927491  78.7562592
 112.7726211  59.0597124  86.4610651 113.5589300  58.6416547  86.1101068
 113.0364915  59.9643216  86.6292300 112.9436288  64.4969974  81.1599308
 112.3082121  64.5704601  81.8720213 112.6133695  65.0863573  80.4818387
 118.1734638  58.9972357  87.3643630 118.9059810  58.4271574  87.5981459
 117.4173994  58.6093957  87.8050135 107.4479217  61.9589451  80.8560283
 107.3315475  61.2834355  81.5241367 107.5581477  61.4721825  80.0392436
 109.7910758  61.4199598  84.5606972 109.4268965  60.8930219  85.2719894
 110.6477874  61.0298067  84.3873458 115.6960058  52.7093931  91.8238238
 115.3643383  53.5789342  91.5999453 115.1005672  52.3930215  92.5032269
 109.4316245  56.4489498  79.5568321 109.5990647  57.3169735  79.9238792
 109.2413414  56.6116780  78.6329610 112.1891578  64.9106477  91.2234151
 111.8892301  65.8131516  91.1149958 111.8442637  64.6438660  92.0755304
 105.6404059  61.3620274  87.2570855 104.7154556  61.2296488  87.4648547
 105.8888473  62.1414493  87.7540798 115.5888722  57.4289017  88.9031588
 114.6805599  57.3604426  88.6090349 115.5376318  57.9060962  89.7313414
 109.4105466  58.9047156  80.5414988 109.2905091  59.3504206  81.3800468
 108.7158054  59.2532473  79.9828526 103.0012870  61.0053547  88.0914645
 103.1305252  61.2588026  89.0054056 102.3210322  61.5981255  87.7719300
 107.1712358  71.6750797  84.1905119 107.0936387  72.6258622  84.2693599
 106.5674001  71.3296670  84.8480045 109.6629588  58.8478663  96.8466486
 108.8862922  59.4072583  96.8369350 110.3020151  59.3335446  97.3681356
 117.4550368  55.6305456  90.6809462 116.8124748  55.9237989  90.0349257
 116.9505297  55.5158376  91.4862659 115.1090532  59.3768629  81.3695322
 116.0208388  59.6096016  81.1943019 114.6000179  59.9605673  80.8070400
 107.9175960  61.6564116  96.4084453 108.6590644  62.1949160  96.1319276
 107.2112945  62.2830405  96.5656004 113.3931299  63.7993257  95.0056614
 113.8014656  63.3575667  94.2611246 112.6708561  63.2245884  95.2590807
 109.7462370  58.7365863  92.3790171 110.5923565  59.1605277  92.5224820
 109.6861007  58.0799488  93.0728734 113.7160114  64.3594447  88.7608903
 113.0868977  64.5240161  88.0584971 113.3285776  64.7736057  89.5319867
 117.5949346  65.2948885  86.1153267 116.9100384  65.6747786  85.5650300
 117.6793195  65.9044212  86.8485215 112.8961815  56.3970232  94.0371345
 112.6522747  57.1512292  93.5005620 113.1721745  56.7755579  94.8718592
 114.8500278  62.9408844  92.7148610 115.0617173  63.5840604  92.0382991
 114.8030026  62.1071161  92.2470540 112.4526507  55.5526665  89.6185182
 111.5910986  55.8507918  89.9101920 112.4788941  55.7697064  88.6866215
 109.2688076  64.0968855  86.0258988 109.7326422  64.3756558  85.2363611
 109.0044874  63.1952300  85.8432079 106.1612157  63.6440337  88.9638751
 106.7313514  64.0727605  88.3256236 106.7520269  63.3622922  89.6622937
 108.2056962  60.2192008  82.8348553 108.9081005  60.6713051  83.3022480
 107.8737591  59.5775827  83.4628446 106.6537324  58.8103764  97.2099763
 106.0235984  59.4920045  97.4435159 106.5473411  58.6986846  96.2652901
 101.9482296  58.4775560  88.1365687 101.1581350  58.7333089  87.6605797
 102.4393543  59.2923898  88.2417727 115.9646106  65.8180800  90.8870968
 116.7863549  65.4160987  90.6053649 115.9608508  65.7149034  91.8387083
 103.8997041  58.8420140  85.0949164 103.1028205  58.9538834  85.6132659
 103.6722634  59.1806792  84.2290054 109.7302709  65.3664843  93.0431678
 109.7947142  65.8285250  93.8789850 109.0213633  64.7362208  93.1713988
 100.2319999  58.7306051  90.5680678 100.4828037  59.6153061  90.8338254
 100.7679547  58.5510652  89.7955769 109.4450727  67.0332950  82.9110658
 109.3096401  67.8784486  83.3395506 109.9860539  67.2352228  82.1476592
 105.9318066  53.1124530  99.5725014 105.5385012  52.5590729 100.2472658
 106.7484207  53.4235109  99.9631531 102.8980124  64.5508388  83.4838584
 103.4104645  65.3451639  83.6344148 103.5502837  63.8534679  83.4172185
 104.7075009  67.6674145  85.5661337 104.8841637  68.5892109  85.3782321
 105.5031842  67.3532564  85.9955717 108.8486027  54.5282409  97.1645270
 109.5895741  55.1289562  97.0849733 109.0803950  53.7860047  96.6063313
 103.9927365  59.7138777  95.4423500 103.8780880  58.8124034  95.7430599
 103.1371883  59.9602473  95.0908316 111.0719203  67.6556517  97.0411001
 110.6283057  66.8692895  96.7231905 111.7336417  67.8435667  96.3754891
 105.8306324  69.1852318  91.5671679 106.3813749  69.0569382  90.7948673
 104.9917800  69.4847207  91.2166572 113.1700441  67.9359317  95.0692402
 113.1518916  68.7568198  94.5772671 114.0920361  67.8113392  95.2942543
 109.6273495  65.4503446  95.9115910 110.1601832  64.6891734  95.6815218
 109.0987576  65.1577098  96.6540065 112.7943190  50.5563512  91.4409552
 112.4507460  51.4465154  91.3648663 113.1622153  50.3665170  90.5779137
 100.8629041  62.8797043  84.2598154 101.7004263  63.2894051  84.0431862
 101.0407309  61.9396485  84.2298348 112.7593473  60.5472123  79.9481987
 112.2440096  61.3176728  80.1870374 112.4870781  59.8737259  80.5715048
 110.3440584  55.3921824  85.0067225 109.4882180  55.0028674  84.8272864
 110.7567536  55.4713785  84.1467011 111.8739731  52.9268167  89.4058785
 111.3704526  52.8898303  88.5926590 112.1670338  53.8360910  89.4655442
 108.1182617  53.0106897  88.4124967 108.9835613  52.8149706  88.0530856
 108.1860125  52.7817249  89.3394324 117.7327747  63.3004478  81.8835161
 116.9557190  62.9615637  81.4390323 118.4119228  63.3057101  81.2090126
 112.5479776  58.4199215  81.7741768 112.2429912  58.7345365  82.6251911
 113.5010218  58.4980635  81.8169101 110.9926208  64.5789439  83.4234722
 110.4647570  63.8442198  83.1107960 110.4913711  65.3564115  83.1774691
 115.9719054  62.7738459  88.5401769 115.3142728  63.4637721  88.6281897
 116.7759453  63.1634891  88.8835755 105.7244936  55.2409105  85.7841334
 106.2988688  55.0184286  85.0514527 106.3115918  55.3097800  86.5369935
 114.7824513  61.1282832  86.5905710 115.2956395  61.7612824  87.0927420
 115.4325737  60.5284027  86.2249070 106.0514523  57.2713566  79.8037219
 105.2151835  57.6088253  80.1246494 105.9119292  57.1362546  78.8664356
 108.0267603  52.1150354  84.5116403 107.3732016  51.7999371  83.8873018
 107.9848077  51.4926094  85.2376226 109.1378808  62.3969649  76.4269695
 108.2305870  62.1658902  76.6260844 109.6349840  61.6007268  76.6143677
 112.0446887  71.1067156  79.3466381 111.3708586  71.4098853  79.9551339
 112.4312709  71.9096237  78.9971838 111.2605344  58.6032287  88.8364051
 110.3427905  58.8247234  88.6785739 111.6765487  58.6778598  87.9775758
 112.0440391  60.0023703  83.9666731 112.7912210  60.5145100  83.6573853
 112.3131981  59.6807756  84.8271125 110.3167042  62.4982244  80.9493685
 109.4078261  62.2141277  81.0466155 110.3462125  62.9181322  80.0896992
 115.5486309  66.1088833  84.7184853 115.0948636  65.2679743  84.7750043
 114.9180276  66.7450232  85.0559633 114.4919229  57.0380819  85.9485520
 113.7541985  56.5258206  86.2795763 114.7446002  56.5981201  85.1368797
 113.9919248  67.9465330  85.6534671 114.2842223  68.5070387  84.9347037
 114.5017869  68.2393891  86.4087830 114.5930856  49.8157071  86.5427290
 114.8989733  48.9554435  86.2553205 115.3183461  50.4074692  86.3426284
 100.8855212  60.2187758  84.9308888 100.6879612  59.6257119  84.2059954
 100.3301876  59.9139968  85.6484826 108.8651936  60.1110864  87.0503481
 108.9200545  59.1584701  86.9745957 108.0543138  60.2670304  87.5344779
 110.0143129  64.0390988  78.2881764 109.5762559  63.3226846  77.8287401
 110.7553570  64.2667102  77.7266855 106.8044296  58.7287924  84.8093860
 105.9912161  59.0282095  85.2159052 107.3003290  58.3343613  85.5268342
 108.9552873  68.7245681  86.7428124 108.9129052  68.9506527  85.8136656
 109.8715572  68.4909056  86.8913925 112.4018507  59.1929749  93.6408753
 112.7567895  59.4201222  94.5003219 113.0490638  59.5248125  93.0186009
 118.1316244  62.3148185  84.3458082 117.9934143  62.5049781  83.4179272
 117.7752463  63.0767567  84.8026134 106.2958370  56.3006280  90.4255095
 106.9357750  56.1595039  89.7278058 105.4635901  56.0140793  90.0493696
 118.1585624  64.3824712  89.3569354 118.5922130  64.2900001  90.2052408
 118.8717205  64.3582212  88.7189370 107.0718674  65.6008710  86.5390087
 107.8659273  65.1059030  86.3372662 106.3610367  65.0726573  86.1757793
 111.8913519  67.9826806  90.8902455 111.9450541  68.5517742  91.6580170
 111.0228300  68.1528691  90.5256492 103.3801438  59.7451792  82.6149840
 102.4499026  59.6836247  82.8319802 103.4758910  59.2227745  81.8186481
 103.2986987  56.2706605  85.2028081 103.5593804  57.1851938  85.0937242
 104.1204159  55.8031047  85.3524694 104.7711912  57.6844362  92.3726906
 105.4434966  57.4761724  91.7239555 103.9441699  57.4866448  91.9332138
 119.0201173  64.4248412  91.8902239 119.2137063  65.3294223  92.1361514
 118.9201792  63.9655831  92.7240824 110.6737484  54.3106303  94.3892567
 110.0265399  55.0096252  94.2957043 111.4438499  54.7442447  94.7568815
 114.0816282  64.5755155  97.4643120 113.9301788  64.3465707  96.5473204
 114.0720962  65.5325756  97.4774465 110.8501618  62.1487068  92.4489386
 111.7793678  62.2998227  92.2758354 110.4292648  62.2371089  91.5938033
 109.6489950  66.1737732  90.2187924 109.5101036  65.8056517  91.0913862
 108.8604546  66.6885372  90.0471882 110.2438102  71.2746829  81.5613461
 110.4189858  70.8034872  82.3759083 109.5570890  71.9012595  81.7894721
 111.1995165  65.5519335  87.6076762 110.8644998  65.5120105  88.5034412
 110.6999111  64.8864051  87.1347172 105.1739409  60.9586965  93.1329343
 105.0359207  60.2267204  93.7340882 106.0844333  60.8695865  92.8513531
 114.1354357  62.8975369  77.8813821 113.5183528  62.1722197  77.7846874
 113.6670845  63.6584729  77.5380896 107.8021710  60.6706924  92.6213023
 108.5121329  60.0300116  92.5799641 107.7591018  60.9219819  93.5439203
 115.7908489  67.6074278  95.5419602 115.7321035  66.9233498  94.8750185
 116.1928007  68.3493268  95.0900228 106.5150644  57.6572142  94.4408662
 105.9788001  57.2062881  95.0930258 105.9267352  57.7918051  93.6979126
 104.8099187  74.4236191  88.3353321 105.0495786  75.0554716  89.0132339
 103.9668384  74.0724231  88.6218680 105.9252903  57.1160793  77.0035126
 105.0482369  56.9949594  76.6397372 106.4010656  56.3246872  76.7514014
 115.7925896  65.5713861  93.7733582 114.9052675  65.2339783  93.8959980
 116.3624447  64.8396893  94.0102347  97.4455043  61.9037953  87.0976633
  98.1326083  61.5899683  86.5097648  97.2903172  62.8079318  86.8243884
 102.2489765  56.7928150  91.5261657 102.1647954  56.1853819  90.7912067
 101.4272472  57.2837168  91.5271153 109.3227049  70.2315314  90.7394825
 109.2497221  71.0370285  91.2514129 108.8804442  70.4307280  89.9142846
 109.1116829  69.4687084  84.2497646 108.3284351  70.0108764  84.3435871
 109.8109574  69.9861063  84.6491887 112.4213479  55.2781713  86.8931852
 112.9182179  54.5251676  86.5732922 111.6500461  55.3146030  86.3275061
 120.2743236  60.9822079  88.5350143 120.2633113  61.8646794  88.1644076
 119.4060616  60.6293630  88.3404680 111.7825733  70.1302148  92.8952983
 112.4953705  70.7649613  92.8228885 111.2915762  70.2266014  92.0792985
 113.5043260  64.0353401  84.4670275 112.5699539  64.1554863  84.2974979
 113.6819928  63.1325867  84.2030285 109.0048448  57.4199096  86.6203536
 108.6346235  56.8670137  87.3084442 109.5007540  56.8157230  86.0678536
 116.8915811  59.8770720  85.0020309 117.3576263  60.7098711  84.9280612
 117.3423312  59.4115701  85.7065568 106.8337646  67.8796591  93.7158554
 107.5347106  68.5133074  93.8687948 106.3632761  68.2211323  92.9554193
 114.9592042  66.2214541  82.0006461 115.2351886  66.1071136  82.9100335
 114.0896541  65.8232026  81.9618634 114.8632474  52.2451307  89.0411211
 113.9495554  52.4755534  89.2093417 115.2925575  52.3289751  89.8925243
 114.6338932  60.4341199  91.5411105 113.9810383  60.6817106  90.8863557
 115.0119312  59.6205337  91.2073582 111.5946106  70.4700892  85.6439275
 111.7768501  69.6522548  86.1067027 112.4179092  70.6868584  85.2064165
 111.9288272  69.3969077  82.9054323 112.4576038  68.8861532  82.2924485
 112.1916491  69.0811607  83.7699856 110.6826505  61.1761010  98.0277142
 110.0067142  61.0755139  98.6979517 111.5054139  61.0200224  98.4913139
 102.4305364  67.4132946  90.6489657 103.0158801  66.6676634  90.7817561
 102.2330203  67.7236903  91.5326321 105.2844020  70.4484194  85.6652099
 104.6154395  70.9330321  85.1816139 105.1456889  70.6953414  86.5795478
  97.0223019  59.9838547  89.3694100  97.0607119  59.4502137  90.1631218
  96.5163312  59.4573752  88.7505077 109.4249288  72.4827937  92.2634758
 109.9767596  72.6459559  93.0283843 109.7655482  73.0732375  91.5914782
 104.4013781  54.8303087  92.8656642 104.4655108  55.6917918  92.4534040
 104.3380902  54.2177089  92.1329001 103.8766054  56.9026220  96.5129677
 104.5038093  56.5203297  97.1267201 103.0193973  56.6840422  96.8785369
 114.2760163  67.3089195  98.1183412 114.8200067  67.9219153  97.6238367
 113.6947007  67.8668773  98.6350425 100.6531597  58.7102649  82.4448031
 100.9485038  57.8013327  82.3915085  99.7519633  58.6890388  82.1229034
 112.5617676  70.4309913  89.2498440 112.4368815  69.6299653  88.7409385
 113.2196767  70.9256106  88.7612410 104.1825844  56.7858645  88.4275580
 103.4612430  57.3994613  88.2883053 104.9719100  57.3216410  88.3492226
 114.6252584  68.2318933  90.8777990 113.6782919  68.1124284  90.8056317
 114.9735357  67.3441431  90.9604251 106.9852157  54.1213072  94.7016232
 107.5086559  54.3675368  95.4642541 106.7664491  54.9533107  94.2819369
 102.3819438  56.3916746  82.5687357 102.0532145  55.5114125  82.3862463
 102.7358809  56.3364415  83.4563746 111.6299017  68.0271649  87.0782342
 111.4823980  67.0988357  87.2589912 112.4552511  68.0491740  86.5939417
 105.4961262  56.6789716  82.9362834 105.8357334  57.2075637  82.2141443
 105.9433382  57.0170122  83.7121401 115.2333139  68.8500208  88.1647215
 116.1579687  68.6443069  88.0271666 115.0648442  68.6016609  89.0736556
 108.1904702  55.0626767  92.3865902 107.8501523  54.2634580  92.7886582
 107.4843709  55.3628478  91.8142736 108.8421174  52.1476079  90.8393225
 109.6647243  51.6736558  90.7172116 109.0859238  52.9266563  91.3391912
 107.4829409  55.1764338  81.1356127 108.2037771  55.5545591  80.6319844
 106.8594713  55.8953215  81.2391105 111.6260532  55.8809487  82.0714459
 111.8424146  56.7634125  81.7703288 111.1454599  55.4895700  81.3420101
 106.3659753  58.8395200  88.6485204 106.2204334  59.1535503  89.5409485
 105.8884957  59.4580100  88.0956103 108.2256136  55.8297748  88.6966094
 108.2117705  54.9338841  88.3598391 108.9428564  55.8368412  89.3304380
 110.0782267  56.2635088  90.7419221 109.8200044  57.1852159  90.7403551
 109.5467307  55.8665523  91.4319685 115.0228455  69.3685875  83.5209306
 115.1965333  68.8032298  82.7683159 115.5157347  70.1686770  83.3388796
 100.8405415  61.3800544  91.5872865 100.2958883  62.1560352  91.7193139
 101.7184765  61.7271349  91.4291987 107.6293032  54.7112128  83.9653664
 107.7508943  53.7828774  84.1644551 107.3395074  54.7250814  83.0531979
 110.4984222  52.3967039  87.1020383 110.5205919  52.4606372  86.1472363
 110.9152281  51.5571547  87.2960890 120.8767846  62.1322298  85.1399606
 121.3198992  61.3829623  84.7418729 119.9994357  62.1232435  84.7573338
 116.0103628  68.6852640  80.6206205 116.7054532  69.3059332  80.8393519
 116.3526778  67.8347991  80.8958582 101.6271437  60.5070441  94.4803022
 100.8853173  60.6553076  95.0667652 101.3064181  60.7678706  93.6169771
 117.9095051  66.1352345  82.1493535 118.4346375  66.4739618  81.4242855
 117.8217403  65.1999361  81.9656670 109.5715100  70.0486419  94.2783412
 109.8802226  69.8035566  95.1506112 110.3690582  70.2533057  93.7902282
 109.5935712  72.2024328  86.5088789 109.1540702  71.7100707  87.2021645
 110.3443829  71.6597296  86.2680864 102.0728051  68.3935869  86.5113417
 102.8986071  68.0939641  86.1312060 101.7222103  67.6243492  86.9603205
 107.0409584  67.7462338  88.5811090 106.4189593  67.0833043  88.2813318
 107.7114451  67.7723469  87.8984738 100.2736656  66.3122196  87.4702350
  99.4368564  65.8844370  87.2886351 100.2460301  66.5054639  88.4073141
 107.1134111  56.2244126  98.1743596 107.1622267  57.1006248  97.7921366
 107.6556625  55.6821519  97.6015239 117.5988957  66.7685249  97.4544733
 116.8084501  66.7509388  96.9149233 117.3622312  67.3073543  98.2093770
 117.7186832  63.6177715  94.7677462 117.7684837  63.4527723  95.7092985
 117.6100755  62.7504974  94.3775343 106.6023091  66.2966261  82.0569551
 106.7511211  66.9801725  81.4036224 107.4089534  66.2771351  82.5719007
 115.0090594  59.6008643  96.0836769 115.9100457  59.4615108  95.7920766
 115.0838569  59.7663098  97.0234946 109.3433400  56.9775498  94.9289955
 108.4736709  57.2709064  94.6572543 109.5792880  57.5615943  95.6497219
 119.2205029  66.0374657  95.0119483 118.9289837  66.4004637  95.8482944
 118.6077160  65.3241665  94.8332815 120.4200711  63.6027537  87.5322054
 121.2547603  64.0417341  87.6959614 120.5559840  63.1266190  86.7130299
 117.4692217  61.1607271  93.4799541 117.9446339  61.3534918  92.6718393
 116.5457782  61.2166457  93.2342925 104.3575724  62.3231439  83.0630620
 104.1121766  61.4193769  83.2610830 104.5271638  62.3248589  82.1210098
 112.0472434  53.1955115  92.4455375 112.5654377  53.9316142  92.1201864
 111.6927566  53.5019108  93.2802134 103.6271371  58.0559796  80.5616781
 102.9340616  58.1304151  79.9056817 103.3823123  57.2920140  81.0838298
 112.2985028  49.6155397  87.9656272 112.5786782  48.9478587  88.5916698
 113.0835635  49.8084493  87.4530936 110.1018496  68.7914391  79.5281298
 109.5292463  69.4104578  79.0751770 110.6751290  69.3413753  80.0621220
 116.1693886  58.0373031  91.7127847 117.1211309  58.1371129  91.7340071
 115.9997336  57.2451300  92.2225931 114.1908266  55.1228615  91.8987248
 113.5958198  55.4033627  91.2033737 113.9057962  55.6122516  92.6703989
 113.3215756  69.0751541  80.6589880 114.2546429  69.0097103  80.8622756
 113.2338969  69.9107808  80.2004413 115.9503773  68.3917412  77.6193828
 115.8717404  68.0577275  78.5129586 116.7713439  68.8839180  77.6185300
 118.6481964  61.2579151  90.8270147 118.6158284  60.3195152  91.0129830
 119.2582588  61.3363188  90.0935972 110.4865295  60.1275204  76.8697351
 111.4324399  59.9981412  76.9385769 110.1079540  59.3889866  77.3466779
 118.7976452  58.0490195  90.8728430 118.2815501  57.2648651  90.6858359
 119.6816401  57.7208911  91.0374949 116.4587179  51.7931210  86.8324243
 116.2612000  51.4846298  87.7167574 117.0686885  52.5192849  86.9622172
 110.3703987  64.1792950  98.3298008 111.2906997  64.3571549  98.5238054
 110.3353570  63.2348996  98.1777707 108.6708212  58.0525180  76.8052236
 107.7639667  57.7558293  76.8814950 108.9484193  57.7554999  75.9386522
  99.5886152  59.3731544  87.2551282  99.2688937  58.5196852  86.9625656
  99.0419580  59.5880122  88.0109250 103.3666060  62.0893985  90.9720789
 103.5852070  63.0211093  90.9908823 103.7791834  61.7301959  91.7575593
 110.2870278  52.5962070  82.9596477 109.4771006  52.2509155  83.3351723
 110.9754695  52.2869614  83.5484089 112.2160826  51.6740117  84.5820774
 112.7691865  52.0935570  85.2410797 112.4530912  50.7475865  84.6243730
 108.2393925  57.6627191 100.3623538 108.1390652  58.6121548 100.2935629
 108.0215467  57.3345430  99.4899608 107.4406997  54.9112116  76.9464215
 108.3026161  55.2367014  77.2060032 107.6257341  54.1243612  76.4337281
  99.4574412  62.9934455  89.2244404  98.7637884  62.5788408  88.7114358
 100.2047403  63.0354992  88.6277823 115.5939633  53.7840642  84.0899438
 115.0138302  54.4425446  83.7077491 115.3275566  52.9617987  83.6786856
 114.0443199  53.1845700  86.2920758 114.5442978  53.2962234  85.4835077
 114.6878807  52.8806753  86.9321567 108.1025195  61.0924330  99.1788599
 107.6192277  61.8924690  99.3852488 108.1886134  61.1032274  98.2256043
 101.3711155  62.9252709  87.1010419 101.3481843  63.0240396  86.1492302
 101.6811791  63.7717860  87.4227585 104.0298533  64.9828864  91.2157033
 104.9841786  64.9512807  91.1486965 103.8311056  64.5219488  92.0307259
 104.6197915  63.5529980  93.7827831 105.4390804  64.0474059  93.8062668
 104.8934723  62.6361948  93.7545398 114.3764511  55.9440733  83.1455786
 113.4890366  56.2290383  82.9275981 114.7918500  55.7834496  82.2983063
 117.7279047  55.9687254  86.8610126 118.5039437  56.4583706  87.1334742
 117.0027181  56.3945308  87.3181995 120.1651606  56.6814873  87.9184066
 120.7596097  56.4410609  87.2077374 120.2378189  55.9622003  88.5457603
 102.3848761  70.5248484  88.2327231 102.2503229  69.7648885  87.6665229
 101.9680824  71.2489384  87.7656020 113.5207724  65.7085407  77.2403806
 114.2243575  65.9135410  77.8561462 112.7970373  66.2762169  77.5052890
 114.3505535  61.4595268  83.3606077 114.2940736  61.9163820  82.5213709
 114.9033877  60.6985953  83.1828919 118.1610341  57.2485000  84.1856196
 117.9047275  56.8481636  85.0164404 117.5363209  57.9628794  84.0606335
 122.4722679  59.9881074  86.6927487 121.9122236  60.0574263  87.4659049
 121.8666182  59.8122058  85.9726984 105.5417887  71.4217801  88.4445674
 105.4250271  72.3663233  88.3424364 104.7210334  71.1191362  88.8331473
 115.4294422  66.1467936  79.2902266 116.2640026  65.7149135  79.1079741
 115.2678765  65.9749950  80.2179161 115.0840314  62.6500050  80.6558606
 115.0289118  62.4844321  79.7147050 114.4586369  63.3576083  80.8120795
  99.8732829  57.8868114  94.4820028 100.5191693  57.3767068  94.9707253
  99.6649980  58.6236796  95.0563453 112.3986221  64.9548962  99.9812168
 113.2677381  65.1289614  99.6198803 111.9192973  65.7743378  99.8587898
 108.3936440  52.1508159  80.2343924 108.3815109  53.0949999  80.3912195
 109.2859861  51.9678304  79.9403385 106.5672401  72.0746063  91.6601602
 107.4699648  72.1069673  91.9768097 106.3409772  71.1446514  91.6747938
 108.3226003  70.8277049  88.3211681 107.3721634  70.8278911  88.2076053
 108.6258490  70.0809784  87.8047715 112.2088559  48.7450935  84.4889861
 111.4420955  48.1909422  84.6346543 112.6199264  48.8172804  85.3504013
 104.2130320  55.0335731  98.5795042 105.0761782  54.6772536  98.7898367
 103.6395731  54.6949626  99.2670446 120.8668403  76.6165016  89.3218968
 120.5286915  76.5006080  88.4339503 121.7358171  76.2156181  89.3019974
 116.7255219  78.4700492  85.3115859 116.1620084  78.3790429  84.5432147
 116.6107614  77.6500397  85.7918351 121.3488186  77.7699867  95.2805173
 121.3376827  77.3752666  94.4085677 121.5108826  77.0365940  95.8738945
 114.2719651  79.9651684  88.1500079 115.0640943  79.6242508  87.7346379
 114.5116301  80.0746659  89.0702233 116.2310405  79.2260597  81.0217458
 117.0041281  78.6789584  80.8830334 116.5835804  80.0904846  81.2331919
 118.0695447  80.5536979  94.2284357 117.7785313  81.4582610  94.1131024
 118.7052432  80.5953507  94.9428427 118.9951654  77.9313828  90.8185717
 119.5915226  77.7069850  90.1042680 119.0526626  77.1898573  91.4211165
 118.5676683  75.3853263  78.6535908 118.8202203  74.8634784  77.8919371
 117.6301242  75.2219408  78.7562592 118.2872971  77.2881369  80.8560283
 118.1709229  76.6126272  81.5241367 118.3975231  76.8013743  80.0392436
 120.6304512  76.7491516  84.5606972 120.2662720  76.2222137  85.2719894
 121.4871628  76.3589985  84.3873458 120.2709999  71.7781416  79.5568321
 120.4384402  72.6461652  79.9238792 120.0807168  71.9408697  78.6329610
 116.4797814  76.6912192  87.2570855 115.5548310  76.5588406  87.4648547
 116.7282227  77.4706411  87.7540798 120.2499220  74.2339073  80.5414988
 120.1298845  74.6796124  81.3800468 119.5551809  74.5824391  79.9828526
 113.8406625  76.3345465  88.0914645 113.9699006  76.5879944  89.0054056
 113.1604076  76.9273173  87.7719300 118.0106112  87.0042715  84.1905119
 117.9330142  87.9550540  84.2693599 117.4067756  86.6588588  84.8480045
 120.5023342  74.1770580  96.8466486 119.7256676  74.7364501  96.8369350
 121.1413905  74.6627363  97.3681356 118.7569714  76.9856034  96.4084453
 119.4984399  77.5241078  96.1319276 118.0506700  77.6122323  96.5656004
 120.5856124  74.0657781  92.3790171 121.4317319  74.4897195  92.5224820
 120.5254762  73.4091405  93.0728734 120.1081830  79.4260773  86.0258988
 120.5720176  79.7048476  85.2363611 119.8438629  78.5244218  85.8432079
 117.0005912  78.9732255  88.9638751 117.5707269  79.4019523  88.3256236
 117.5914023  78.6914839  89.6622937 119.0450717  75.5483925  82.8348553
 119.7474760  76.0004969  83.3022480 118.7131345  74.9067744  83.4628446
 117.4931078  74.1395682  97.2099763 116.8629739  74.8211963  97.4435159
 117.3867166  74.0278764  96.2652901 112.7876051  73.8067478  88.1365687
 111.9975104  74.0625007  87.6605797 113.2787298  74.6215816  88.2417727
 114.7390796  74.1712057  85.0949164 113.9421959  74.2830752  85.6132659
 114.5116388  74.5098709  84.2290054 120.5696464  80.6956761  93.0431678
 120.6340896  81.1577168  93.8789850 119.8607387  80.0654125  93.1713988
 111.0713753  74.0597968  90.5680678 111.3221792  74.9444978  90.8338254
 111.6073302  73.8802570  89.7955769 120.2844481  82.3624868  82.9110658
 120.1490156  83.2076404  83.3395506 120.8254294  82.5644146  82.1476592
 116.7711821  68.4416448  99.5725014 116.3778766  67.8882646 100.2472658
 117.5877961  68.7527026  99.9631531 113.7373879  79.8800306  83.4838584
 114.2498399  80.6743556  83.6344148 114.3896591  79.1826596  83.4172185
 115.5468763  82.9966062  85.5661337 115.7235392  83.9184027  85.3782321
 116.3425597  82.6824482  85.9955717 119.6879782  69.8574327  97.1645270
 120.4289495  70.4581480  97.0849733 119.9197705  69.1151965  96.6063313
 114.8321120  75.0430694  95.4423500 114.7174635  74.1415951  95.7430599
 113.9765638  75.2894391  95.0908316 116.6700079  84.5144236  91.5671679
 117.2207504  84.3861299  90.7948673 115.8311555  84.8139125  91.2166572
 120.4667250  80.7795364  95.9115910 120.9995587  80.0183652  95.6815218
 119.9381331  80.4869016  96.6540065 111.7022795  78.2088960  84.2598154
 112.5398017  78.6185969  84.0431862 111.8801063  77.2688402  84.2298348
 121.1834339  70.7213742  85.0067225 120.3275935  70.3320592  84.8272864
 121.5961290  70.8005703  84.1467011 118.9576371  68.3398815  88.4124967
 119.8229368  68.1441623  88.0530856 119.0253880  68.1109167  89.3394324
 121.8319962  79.9081356  83.4234722 121.3041324  79.1734116  83.1107960
 121.3307465  80.6856033  83.1774691 116.5638690  70.5701023  85.7841334
 117.1382442  70.3476204  85.0514527 117.1509673  70.6389717  86.5369935
 116.8908277  72.6005484  79.8037219 116.0545589  72.9380170  80.1246494
 116.7513047  72.4654463  78.8664356 118.8661358  67.4442272  84.5116403
 118.2125770  67.1291289  83.8873018 118.8241832  66.8218012  85.2376226
 119.9772563  77.7261567  76.4269695 119.0699624  77.4950820  76.6260844
 120.4743595  76.9299186  76.6143677 121.1560796  77.8274162  80.9493685
 120.2472015  77.5433194  81.0466155 121.1855880  78.2473240  80.0896992
 111.7248966  75.5479676  84.9308888 111.5273366  74.9549036  84.2059954
 111.1695630  75.2431886  85.6484826 119.7045690  75.4402782  87.0503481
 119.7594300  74.4876619  86.9745957 118.8936892  75.5962221  87.5344779
 120.8536884  79.3682905  78.2881764 120.4156314  78.6518764  77.8287401
 121.5947325  79.5959020  77.7266855 117.6438050  74.0579842  84.8093860
 116.8305916  74.3574012  85.2159052 118.1397044  73.6635531  85.5268342
 119.7946628  84.0537599  86.7428124 119.7522807  84.2798445  85.8136656
 120.7109327  83.8200973  86.8913925 117.1352125  71.6298197  90.4255095
 117.7751504  71.4886956  89.7278058 116.3029655  71.3432711  90.0493696
 117.9112429  80.9300628  86.5390087 118.7053027  80.4350948  86.3372662
 117.2004121  80.4018491  86.1757793 114.2195192  75.0743710  82.6149840
 113.2892780  75.0128165  82.8319802 114.3152664  74.5519662  81.8186481
 114.1380741  71.5998522  85.2028081 114.3987559  72.5143856  85.0937242
 114.9597914  71.1322965  85.3524694 115.6105667  73.0136280  92.3726906
 116.2828720  72.8053642  91.7239555 114.7835453  72.8158366  91.9332138
 121.5131239  69.6398220  94.3892567 120.8659154  70.3388170  94.2957043
 122.2832254  70.0734364  94.7568815 120.4883705  81.5029650  90.2187924
 120.3494790  81.1348434  91.0913862 119.6998301  82.0177289  90.0471882
 121.0831857  86.6038746  81.5613461 121.2583612  86.1326789  82.3759083
 120.3964645  87.2304512  81.7894721 122.0388920  80.8811252  87.6076762
 121.7038752  80.8412022  88.5034412 121.5392866  80.2155968  87.1347172
 116.0133164  76.2878883  93.1329343 115.8752962  75.5559121  93.7340882
 116.9238087  76.1987783  92.8513531 118.6415464  75.9998842  92.6213023
 119.3515083  75.3592034  92.5799641 118.5984773  76.2511737  93.5439203
 117.3544398  72.9864060  94.4408662 116.8181755  72.5354798  95.0930258
 116.7661107  73.1209969  93.6979126 115.6492942  89.7528109  88.3353321
 115.8889540  90.3846633  89.0132339 114.8062138  89.4016149  88.6218680
 116.7646657  72.4452711  77.0035126 115.8876124  72.3241512  76.6397372
 117.2404410  71.6538789  76.7514014 108.2848798  77.2329871  87.0976633
 108.9719837  76.9191601  86.5097648 108.1296926  78.1371236  86.8243884
 113.0883520  72.1220067  91.5261657 113.0041708  71.5145737  90.7912067
 112.2666226  72.6129086  91.5271153 120.1620804  85.5607231  90.7394825
 120.0890975  86.3662203  91.2514129 119.7198197  85.7599197  89.9142846
 119.9510583  84.7979002  84.2497646 119.1678105  85.3400682  84.3435871
 120.6503329  85.3152981  84.6491887 119.8442202  72.7491014  86.6203536
 119.4739990  72.1962054  87.3084442 120.3401295  72.1449147  86.0678536
 117.6731401  83.2088509  93.7158554 118.3740860  83.8424992  93.8687948
 117.2026516  83.5503241  92.9554193 121.5220260  76.5052927  98.0277142
 120.8460897  76.4047057  98.6979517 122.3447894  76.3492141  98.4913139
 113.2699119  82.7424864  90.6489657 113.8552556  81.9968552  90.7817561
 113.0723957  83.0528821  91.5326321 116.1237774  85.7776111  85.6652099
 115.4548149  86.2622239  85.1816139 115.9850644  86.0245332  86.5795478
 107.8616774  75.3130464  89.3694100 107.9000873  74.7794055  90.1631218
 107.3557067  74.7865670  88.7505077 120.2643043  87.8119855  92.2634758
 120.8161351  87.9751476  93.0283843 120.6049236  88.4024293  91.5914782
 115.2407536  70.1595005  92.8656642 115.3048862  71.0209836  92.4534040
 115.1774656  69.5469006  92.1329001 114.7159809  72.2318137  96.5129677
 115.3431847  71.8495215  97.1267201 113.8587727  72.0132339  96.8785369
 111.4925351  74.0394566  82.4448031 111.7878792  73.1305245  82.3915085
 110.5913387  74.0182306  82.1229034 115.0219598  72.1150563  88.4275580
 114.3006184  72.7286531  88.2883053 115.8112854  72.6508328  88.3492226
 117.8245912  69.4504989  94.7016232 118.3480314  69.6967286  95.4642541
 117.6058245  70.2825024  94.2819369 113.2213193  71.7208664  82.5687357
 112.8925899  70.8406043  82.3862463 113.5752564  71.6656333  83.4563746
 116.3355016  72.0081634  82.9362834 116.6751089  72.5367555  82.2141443
 116.7827136  72.3462040  83.7121401 119.0298457  70.3918685  92.3865902
 118.6895277  69.5926498  92.7886582 118.3237463  70.6920395  91.8142736
 119.6814929  67.4767997  90.8393225 120.5040998  67.0028475  90.7172116
 119.9252992  68.2558481  91.3391912 118.3223163  70.5056255  81.1356127
 119.0431526  70.8837508  80.6319844 117.6988467  71.2245132  81.2391105
 117.2053507  74.1687118  88.6485204 117.0598088  74.4827421  89.5409485
 116.7278711  74.7872018  88.0956103 119.0649890  71.1589666  88.6966094
 119.0511459  70.2630759  88.3598391 119.7822318  71.1660329  89.3304380
 120.9176021  71.5927006  90.7419221 120.6593799  72.5144076  90.7403551
 120.3861061  71.1957440  91.4319685 111.6799170  76.7092462  91.5872865
 111.1352638  77.4852270  91.7193139 112.5578519  77.0563267  91.4291987
 118.4686786  70.0404046  83.9653664 118.5902697  69.1120692  84.1644551
 118.1788829  70.0542732  83.0531979 121.3377977  67.7258956  87.1020383
 121.3599673  67.7898289  86.1472363 121.7546036  66.8863465  87.2960890
 112.4665191  75.8362358  94.4803022 111.7246927  75.9844994  95.0667652
 112.1457936  76.0970624  93.6169771 120.4108854  85.3778337  94.2783412
 120.7195981  85.1327483  95.1506112 121.2084336  85.5824975  93.7902282
 120.4329466  87.5316246  86.5088789 119.9934456  87.0392625  87.2021645
 121.1837583  86.9889214  86.2680864 112.9121805  83.7227787  86.5113417
 113.7379825  83.4231559  86.1312060 112.5615857  82.9535409  86.9603205
 117.8803338  83.0754255  88.5811090 117.2583348  82.4124960  88.2813318
 118.5508205  83.1015387  87.8984738 111.1130410  81.6414113  87.4702350
 110.2762318  81.2136288  87.2886351 111.0854056  81.8346557  88.4073141
 117.9527866  71.5536043  98.1743596 118.0016021  72.4298166  97.7921366
 118.4950380  71.0113436  97.6015239 117.4416845  81.6258179  82.0569551
 117.5904966  82.3093643  81.4036224 118.2483289  81.6063269  82.5719007
 120.1827154  72.3067416  94.9289955 119.3130464  72.6000982  94.6572543
 120.4186635  72.8907861  95.6497219 115.1969478  77.6523356  83.0630620
 114.9515520  76.7485686  83.2610830 115.3665393  77.6540507  82.1210098
 114.4665126  73.3851714  80.5616781 113.7734371  73.4596069  79.9056817
 114.2216878  72.6212057  81.0838298 120.9412251  84.1206309  79.5281298
 120.3686218  84.7396496  79.0751770 121.5145044  84.6705671  80.0621220
 121.3259049  75.4567122  76.8697351 122.2718154  75.3273330  76.9385769
 120.9473294  74.7181784  77.3466779 121.2097742  79.5084868  98.3298008
 122.1300751  79.6863467  98.5238054 121.1747325  78.5640913  98.1777707
 119.5101966  73.3817098  76.8052236 118.6033422  73.0850211  76.8814950
 119.7877947  73.0846916  75.9386522 110.4279907  74.7023462  87.2551282
 110.1082691  73.8488770  86.9625656 109.8813335  74.9172040  88.0109250
 114.2059814  77.4185903  90.9720789 114.4245824  78.3503010  90.9908823
 114.6185588  77.0593877  91.7575593 121.1264032  67.9253988  82.9596477
 120.3164760  67.5801073  83.3351723 121.8148449  67.6161532  83.5484089
 119.0787680  72.9919108 100.3623538 118.9784407  73.9413465 100.2935629
 118.8609222  72.6637347  99.4899608 118.2800751  70.2404033  76.9464215
 119.1419915  70.5658932  77.2060032 118.4651095  69.4535529  76.4337281
 110.2968167  78.3226373  89.2244404 109.6031638  77.9080326  88.7114358
 111.0441158  78.3646910  88.6277823 118.9418950  76.4216247  99.1788599
 118.4586031  77.2216607  99.3852488 119.0279889  76.4324192  98.2256043
 112.2104909  78.2544627  87.1010419 112.1875597  78.3532314  86.1492302
 112.5205546  79.1009778  87.4227585 114.8692287  80.3120782  91.2157033
 115.8235541  80.2804724  91.1486965 114.6704811  79.8511406  92.0307259
 115.4591669  78.8821898  93.7827831 116.2784558  79.3765977  93.8062668
 115.7328477  77.9653866  93.7545398 113.2242516  85.8540401  88.2327231
 113.0896984  85.0940802  87.6665229 112.8074578  86.5781301  87.7656020
 116.3811642  86.7509718  88.4445674 116.2644026  87.6955151  88.3424364
 115.5604088  86.4483280  88.8331473 110.7126584  73.2160032  94.4820028
 111.3585447  72.7058986  94.9707253 110.5043735  73.9528713  95.0563453
 119.2330194  67.4800076  80.2343924 119.2208864  68.4241916  80.3912195
 120.1253616  67.2970222  79.9403385 117.4066156  87.4037980  91.6601602
 118.3093403  87.4361591  91.9768097 117.1803526  86.4738431  91.6747938
 119.1619758  86.1568967  88.3211681 118.2115389  86.1570828  88.2076053
 119.4652244  85.4101701  87.8047715 115.0524075  70.3627649  98.5795042
 115.9155536  70.0064454  98.7898367 114.4789485  70.0241544  99.2670446
 121.9107508  89.3889886  90.5680678 122.1615546  90.2736896  90.8338254
 122.4467056  89.2094488  89.7955769 119.1242552  92.5621789  87.0976633
 119.8113592  92.2483519  86.5097648 118.9690681  93.4663153  86.8243884
 118.7010528  90.6422382  89.3694100 118.7394628  90.1085973  90.1631218
 118.1950821  90.1157587  88.7505077 121.9524165  96.9706031  87.4702350
 121.1156073  96.5428206  87.2886351 121.9247810  97.1638474  88.4073141
 121.2673661  90.0315379  87.2551282 120.9476446  89.1780687  86.9625656
 120.7207089  90.2463957  88.0109250 121.1361921  93.6518291  89.2244404
 120.4425393  93.2372244  88.7114358 121.8834912  93.6938827  88.6277823
 121.5520338  88.5451949  94.4820028 122.1979202  88.0350903  94.9707253
 121.3437489  89.2820631  95.0563453  74.6531096   2.6937167  70.9150425
  74.5755125   3.6444992  70.9938906  74.0492739   2.3483039  71.5725352
  72.2917925   5.4422561  75.0598627  72.5314523   6.0741085  75.7377646
  71.4487122   5.0910601  75.3463987  72.7662757   1.4670563  72.3897406
  72.0973133   1.9516691  71.9061446  72.6275627   1.7139784  73.3040784
  76.9068026   3.5014307  78.9880064  77.4586334   3.6645928  79.7529150
  77.2474220   4.0918745  78.3160089  77.0754449   3.2210698  73.2334095
  76.6359440   2.7287077  73.9266952  77.8262566   2.6783666  72.9926170
  69.8667499   1.5434853  74.9572538  69.7321967   0.7835254  74.3910536
  69.4499562   2.2675753  74.4901327  73.0236625   2.4404170  75.1690980
  72.9069009   3.3849603  75.0669671  72.2029071   2.1377732  75.5576780
  74.0491139   3.0932432  78.3846909  74.9518386   3.1256042  78.7013404
  73.8228509   2.1632883  78.3993245  88.3487141   7.6351385  76.0464275
  88.0105653   7.5192450  75.1584809  89.2176909   7.2342550  76.0265281
  84.2073957   9.4886862  72.0361165  83.6438822   9.3976799  71.2677453
  84.0926352   8.6686766  72.5163658  88.8306924   8.7886237  82.0050480
  88.8195565   8.3939035  81.1330984  88.9927563   8.0552310  82.5984251
  81.7538389  10.9838053  74.8745386  82.5459681  10.6428878  74.4591685
  81.9935039  11.0933028  75.7947539  89.7873515  13.1557829  67.3475630
  89.1361495  13.7411910  66.9609644  90.5817878  13.6864024  67.4070668
  83.7129143  10.2446966  67.7462765  84.4860019   9.6975954  67.6075641
  84.0654541  11.1091216  67.9577226  85.5514185  11.5723349  80.9529664
  85.2604051  12.4768980  80.8376330  86.1871170  11.6139876  81.6673734
  86.4770392   8.9500197  77.5431024  87.0733964   8.7256220  76.8287987
  86.5345364   8.2084943  78.1456472  86.0495420   6.4039633  65.3781215
  86.3020941   5.8821154  64.6164678  85.1119980   6.2405778  65.4807898
  91.2648781  10.8448261  67.8844615  90.6294614  10.9182888  68.5965519
  90.9346187  11.4341860  67.2063694  85.7691709   8.3067739  67.5805590
  85.6527967   7.6312642  68.2486674  85.8793969   7.8200112  66.7637743
  88.1123250   7.7677886  71.2852279  87.7481457   7.2408507  71.9965200
  88.9690366   7.3776355  71.1118764  90.5104070  11.2584764  77.9479458
  90.2104793  12.1609803  77.8395265  90.1655130  10.9916947  78.8000611
  83.9616552   7.7098561  73.9816162  83.0367048   7.5774775  74.1893854
  84.2100965   8.4892780  74.4786105  81.3225363   7.3531835  74.8159951
  81.4517744   7.6066314  75.7299363  80.6422814   7.9459543  74.4964606
  85.4924850  18.0229085  70.9150425  85.4148880  18.9736910  70.9938906
  84.8886494  17.6774957  71.5725352  86.2388452   8.0042403  83.1329759
  86.9803136   8.5427447  82.8564583  85.5325438   8.6308692  83.2901311
  91.7143792  10.1471544  81.7301921  92.1227148   9.7053954  80.9856553
  90.9921053   9.5724171  81.9836114  92.0372606  10.7072734  75.4854210
  91.4081469  10.8718449  74.7830278  91.6498268  11.1214344  76.2565174
  95.9161838  11.6427172  72.8398573  95.2312876  12.0226074  72.2895607
  96.0005688  12.2522499  73.5730521  93.1712770   9.2887131  79.4393917
  93.3829665   9.9318891  78.7628298  93.1242518   8.4549448  78.9715847
  87.5900568  10.4447143  72.7504295  88.0538914  10.7234846  71.9608917
  87.3257366   9.5430587  72.5677385  84.4824649   9.9918624  75.6884058
  85.0526006  10.4205892  75.0501543  85.0732761   9.7101209  76.3868244
  86.5269454   6.5670295  69.5593860  87.2293498   7.0191339  70.0267786
  86.1950083   5.9254114  70.1873753  84.9749816   5.1582052  83.9345069
  84.3448476   5.8398332  84.1680466  84.8685904   5.0465133  82.9898208
  80.2694788   4.8253848  74.8610993  79.4793842   5.0811376  74.3851104
  80.7606036   5.6402185  74.9663034  94.2858598  12.1659087  77.6116274
  95.1076042  11.7639274  77.3298956  94.2821001  12.0627321  78.5632390
  82.2209534   5.1898427  71.8194470  81.4240697   5.3017121  72.3377966
  81.9935126   5.5285079  70.9535361  88.0515201  11.7143130  79.7676985
  88.1159634  12.1763537  80.6035157  87.3426125  11.0840495  79.8959295
  78.5532491   5.0784338  77.2925984  78.8040530   5.9631348  77.5583560
  79.0892040   4.8988940  76.5201076  87.7663219  13.3811238  69.6355965
  87.6308894  14.2262773  70.0640813  88.3073031  13.5830515  68.8721899
  81.2192616  10.8986676  70.2083890  81.7317137  11.6929926  70.3589455
  81.8715329  10.2012966  70.1417492  83.0287501  14.0152432  72.2906643
  83.2054129  14.9370397  72.1027627  83.8244335  13.7010851  72.7201023
  82.3139858   6.0617064  82.1668807  82.1993373   5.1602321  82.4675905
  81.4584375   6.3080761  81.8153623  89.3931695  14.0034804  83.7656307
  88.9495550  13.2171183  83.4477212  90.0548909  14.1913955  83.1000198
  84.1518817  15.5330606  78.2916986  84.7026242  15.4047669  77.5193980
  83.3130292  15.8325495  77.9411879  91.4912933  14.2837604  81.7937708
  91.4731409  15.1046485  81.3017978  92.4132853  14.1591679  82.0187850
  87.9485988  11.7981733  82.6361217  88.4814324  11.0370022  82.4060525
  87.4200069  11.5055385  83.3785371  79.1841533   9.2275330  70.9843461
  80.0216755   9.6372338  70.7677168  79.3619801   8.2874772  70.9543655
  96.0540239   9.6482765  68.6080467  95.2769682   9.3093925  68.1635629
  96.7331720   9.6535388  67.9335432  89.3138700  10.9267726  70.1480029
  88.7860062  10.1920486  69.8353266  88.8126203  11.7042402  69.9019997
  94.2931546   9.1216746  75.2647075  93.6355221   9.8116008  75.3527204
  95.0971946   9.5113178  75.6081062  87.4591300   8.7447936  63.1515002
  86.5518362   8.5137190  63.3506151  87.9562332   7.9485555  63.3388983
  90.3659379  17.4545443  66.0711688  89.6921078  17.7577140  66.6796646
  90.7525201  18.2574524  65.7217145  88.6379534   8.8460531  67.6738992
  87.7290753   8.5619564  67.7711462  88.6674618   9.2659610  66.8142299
  93.8698801  12.4567121  71.4430160  93.4161128  11.6158030  71.4995350
  93.2392768  13.0928519  71.7804940  92.3131741  14.2943617  72.3779978
  92.6054715  14.8548674  71.6592343  92.8230361  14.5872178  73.1333137
  79.2067704   6.5666045  71.6554194  79.0092104   5.9735406  70.9305261
  78.6514368   6.2618255  72.3730133  88.3355622  10.3869275  65.0127071
  87.8975052   9.6705134  64.5532708  89.0766063  10.6145390  64.4512162
  87.2765366  15.0723968  73.4673431  87.2341545  15.2984815  72.5381963
  88.1928065  14.8387343  73.6159232  96.4798116  10.7302999  76.0814661
  96.9134623  10.6378288  76.9297715  97.1929697  10.7060499  75.4434677
  85.3931167  11.9486997  73.2635394  86.1871765  11.4537318  73.0617969
  84.6822859  11.4204861  72.9003099  90.2126011  14.3305093  77.6147761
  90.2663033  14.8996029  78.3825477  89.3440792  14.5006978  77.2501798
  81.7013930   6.0930079  69.3395146  80.7711518   6.0314535  69.5565108
  81.7971402   5.5706032  68.5431788  97.3413666  10.7726699  78.6147546
  97.5349556  11.6772510  78.8606821  97.2414284  10.3134119  79.4486131
  92.4028774  10.9233442  84.1888427  92.2514281  10.6943994  83.2718510
  92.3933454  11.8804044  84.2019772  89.1714111   8.4965355  79.1734693
  90.1006171   8.6476515  79.0003660  88.7505141   8.5849376  78.3183340
  87.9702443  12.5216019  76.9433231  87.8313528  12.1534804  77.8159169
  87.1817039  13.0363659  76.7717188  88.5650594  17.6225116  68.2858767
  88.7402350  17.1513159  69.1004390  87.8783383  18.2490882  68.5140028
  89.5207658  11.8997622  74.3322068  89.1857490  11.8598392  75.2279718
  89.0211603  11.2342338  73.8592479  83.4951902   7.3065252  79.8574650
  83.3571700   6.5745491  80.4586189  84.4056825   7.2174152  79.5758837
  92.4566849   9.2453656  64.6059128  91.8396020   8.5200485  64.5092181
  91.9883338  10.0063017  64.2626202  86.1234202   7.0185211  79.3458329
  86.8333821   6.3778404  79.3044948  86.0803510   7.2698106  80.2684510
  94.1120981  13.9552565  82.2664908  94.0533527  13.2711785  81.5995492
  94.5140499  14.6971555  81.8145534  83.1311680  20.7714479  75.0598627
  83.3708278  21.4033003  75.7377646  82.2880876  20.4202519  75.3463987
  94.1138388  11.9192149  80.4978888  93.2265167  11.5818070  80.6205287
  94.6836939  11.1875180  80.7347654  75.7667535   8.2516240  73.8221940
  76.4538575   7.9377970  73.2342955  75.6115664   9.1557605  73.5489191
  87.6439542  16.5793601  77.4640131  87.5709713  17.3848573  77.9759436
  87.2016935  16.7785567  76.6388153  87.4329321  15.8165371  70.9742953
  86.6496843  16.3587051  71.0681177  88.1322066  16.3339351  71.3737194
  90.1038225  16.4780435  79.6198290  90.8166197  17.1127900  79.5474192
  89.6128254  16.5744301  78.8038292  91.8255752  10.3831688  71.1915582
  90.8912031  10.5033150  71.0220286  92.0032421   9.4804155  70.9275592
  85.1550139  14.2274879  80.4403861  85.8559598  14.8611362  80.5933255
  84.6845254  14.5689610  79.6799500  93.2804535  12.5692828  68.7251768
  93.5564378  12.4549423  69.6345642  92.4109033  12.1710313  68.6863941
  89.9158599  16.8179179  72.3684582  90.0980993  16.0000835  72.8312334
  90.7391585  17.0346871  71.9309471  90.2500764  15.7447364  69.6299630
  90.7788530  15.2339819  69.0169792  90.5128984  15.4289895  70.4945163
  89.0038998   7.5239297  84.7522448  88.3279635   7.4233426  85.4224824
  89.8266632   7.3678511  85.2158446  80.7517857  13.7611234  77.3734964
  81.3371294  13.0154921  77.5062868  80.5542695  14.0715190  78.2571627
  83.6056512  16.7962481  72.3897406  82.9366887  17.2808609  71.9061446
  83.4669382  17.0431701  73.3040784  75.3435511   6.3316834  76.0939407
  75.3819611   5.7980424  76.8876525  74.8375804   5.8052039  75.4750384
  87.7461781  18.8306225  78.9880064  88.2980089  18.9937846  79.7529150
  88.0867974  19.4210662  78.3160089  92.5972655  13.6567482  84.8428719
  93.1412559  14.2697440  84.3483674  92.0159500  14.2147060  85.3595732
  78.9744089   5.0580936  69.1693338  79.2697530   4.1491614  69.1160392
  78.0732125   5.0368675  68.8474340  90.8830168  16.7788200  75.9743746
  90.7581307  15.9777940  75.4654692  91.5409259  17.2734393  75.4857716
  92.9465076  14.5797220  77.6023297  91.9995412  14.4602571  77.5301623
  93.2947849  13.6919718  77.6849558  89.9511510  14.3749936  73.8027649
  89.8036472  13.4466644  73.9835219  90.7765003  14.3970027  73.3184724
  93.5545631  15.1978495  74.8892522  94.4792179  14.9921356  74.7516973
  93.3860935  14.9494896  75.7981863  84.6872245   5.1873487  75.3730511
  84.5416826   5.5013790  76.2654792  84.2097449   5.8058388  74.8201409
  93.3440948  15.7164163  70.2454613  93.5177825  15.1510585  69.4928465
  93.8369839  16.5165057  70.0634103  79.1617907   7.7278832  78.3118172
  78.6171375   8.5038640  78.4438446  80.0397257   8.0749636  78.1537293
  94.3316120  15.0330927  67.3451511  95.0267025  15.6537620  67.5638826
  94.6739270  14.1826278  67.6203889  79.9483929   6.8548728  81.2048329
  79.2065665   7.0031363  81.7912959  79.6276674   7.1156993  80.3415078
  96.2307543  12.4830632  68.8738842  96.7558867  12.8217905  68.1488162
  96.1429896  11.5477648  68.6901977  87.8927592  16.3964706  81.0028719
  88.2014718  16.1513853  81.8751418  88.6903074  16.6011345  80.5147589
  87.9148204  18.5502616  73.2334095  87.4753194  18.0578994  73.9266952
  88.6656321  18.0075583  72.9926170  80.3940543  14.7414157  73.2358723
  81.2198563  14.4417928  72.8557367  80.0434595  13.9721779  73.6848512
  85.3622076  14.0940625  75.3056397  84.7402085  13.4311330  75.0058625
  86.0326943  14.1201757  74.6230045  78.5949148  12.6600483  74.1947657
  77.7581056  12.2322657  74.0131658  78.5672793  12.8532926  75.1318448
  95.9201449  13.1163536  84.1790040  95.1296993  13.0987675  83.6394539
  95.6834804  13.6551830  84.9339077  96.0399324   9.9656002  81.4922769
  96.0897329   9.8006010  82.4338291  95.9313248   9.0983261  81.1020649
  84.9235583  12.6444548  68.7814857  85.0723703  13.3280013  68.1281530
  85.7302026  12.6249638  69.2964313  97.5417521  12.3852944  81.7364790
  97.2502329  12.7482925  82.5728251  96.9289652  11.6719952  81.5578122
  82.6788216   8.6709726  69.7875926  82.4334258   7.7672056  69.9856136
  82.8484131   8.6726876  68.8455404  88.4230989  15.1392679  66.2526605
  87.8504956  15.7582866  65.7997077  88.9963782  15.6892040  66.7866527
  91.6428248  15.4229829  67.3835187  92.5758921  15.3575390  67.5868063
  91.5551461  16.2586096  66.9249720  94.2716265  14.7395699  64.3439135
  94.1929896  14.4055563  65.2374893  95.0925932  15.2317467  64.3430607
  88.6916480  10.5271237  85.0543314  89.6119489  10.7049836  85.2483361
  88.6566063   9.5827283  84.9023014  77.9098645   5.7209831  73.9796589
  77.5901429   4.8675139  73.6870963  77.3632073   5.9358409  74.7354556
  81.6878552   8.4372272  77.6966095  81.9064562   9.3689380  77.7154129
  82.1004326   8.0780247  78.4820899  77.7786905   9.3412743  75.9489711
  77.0850376   8.9266695  75.4359665  78.5259896   9.3833279  75.3523129
  86.4237687   7.4402617  85.9033906  85.9404769   8.2402977  86.1097795
  86.5098626   7.4510562  84.9501350  79.6923647   9.2730996  73.8255725
  79.6694335   9.3718684  72.8737609  80.0024284  10.1196147  74.1472892
  82.3511025  11.3307151  77.9402340  83.3054278  11.2991094  77.8732271
  82.1523549  10.8697775  78.7552566  82.9410407   9.9008267  80.5073138
  83.7603296  10.3952346  80.5307975  83.2147215   8.9840236  80.4790705
  80.7061254  16.8726771  74.9572538  80.5715722  16.1127172  74.3910536
  80.2893316  17.5967671  74.4901327  91.8420217  12.0563694  63.9649113
  92.5456067  12.2613697  64.5806769  91.1182866  12.6240456  64.2298197
  83.8630380  17.7696088  75.1690980  83.7462764  18.7141520  75.0669671
  83.0422826  17.4669650  75.5576780  93.7506914  12.4946224  66.0147573
  94.5852518  12.0627422  65.8325048  93.5891257  12.3228237  66.9424468
  93.4052806   8.9978337  67.3803912  93.3501610   8.8322608  66.4392356
  92.7798862   9.7054370  67.5366102  78.1945321   4.2346401  81.2065335
  78.8404185   3.7245355  81.6952560  77.9862472   4.9715083  81.7808760
  90.7198714  11.3027249  86.7057475  91.5889873  11.4767901  86.3444110
  90.2405465  12.1221666  86.5833204  84.8884894  18.4224350  78.3846909
  85.7912140  18.4547960  78.7013404  84.6622264  17.4924801  78.3993245
  86.6438496  17.1755336  75.0456987  85.6934127  17.1757198  74.9321360
  86.9470982  16.4288071  74.5293022 102.3791189  23.0115875  76.1102750
 103.0169599  22.8922622  75.4066090 102.2612032  23.9596719  76.1690702
  99.1880896  22.9643303  76.0464275  98.8499407  22.8484368  75.1584809
 100.0570664  22.5634468  76.0265281  95.0467711  24.8178779  72.0361165
  94.4832576  24.7268716  71.2677453  94.9320106  23.9978684  72.5163658
  99.6700679  24.1178155  82.0050480  99.6589319  23.7230953  81.1330984
  99.8321318  23.3844227  82.5984251  92.5932143  26.3129971  74.8745386
  93.3853435  25.9720796  74.4591685  92.8328793  26.4224946  75.7947539
 100.6267270  28.4849747  67.3475630  99.9755250  29.0703827  66.9609644
 101.4211633  29.0155942  67.4070668  94.5522897  25.5738884  67.7462765
  95.3253773  25.0267871  67.6075641  94.9048296  26.4383133  67.9577226
  96.3907940  26.9015266  80.9529664  96.0997806  27.8060897  80.8376330
  97.0264924  26.9431794  81.6673734  97.3164147  24.2792115  77.5431024
  97.9127719  24.0548137  76.8287987  97.3739118  23.5376860  78.1456472
  96.8889175  21.7331550  65.3781215  97.1414696  21.2113072  64.6164678
  95.9513734  21.5697696  65.4807898 101.9332458  20.7367329  73.1855958
 102.7195547  20.3186752  72.8346375 102.1971162  21.6413421  73.3537606
 102.1042535  26.1740179  67.8844615 101.4688368  26.2474805  68.5965519
 101.7739941  26.7633778  67.2063694 107.3340885  20.6742562  74.0888936
 108.0666057  20.1041779  74.3226766 106.5780241  20.2864162  74.5295442
  96.6085464  23.6359656  67.5805590  96.4921722  22.9604560  68.2486674
  96.7187724  23.1492030  66.7637743  98.9517005  23.0969803  71.2852279
  98.5875212  22.5700424  71.9965200  99.8084120  22.7068272  71.1118764
 104.8566305  14.3864136  78.5483545 104.5249630  15.2559547  78.3244760
 104.2611919  14.0700420  79.2277575  98.5922492  18.1259703  66.2813627
  98.7596894  18.9939939  66.6484098  98.4019661  18.2886985  65.3574917
 101.3497825  26.5876682  77.9479458 101.0498548  27.4901721  77.8395265
 101.0048884  26.3208865  78.8000611  94.8010306  23.0390479  73.9816162
  93.8760803  22.9066693  74.1893854  95.0494719  23.8184698  74.4786105
 104.7494969  19.1059222  75.6276895 103.8411846  19.0374631  75.3335656
 104.6982564  19.5831167  76.4558721  98.5711712  20.5817361  67.2660294
  98.4511338  21.0274411  68.1045774  97.8764301  20.9302678  66.7073832
  92.1619117  22.6823752  74.8159951  92.2911498  22.9358231  75.7299363
  91.4816569  23.2751460  74.4964606  96.3318605  33.3521002  70.9150425
  96.2542634  34.3028827  70.9938906  95.7280248  33.0066875  71.5725352
  98.8235834  20.5248868  83.5711792  98.0469168  21.0842788  83.5614657
  99.4626397  21.0105651  84.0926662 106.6156615  17.3075661  77.4054769
 105.9730995  17.6008194  76.7594564 106.1111543  17.1928581  78.2107966
 104.2696779  21.0538834  68.0940628 105.1814635  21.2866220  67.9188326
 103.7606426  21.6375878  67.5315707  97.0782207  23.3334321  83.1329759
  97.8196891  23.8719365  82.8564583  96.3719192  23.9600610  83.2901311
 102.5537546  25.4763462  81.7301921 102.9620902  25.0345872  80.9856553
 101.8314808  24.9016089  81.9836114  98.9068616  20.4136068  79.1035478
  99.7529812  20.8375482  79.2470127  98.8467254  19.7569693  79.7974041
 102.8766361  26.0364652  75.4854210 102.2475223  26.2010366  74.7830278
 102.4892023  26.4506262  76.2565174 106.7555593  26.9719090  72.8398573
 106.0706631  27.3517991  72.2895607 106.8399442  27.5814417  73.5730521
 102.0568062  18.0740437  80.7616651 101.8128994  18.8282497  80.2250927
 102.3327992  18.4525784  81.5963898 104.0106524  24.6179049  79.4393917
 104.2223420  25.2610809  78.7628298 103.9636273  23.7841366  78.9715847
 101.6132753  17.2296870  76.3430489 100.7517232  17.5278123  76.6347227
 101.6395188  17.4467269  75.4111522  98.4294323  25.7739060  72.7504295
  98.8932668  26.0526763  71.9608917  98.1651121  24.8722505  72.5677385
  95.3218404  25.3210542  75.6884058  95.8919761  25.7497810  75.0501543
  95.9126516  25.0393126  76.3868244  97.3663209  21.8962213  69.5593860
  98.0687252  22.3483256  70.0267786  97.0343837  21.2546031  70.1873753
  95.8143570  20.4873969  83.9345069  95.1842231  21.1690250  84.1680466
  95.7079658  20.3757051  82.9898208  91.1088543  20.1545765  74.8610993
  90.3187597  20.4103294  74.3851104  91.5999790  20.9694103  74.9663034
 105.1252352  27.4951004  77.6116274 105.9469796  27.0931192  77.3298956
 105.1214755  27.3919239  78.5632390  93.0603288  20.5190345  71.8194470
  92.2634451  20.6309039  72.3377966  92.8328880  20.8576997  70.9535361
  98.8908956  27.0435048  79.7676985  98.9553388  27.5055455  80.6035157
  98.1819880  26.4132413  79.8959295  89.3926246  20.4076256  77.2925984
  89.6434284  21.2923266  77.5583560  89.9285794  20.2280857  76.5201076
 113.2158345  23.8389753  73.9601246 112.4622054  23.2697151  73.8045250
 113.3505887  23.8052417  74.9071880  98.6056973  28.7103155  69.6355965
  98.4702648  29.5554691  70.0640813  99.1466786  28.9122433  68.8721899
  95.0924313  14.7894735  86.2970320  94.6991259  14.2360934  86.9717965
  95.9090453  15.1005314  86.6876838  92.0586371  26.2278593  70.2083890
  92.5710891  27.0221844  70.3589455  92.7109084  25.5304884  70.1417492
  93.8681256  29.3444350  72.2906643  94.0447884  30.2662314  72.1027627
  94.6638089  29.0302769  72.7201023  98.0092274  16.2052614  83.8890577
  98.7501987  16.8059767  83.8095039  98.2410197  15.4630252  83.3308619
  93.1533612  21.3908981  82.1668807  93.0387127  20.4894239  82.4675905
  92.2978130  21.6372678  81.8153623 100.2325450  29.3326722  83.7656307
  99.7889304  28.5463100  83.4477212 100.8942663  29.5205872  83.1000198
  94.9912571  30.8622523  78.2916986  95.5419996  30.7339587  77.5193980
  94.1524047  31.1617412  77.9411879 102.3306688  29.6129522  81.7937708
 102.3125163  30.4338403  81.3017978 103.2526608  29.4883597  82.0187850
  98.7879742  27.1273651  82.6361217  99.3208079  26.3661939  82.4060525
  98.2593823  26.8347303  83.3785371 101.9549437  12.2333717  78.1654859
 101.6113706  13.1235359  78.0893969 102.3228400  12.0435375  77.3024444
  90.0235288  24.5567248  70.9843461  90.8610510  24.9664256  70.7677168
  90.2013555  23.6166690  70.9543655 101.9199720  22.2242328  66.6727294
 101.4046343  22.9946933  66.9115681 101.6477028  21.5507464  67.2960355
  99.5046831  17.0692029  71.7312532  98.6488427  16.6798879  71.5518171
  99.9173783  17.1483990  70.8712318 101.0345977  14.6038372  76.1304092
 100.5310773  14.5668507  75.3171897 101.3276584  15.5131115  76.1900748
  97.2788863  14.6877102  75.1370274  98.1441860  14.4919911  74.7776163
  97.3466372  14.4587454  76.0639630 106.8933994  24.9774683  68.6080467
 106.1163437  24.6385842  68.1635629 107.5725475  24.9827306  67.9335432
 101.7086023  20.0969420  68.4987075 101.4036158  20.4115570  69.3497218
 102.6616465  20.1750840  68.5414408 100.1532455  26.2559644  70.1480029
  99.6253816  25.5212403  69.8353266  99.6519957  27.0334320  69.9019997
 105.1325301  24.4508664  75.2647075 104.4748975  25.1407926  75.3527204
 105.9365700  24.8405096  75.6081062  94.8851182  16.9179310  72.5086640
  95.4594934  16.6954491  71.7759833  95.4722165  16.9868004  73.2615242
 103.9430760  22.8053037  73.3151017 104.4562641  23.4383029  73.8172727
 104.5931983  22.2054232  72.9494377  95.2120769  18.9483771  66.5282526
  94.3758082  19.2858457  66.8491800  95.0725539  18.8132751  65.5909663
  97.1873850  13.7920559  71.2361710  96.5338262  13.4769576  70.6118325
  97.1454324  13.1696299  71.9621533  98.2985055  24.0739854  63.1515002
  97.3912117  23.8429107  63.3506151  98.7956087  23.2777473  63.3388983
 101.2053134  32.7837361  66.0711688 100.5314833  33.0869058  66.6796646
 101.5918956  33.5866441  65.7217145 100.4211590  20.2802492  75.5609357
  99.5034152  20.5017439  75.4031045 100.8371734  20.3548803  74.7021065
 101.2046638  21.6793908  70.6912038 101.9518457  22.1915305  70.3819160
 101.4738228  21.3577961  71.5516431  99.4773288  24.1752449  67.6738992
  98.5684508  23.8911482  67.7711462  99.5068372  24.5951527  66.8142299
 104.7092556  27.7859038  71.4430160 104.2554883  26.9449948  71.4995350
 104.0786523  28.4220437  71.7804940 103.6525475  18.7151024  72.6730827
 102.9148232  18.2028411  73.0041070 103.9052249  18.2751406  71.8614104
 103.1525495  29.6235535  72.3779978 103.4448469  30.1840592  71.6592343
 103.6624116  29.9164096  73.1333137  90.0461459  21.8957963  71.6554194
  89.8485859  21.3027324  70.9305261  89.4908123  21.5910173  72.3730133
  98.0258182  21.7881069  73.7748787  98.0806792  20.8354906  73.6991264
  97.2149384  21.9440508  74.2590086  99.1749376  25.7161192  65.0127071
  98.7368806  24.9997051  64.5532708  99.9159817  25.9437307  64.4512162
  95.9650542  20.4058129  71.5339166  95.1518408  20.7052300  71.9404358
  96.4609537  20.0113818  72.2513648  98.1159120  30.4015886  73.4673431
  98.0735299  30.6276732  72.5381963  99.0321819  30.1679261  73.6159232
 101.5624754  20.8699954  80.3654060 101.9174142  21.0971427  81.2248526
 102.2096885  21.2018330  79.7431315 107.2922491  23.9918389  71.0703389
 107.1540390  24.1819985  70.1424578 106.9358710  24.7537772  71.5271440
  95.4564617  17.9776485  77.1500401  96.0963996  17.8365244  76.4523364
  94.6242148  17.6910998  76.7739003 107.3191871  26.0594916  76.0814661
 107.7528377  25.9670206  76.9297715 108.0323451  26.0352417  75.4434677
  96.2324921  27.2778915  73.2635394  97.0265519  26.7829235  73.0617969
  95.5216613  26.7496778  72.9003099 101.0519765  29.6597011  77.6147761
 101.1056788  30.2287947  78.3825477 100.1834547  29.8298896  77.2501798
  92.5407684  21.4221997  69.3395146  91.6105273  21.3606452  69.5565108
  92.6365156  20.8997950  68.5431788  92.4593234  17.9476810  71.9273388
  92.7200051  18.8622143  71.8182548  93.2810406  17.4801252  72.0770001
  93.9318159  19.3614567  79.0972212  94.6041212  19.1531929  78.4484861
  93.1047945  19.1636653  78.6577445 108.1807420  26.1018617  78.6147546
 108.3743310  27.0064428  78.8606821 108.0808038  25.6426036  79.4486131
  99.8343731  15.9876508  81.1137873  99.1871646  16.6866457  81.0202350
 100.6044746  16.4212652  81.4814122 103.2422529  26.2525360  84.1888427
 103.0908035  26.0235912  83.2718510 103.2327208  27.2095961  84.2019772
 100.0107865  23.8257273  79.1734693 100.9399925  23.9768432  79.0003660
  99.5898895  23.9141293  78.3183340  98.8096197  27.8507937  76.9433231
  98.6707283  27.4826721  77.8159169  98.0210793  28.3655576  76.7717188
  99.4044349  32.9517034  68.2858767  99.5796105  32.4805077  69.1004390
  98.7177137  33.5782800  68.5140028 100.3601412  27.2289540  74.3322068
 100.0251245  27.1890310  75.2279718  99.8605358  26.5634256  73.8592479
  94.3345656  22.6357170  79.8574650  94.1965454  21.9037409  80.4586189
  95.2450580  22.5466070  79.5758837 103.2960604  24.5745574  64.6059128
 102.6789774  23.8492402  64.5092181 102.8277092  25.3354934  64.2626202
  96.9627957  22.3477129  79.3458329  97.6727575  21.7070321  79.3044948
  96.9197265  22.5990024  80.2684510 104.9514735  29.2844482  82.2664908
 104.8927282  28.6003703  81.5995492 105.3534254  30.0263472  81.8145534
  95.6756891  19.3342347  81.1653969  95.1394248  18.8833085  81.8175565
  95.0873599  19.4688256  80.4224433  93.9705434  36.1006396  75.0598627
  94.2102032  36.7324920  75.7377646  93.1274631  35.7494436  75.3463987
  95.0859150  18.7930998  63.7280432  94.2088616  18.6719799  63.3642679
  95.5616903  18.0017077  63.4759321 104.9532143  27.2484066  80.4978888
 104.0658921  26.9109988  80.6205287 105.5230694  26.5167098  80.7347654
  86.6061290  23.5808158  73.8221940  87.2932330  23.2669888  73.2342955
  86.4509419  24.4849523  73.5489191  91.4096012  18.4698355  78.2506963
  91.3254201  17.8624024  77.5157373  90.5878718  18.9607373  78.2516460
  98.4833296  31.9085519  77.4640131  98.4103468  32.7140490  77.9759436
  98.0410689  32.1077485  76.6388153  98.2723076  31.1457289  70.9742953
  97.4890598  31.6878969  71.0681177  98.9715821  31.6631268  71.3737194
 101.5819726  16.9551918  73.6177158 102.0788425  16.2021881  73.2978229
 100.8106707  16.9916235  73.0520368 109.4349483  22.6592284  75.2595450
 109.4239360  23.5416999  74.8889383 108.5666863  22.3063835  75.0649987
 100.9431980  31.8072353  79.6198290 101.6559952  32.4419818  79.5474192
 100.4522008  31.9036219  78.8038292 102.6649507  25.7123605  71.1915582
 101.7305785  25.8325068  71.0220286 102.8426175  24.8096072  70.9275592
  98.1654695  19.0969301  73.3448843  97.7952482  18.5440342  74.0329748
  98.6613787  18.4927435  72.7923843 106.0522058  21.5540925  71.7265616
 106.5182510  22.3868916  71.6525919 106.5029558  21.0885906  72.4310874
  95.9943893  29.5566796  80.4403861  96.6953353  30.1903279  80.5933255
  95.5239008  29.8981528  79.6799500 104.1198289  27.8984746  68.7251768
 104.3958133  27.7841341  69.6345642 103.2502788  27.5002231  68.6863941
 104.0238721  13.9221512  75.7656517 103.1101800  14.1525739  75.9338724
 104.4531822  14.0059956  76.6170550 103.7945179  22.1111404  78.2656411
 103.1416629  22.3587311  77.6108864 104.1725559  21.2975542  77.9318889
 100.7552353  32.1471097  72.3684582 100.9374748  31.3292753  72.8312334
 101.5785339  32.3638789  71.9309471 101.0894519  31.0739282  69.6299630
 101.6182285  30.5631737  69.0169792 101.3522738  30.7581812  70.4945163
  99.8432752  22.8531215  84.7522448  99.1673389  22.7525344  85.4224824
 100.6660386  22.6970428  85.2158446  91.5911611  29.0903151  77.3734964
  92.1765048  28.3446839  77.5062868  91.3936450  29.4007108  78.2571627
  94.4450266  32.1254399  72.3897406  93.7760642  32.6100526  71.9061446
  94.3063136  32.3723619  73.3040784  86.1829266  21.6608751  76.0939407
  86.2213365  21.1272342  76.8876525  85.6769559  21.1343957  75.4750384
  98.5855535  34.1598142  78.9880064  99.1373843  34.3229764  79.7529150
  98.9261728  34.7502580  78.3160089  93.5620028  16.5073292  79.5901949
  93.6261355  17.3688123  79.1779347  93.4987149  15.8947294  78.8574308
  93.0372301  18.5796425  83.2374983  93.6644340  18.1973502  83.8512508
  92.1800220  18.3610626  83.6030676 103.4366409  28.9859400  84.8428719
 103.9806313  29.5989358  84.3483674 102.8553254  29.5438978  85.3595732
  89.8137844  20.3872854  69.1693338  90.1091285  19.4783532  69.1160392
  88.9125879  20.3660593  68.8474340 101.7223922  32.1080118  75.9743746
 101.5975062  31.3069858  75.4654692 102.3803013  32.6026311  75.4857716
  93.3432091  18.4628850  75.1520887  92.6218676  19.0764818  75.0128360
  94.1325346  18.9986615  75.0737533 103.7858831  29.9089138  77.6023297
 102.8389166  29.7894489  77.5301623 104.1341604  29.0211636  77.6849558
  96.1458404  15.7983277  81.4261538  96.6692806  16.0445573  82.1887848
  95.9270737  16.6303312  81.0064676  91.5425685  18.0686951  69.2932663
  91.2138391  17.1884330  69.1107769  91.8965056  18.0134620  70.1809052
 100.7905264  29.7041854  73.8027649 100.6430226  28.7758561  73.9835219
 101.6158758  29.7261945  73.3184724  94.6567508  18.3559921  69.6608141
  94.9963581  18.8845842  68.9386749  95.1039629  18.6940327  70.4366707
 104.3939386  30.5270413  74.8892522 105.3185933  30.3213274  74.7516973
 104.2254689  30.2786814  75.7981863  97.3510949  16.7396972  79.1111209
  97.0107769  15.9404785  79.5131889  96.6449955  17.0398683  78.5388042
  98.0027421  13.8246284  77.5638532  98.8253490  13.3506762  77.4417422
  98.2465484  14.6036768  78.0637218  96.6435655  16.8534543  67.8601434
  97.3644018  17.2315795  67.3565151  96.0200960  17.5723419  67.9636412
 100.7866778  17.5579692  68.7959766 101.0030393  18.4404330  68.4948594
 100.3060845  17.1665905  68.0665408  95.5266000  20.5165405  75.3730511
  95.3810580  20.8305708  76.2654792  95.0491203  21.1350305  74.8201409
  97.3862383  17.5067953  75.4211400  97.3723951  16.6109046  75.0843698
  98.1034811  17.5138617  76.0549686  99.2388513  17.9405293  77.4664528
  98.9806291  18.8622364  77.4648858  98.7073554  17.5435728  78.1564992
 104.1834702  31.0456080  70.2454613 104.3571580  30.4802503  69.4928465
 104.6763593  31.8456975  70.0634103  90.0011662  23.0570749  78.3118172
  89.4565130  23.8330557  78.4438446  90.8791012  23.4041554  78.1537293
  96.7899279  16.3882333  70.6898970  96.9115190  15.4598979  70.8889858
  96.5001321  16.4021019  69.7777286  99.6590469  14.0737244  73.8265690
  99.6812166  14.1376577  72.8717670 100.0758528  13.2341752  74.0206196
 110.0374093  23.8092503  71.8644913 110.4805239  23.0599828  71.4664036
 109.1600604  23.8002639  71.4818645 105.1709875  30.3622845  67.3451511
 105.8660779  30.9829537  67.5638826 105.5133025  29.5118196  67.6203889
  90.7877684  22.1840646  81.2048329  90.0459420  22.3323281  81.7912959
  90.4670428  22.4448911  80.3415078 107.0701298  27.8122550  68.8738842
 107.5952622  28.1509823  68.1488162 106.9823650  26.8769565  68.6901977
  98.7321346  31.7256624  81.0028719  99.0408473  31.4805771  81.8751418
  99.5296828  31.9303262  80.5147589  98.7541958  33.8794533  73.2334095
  98.3146949  33.3870912  73.9266952  99.5050075  33.3367501  72.9926170
  91.2334297  30.0706074  73.2358723  92.0592317  29.7709846  72.8557367
  90.8828349  29.3013697  73.6848512  96.2015831  29.4232542  75.3056397
  95.5795840  28.7603248  75.0058625  96.8720697  29.4493674  74.6230045
  89.4342902  27.9892401  74.1947657  88.5974811  27.5614575  74.0131658
  89.4066548  28.1824844  75.1318448  96.2740358  17.9014331  84.8988903
  96.3228514  18.7776453  84.5166673  96.8162872  17.3591724  84.3260546
 106.7595204  28.4455454  84.1790040 105.9690747  28.4279593  83.6394539
 106.5228558  28.9843747  84.9339077 106.8793079  25.2947920  81.4922769
 106.9291084  25.1297928  82.4338291 106.7707002  24.4275179  81.1020649
  95.7629337  27.9736466  68.7814857  95.9117458  28.6571930  68.1281530
  96.5695781  27.9541556  69.2964313 104.1696841  21.2778848  82.8082075
 105.0706704  21.1385313  82.5166073 104.2444816  21.4433303  83.7480253
  98.5039646  18.6545703  81.6535262  97.6342956  18.9479269  81.3817850
  98.7399127  19.2386148  82.3742525 108.3811276  27.7144862  81.7364790
 108.0896084  28.0774842  82.5728251 107.7683407  27.0011870  81.5578122
 109.5806958  25.2797741  74.2567360 110.4153849  25.7187545  74.4204921
 109.7166087  24.8036395  73.4375606 106.6298464  22.8377476  80.2044848
 107.1052585  23.0305123  79.3963699 105.7064029  22.8936662  79.9588232
  93.5181970  24.0001643  69.7875926  93.2728012  23.0963973  69.9856136
  93.6877885  24.0018794  68.8455404 101.2078680  14.8725320  79.1700682
 101.7260624  15.6086347  78.8447171 100.8533813  15.1789313  80.0047441
  92.7877618  19.7330001  67.2862088  92.0946863  19.8074356  66.6302124
  92.5429370  18.9690345  67.8083605  99.2624743  30.4684596  66.2526605
  98.6898710  31.0874783  65.7997077  99.8357537  31.0183958  66.7866527
 105.3300133  19.7143236  78.4373154 106.2817556  19.8141334  78.4585378
 105.1603583  18.9221505  78.9471238 103.3514512  16.7998820  78.6232555
 102.7564444  17.0803832  77.9279043 103.0664209  17.2892721  79.3949296
 102.4822003  30.7521746  67.3835187 103.4152676  30.6867308  67.5868063
 102.3945216  31.5878013  66.9249720 105.1110019  30.0687617  64.3439135
 105.0323651  29.7347480  65.2374893 105.9319686  30.5609385  64.3430607
 107.8088211  22.9349356  77.5515453 107.7764531  21.9965357  77.7375137
 108.4188834  23.0133393  76.8181278  99.6471541  21.8045409  63.5942657
 100.5930646  21.6751617  63.6631075  99.2685786  21.0660071  64.0712086
 107.9582699  19.7260399  77.5973736 107.4421748  18.9418856  77.4103665
 108.8422648  19.3979116  77.7620256 105.6193426  13.4701415  73.5569549
 105.4218247  13.1616503  74.4412881 106.2293132  14.1963054  73.6867479
 113.6264760  23.9965363  76.6921490 114.3568149  23.7350651  77.2529193
 113.0171706  23.2594085  76.7323558 111.7080058  22.1373225  77.2895941
 110.9813221  22.0029190  76.6812433 111.2927344  22.4450054  78.0952659
  99.5310234  25.8563155  85.0543314 100.4513243  26.0341754  85.2483361
  99.4959817  24.9119201  84.9023014  97.8314459  19.7295385  63.5297543
  96.9245914  19.4328498  63.6060256  98.1090440  19.4325204  62.6631829
  88.7492399  21.0501749  73.9796589  88.4295183  20.1967057  73.6870963
  88.2025827  21.2650327  74.7354556  92.5272307  23.7664190  77.6966095
  92.7458316  24.6981298  77.7154129  92.9398080  23.4072164  78.4820899
  99.4476524  14.2732275  69.6841784  98.6377253  13.9279360  70.0597030
 100.1360941  13.9639819  70.2729395 101.3767073  13.3510322  71.3066081
 101.9298111  13.7705775  71.9656104 101.6137159  12.4246070  71.3489037
  97.4000172  19.3397396  87.0868844  97.2996899  20.2891753  87.0180936
  97.1821714  19.0115634  86.2144914  96.6013243  16.5882321  63.6709522
  97.4632407  16.9137219  63.9305339  96.7863587  15.8013817  63.1582588
  88.6180659  24.6704660  75.9489711  87.9244130  24.2558613  75.4359665
  89.3653650  24.7125197  75.3523129 104.7545880  15.4610847  70.8144745
 104.1744549  16.1195651  70.4322797 104.4881812  14.6388192  70.4032162
 103.2049446  14.8615905  73.0166065 103.7049224  14.9732439  72.2080384
 103.8485054  14.5576958  73.6566874  97.2631442  22.7694534  85.9033906
  96.7798524  23.5694895  86.1097795  97.3492381  22.7802479  84.9501350
  90.5317402  24.6022914  73.8255725  90.5088090  24.7010601  72.8737609
  90.8418038  25.4488065  74.1472892  93.1904779  26.6599069  77.9402340
  94.1448033  26.6283011  77.8732271  92.9917303  26.1989693  78.7552566
  93.7804162  25.2300185  80.5073138  94.5997051  25.7244264  80.5307975
  94.0540969  24.3132153  80.4790705 103.5370758  17.6210937  69.8701093
 102.6496613  17.9060588  69.6521288 103.9524747  17.4604701  69.0228370
 106.8885294  17.6457458  73.5855432 107.6645684  18.1353911  73.8580049
 106.1633428  18.0715513  74.0427302 109.3257853  18.3585078  74.6429373
 109.9202343  18.1180814  73.9322681 109.3984436  17.6392208  75.2702909
  91.5455008  32.2018689  74.9572538  91.4109476  31.4419089  74.3910536
  91.1287070  32.9259588  74.4901327 102.6813971  27.3855612  63.9649113
 103.3849821  27.5905615  64.5806769 101.9576620  27.9532374  64.2298197
 103.5111782  23.1365473  70.0851383 103.4546983  23.5934025  69.2459016
 104.0640124  22.3756158  69.9074226 107.3216587  18.9255205  70.9101503
 107.0653522  18.5251841  71.7409710 106.6969455  19.6398999  70.7851642
 111.6328925  21.6651279  73.4172794 111.0728483  21.7344468  74.1904356
 111.0272429  21.4892263  72.6972290  94.7024134  33.0988006  75.1690980
  94.5856518  34.0433438  75.0669671  93.8816580  32.7961567  75.5576780
 104.5900669  27.8238141  66.0147573 105.4246273  27.3919340  65.8325048
 104.4285012  27.6520155  66.9424468 104.2446561  24.3270255  67.3803912
 104.1895365  24.1614526  66.4392356 103.6192616  25.0346288  67.5366102
  89.0339076  19.5638319  81.2065335  89.6797939  19.0537273  81.6952560
  88.8256227  20.3007001  81.7808760 101.5592468  26.6319167  86.7057475
 102.4283628  26.8059819  86.3444110 101.0799219  27.4513583  86.5833204
  97.5542686  13.8278364  66.9589231  97.5421356  14.7720204  67.1157502
  98.4466108  13.6448509  66.6648692  95.7278648  33.7516268  78.3846909
  96.6305895  33.7839878  78.7013404  95.5016018  32.8216718  78.3993245
  97.4832250  32.5047254  75.0456987  96.5327881  32.5049116  74.9321360
  97.7864736  31.7579989  74.5293022  93.3736567  16.7105936  85.3040349
  94.2368028  16.3542741  85.5143673  92.8001977  16.3719831  85.9915753
 113.2184944  38.3407792  76.1102750 113.8563354  38.2214540  75.4066090
 113.1005787  39.2888636  76.1690702 110.0274650  38.2935221  76.0464275
 109.6893162  38.1776285  75.1584809 110.8964418  37.8926386  76.0265281
 105.8861466  40.1470697  72.0361165 105.3226331  40.0560634  71.2677453
 105.7713861  39.3270601  72.5163658 110.5094433  39.4470072  82.0050480
 110.4983074  39.0522871  81.1330984 110.6715072  38.7136145  82.5984251
 103.4325898  41.6421889  74.8745386 104.2247190  41.3012713  74.4591685
 103.6722548  41.7516864  75.7947539 111.4661024  43.8141665  67.3475630
 110.8149004  44.3995745  66.9609644 112.2605387  44.3447860  67.4070668
 105.3916652  40.9030802  67.7462765 106.1647528  40.3559789  67.6075641
 105.7442050  41.7675051  67.9577226 107.2301694  42.2307184  80.9529664
 106.9391560  43.1352815  80.8376330 107.8658678  42.2723712  81.6673734
 108.1557901  39.6084033  77.5431024 108.7521473  39.3840055  76.8287987
 108.2132873  38.8668778  78.1456472 107.7282929  37.0623468  65.3781215
 107.9808450  36.5404989  64.6164678 106.7907488  36.8989613  65.4807898
 112.7726212  36.0659246  73.1855958 113.5589301  35.6478669  72.8346375
 113.0364917  36.9705338  73.3537606 112.9436290  41.5032097  67.8844615
 112.3082123  41.5766723  68.5965519 112.6133696  42.0925695  67.2063694
 118.1734639  36.0034480  74.0888936 118.9059811  35.4333696  74.3226766
 117.4173995  35.6156080  74.5295442 107.4479218  38.9651574  67.5805590
 107.3315476  38.2896477  68.2486674 107.5581478  38.4783948  66.7637743
 109.7910759  38.4261721  71.2852279 109.4268966  37.8992342  71.9965200
 110.6477875  38.0360190  71.1118764 115.6960060  29.7156054  78.5483545
 115.3643384  30.5851465  78.3244760 115.1005673  29.3992338  79.2277575
 109.4316246  33.4551621  66.2813627 109.5990648  34.3231857  66.6484098
 109.2413415  33.6178902  65.3574917 112.1891579  41.9168600  77.9479458
 111.8892302  42.8193638  77.8395265 111.8442639  41.6500783  78.8000611
 105.6404061  38.3682396  73.9816162 104.7154557  38.2358611  74.1893854
 105.8888474  39.1476616  74.4786105 115.5888723  34.4351140  75.6276895
 114.6805600  34.3666548  75.3335656 115.5376319  34.9123085  76.4558721
 109.4105467  35.9109278  67.2660294 109.2905092  36.3566329  68.1045774
 108.7158055  36.2594596  66.7073832 103.0012872  38.0115670  74.8159951
 103.1305253  38.2650149  75.7299363 102.3210323  38.6043378  74.4964606
 107.1712359  48.6812920  70.9150425 107.0936389  49.6320745  70.9938906
 106.5674003  48.3358792  71.5725352 109.6629589  35.8540785  83.5711792
 108.8862923  36.4134706  83.5614657 110.3020152  36.3397568  84.0926662
 117.4550369  32.6367578  77.4054769 116.8124750  32.9300111  76.7594564
 116.9505298  32.5220499  78.2107966 115.1090533  36.3830751  68.0940628
 116.0208389  36.6158138  67.9188326 114.6000180  36.9667796  67.5315707
 107.9175961  38.6626239  83.1329759 108.6590645  39.2011283  82.8564583
 107.2112947  39.2892527  83.2901311 113.3931301  40.8055379  81.7301921
 113.8014657  40.3637790  80.9856553 112.6708562  40.2308007  81.9836114
 109.7462371  35.7427986  79.1035478 110.5923566  36.1667400  79.2470127
 109.6861008  35.0861610  79.7974041 113.7160115  41.3656570  75.4854210
 113.0868978  41.5302284  74.7830278 113.3285777  41.7798179  76.2565174
 117.5949347  42.3011008  72.8398573 116.9100385  42.6809909  72.2895607
 117.6793197  42.9106334  73.5730521 112.8961816  33.4032354  80.7616651
 112.6522748  34.1574415  80.2250927 113.1721747  33.7817702  81.5963898
 114.8500279  39.9470967  79.4393917 115.0617174  40.5902727  78.7628298
 114.8030027  39.1133283  78.9715847 112.4526508  32.5588787  76.3430489
 111.5910987  32.8570041  76.6347227 112.4788943  32.7759186  75.4111522
 109.2688077  41.1030978  72.7504295 109.7326423  41.3818681  71.9608917
 109.0044875  40.2014423  72.5677385 106.1612158  40.6502459  75.6884058
 106.7313515  41.0789728  75.0501543 106.7520270  40.3685044  76.3868244
 108.2056963  37.2254130  69.5593860 108.9081007  37.6775174  70.0267786
 107.8737592  36.5837949  70.1873753 106.6537325  35.8165887  83.9345069
 106.0235985  36.4982168  84.1680466 106.5473413  35.7048969  82.9898208
 101.9482297  35.4837683  74.8610993 101.1581351  35.7395211  74.3851104
 102.4393545  36.2986021  74.9663034 115.9646107  42.8242922  77.6116274
 116.7863551  42.4223109  77.3298956 115.9608510  42.7211156  78.5632390
 103.8997043  35.8482262  71.8194470 103.1028206  35.9600956  72.3377966
 103.6722635  36.1868914  70.9535361 109.7302710  42.3726965  79.7676985
 109.7947143  42.8347373  80.6035157 109.0213634  41.7424330  79.8959295
 100.2320000  35.7368173  77.2925984 100.4828039  36.6215183  77.5583560
 100.7679549  35.5572775  76.5201076 109.4450728  44.0395073  69.6355965
 109.3096403  44.8846609  70.0640813 109.9860540  44.2414351  68.8721899
 105.9318068  30.1186653  86.2970320 105.5385013  29.5652851  86.9717965
 106.7484208  30.4297231  86.6876838 102.8980125  41.5570511  70.2083890
 103.4104646  42.3513761  70.3589455 103.5502838  40.8596801  70.1417492
 104.7075010  44.6736267  72.2906643 104.8841638  45.5954232  72.1027627
 105.5031844  44.3594686  72.7201023 108.8486029  31.5344532  83.8890577
 109.5895742  32.1351685  83.8095039 109.0803951  30.7922170  83.3308619
 103.9927367  36.7200899  82.1668807 103.8780882  35.8186156  82.4675905
 103.1371884  36.9664596  81.8153623 111.0719204  44.6618639  83.7656307
 110.6283059  43.8755018  83.4477212 111.7336418  44.8497790  83.1000198
 105.8306326  46.1914441  78.2916986 106.3813751  46.0631504  77.5193980
 104.9917801  46.4909330  77.9411879 113.1700442  44.9421439  81.7937708
 113.1518918  45.7630320  81.3017978 114.0920362  44.8175515  82.0187850
 109.6273497  42.4565569  82.6361217 110.1601833  41.6953857  82.4060525
 109.0987578  42.1639221  83.3785371 112.7943192  27.5625635  78.1654859
 112.4507461  28.4527276  78.0893969 113.1622154  27.3727292  77.3024444
 100.8629042  39.8859165  70.9843461 101.7004264  40.2956174  70.7677168
 101.0407310  38.9458607  70.9543655 112.7593474  37.5534246  66.6727294
 112.2440098  38.3238851  66.9115681 112.4870783  36.8799382  67.2960355
 110.3440585  32.3983947  71.7312532 109.4882182  32.0090797  71.5518171
 110.7567537  32.4775907  70.8712318 111.8739732  29.9330290  76.1304092
 111.3704527  29.8960425  75.3171897 112.1670339  30.8423033  76.1900748
 108.1182618  30.0169020  75.1370274 108.9835615  29.8211828  74.7776163
 108.1860127  29.7879371  76.0639630 117.7327748  40.3066601  68.6080467
 116.9557191  39.9677760  68.1635629 118.4119229  40.3119224  67.9335432
 112.5479777  35.4261338  68.4987075 112.2429913  35.7407487  69.3497218
 113.5010220  35.5042758  68.5414408 110.9926209  41.5851561  70.1480029
 110.4647571  40.8504321  69.8353266 110.4913712  42.3626238  69.9019997
 115.9719055  39.7800582  75.2647075 115.3142730  40.4699843  75.3527204
 116.7759454  40.1697014  75.6081062 105.7244937  32.2471228  72.5086640
 106.2988689  32.0246409  71.7759833 106.3115919  32.3159922  73.2615242
 114.7824514  38.1344954  73.3151017 115.2956396  38.7674946  73.8172727
 115.4325738  37.5346150  72.9494377 106.0514524  34.2775689  66.5282526
 105.2151836  34.6150375  66.8491800 105.9119294  34.1424668  65.5909663
 108.0267605  29.1212476  71.2361710 107.3732017  28.8061494  70.6118325
 107.9848079  28.4988217  71.9621533 109.1378809  39.4031772  63.1515002
 108.2305871  39.1721025  63.3506151 109.6349841  38.6069391  63.3388983
 112.0446888  48.1129279  66.0711688 111.3708587  48.4160976  66.6796646
 112.4312710  48.9158359  65.7217145 111.2605345  35.6094410  75.5609357
 110.3427906  35.8309357  75.4031045 111.6765489  35.6840721  74.7021065
 112.0440393  37.0085826  70.6912038 112.7912212  37.5207223  70.3819160
 112.3131982  36.6869878  71.5516431 110.3167043  39.5044366  67.6738992
 109.4078262  39.2203399  67.7711462 110.3462127  39.9243445  66.8142299
 115.5486310  43.1150956  71.4430160 115.0948637  42.2741866  71.4995350
 114.9180277  43.7512354  71.7804940 114.4919230  34.0442942  72.6730827
 113.7541987  33.5320328  73.0041070 114.7446003  33.6043324  71.8614104
 113.9919250  44.9527453  72.3779978 114.2842224  45.5132510  71.6592343
 114.5017870  45.2456014  73.1333137 114.5930857  26.8219194  73.2672596
 114.8989734  25.9616557  72.9798511 115.3183462  27.4136814  73.0671590
 100.8855213  37.2249881  71.6554194 100.6879613  36.6319241  70.9305261
 100.3301877  36.9202091  72.3730133 108.8651937  37.1172987  73.7748787
 108.9200547  36.1646823  73.6991264 108.0543139  37.2732426  74.2590086
 110.0143131  41.0453110  65.0127071 109.5762561  40.3288969  64.5532708
 110.7553572  41.2729225  64.4512162 106.8044297  35.7350047  71.5339166
 105.9912162  36.0344217  71.9404358 107.3003291  35.3405736  72.2513648
 108.9552875  45.7307804  73.4673431 108.9129054  45.9568650  72.5381963
 109.8715574  45.4971178  73.6159232 112.4018509  36.1991871  80.3654060
 112.7567896  36.4263344  81.2248526 113.0490640  36.5310248  79.7431315
 118.1316245  39.3210307  71.0703389 117.9934144  39.5111903  70.1424578
 117.7752464  40.0829690  71.5271440 106.2958372  33.3068402  77.1500401
 106.9357751  33.1657161  76.4523364 105.4635902  33.0202916  76.7739003
 118.1585625  41.3886834  76.0814661 118.5922132  41.2962123  76.9297715
 118.8717206  41.3644335  75.4434677 107.0718675  42.6070833  73.2635394
 107.8659274  42.1121153  73.0617969 106.3610368  42.0788696  72.9003099
 111.8913520  44.9888928  77.6147761 111.9450542  45.5579865  78.3825477
 111.0228301  45.1590813  77.2501798 103.3801439  36.7513914  69.3395146
 102.4499027  36.6898370  69.5565108 103.4758911  36.2289867  68.5431788
 103.2986988  33.2768727  71.9273388 103.5593805  34.1914061  71.8182548
 104.1204160  32.8093170  72.0770001 104.7711913  34.6906484  79.0972212
 105.4434967  34.4823847  78.4484861 103.9441700  34.4928570  78.6577445
 119.0201175  41.4310535  78.6147546 119.2137065  42.3356345  78.8606821
 118.9201793  40.9717954  79.4486131 110.6737485  31.3168425  81.1137873
 110.0265400  32.0158375  81.0202350 111.4438501  31.7504569  81.4814122
 114.0816283  41.5817278  84.1888427 113.9301790  41.3527829  83.2718510
 114.0720963  42.5387879  84.2019772 110.8501620  39.1549190  79.1734693
 111.7793680  39.3060350  79.0003660 110.4292650  39.2433211  78.3183340
 109.6489951  43.1799855  76.9433231 109.5101037  42.8118639  77.8159169
 108.8604548  43.6947494  76.7717188 110.2438103  48.2808951  68.2858767
 110.4189859  47.8096994  69.1004390 109.5570891  48.9074717  68.5140028
 111.1995167  42.5581457  74.3322068 110.8644999  42.5182227  75.2279718
 110.6999112  41.8926173  73.8592479 105.1739411  37.9649087  79.8574650
 105.0359209  37.2329326  80.4586189 106.0844334  37.8757988  79.5758837
 114.1354358  39.9037492  64.6059128 113.5183529  39.1784320  64.5092181
 113.6670847  40.6646852  64.2626202 107.8021711  37.6769047  79.3458329
 108.5121330  37.0362239  79.3044948 107.7591019  37.9281942  80.2684510
 115.7908490  44.6136400  82.2664908 115.7321036  43.9295620  81.5995492
 116.1928008  45.3555390  81.8145534 106.5150645  34.6634265  81.1653969
 105.9788002  34.2125003  81.8175565 105.9267354  34.7980173  80.4224433
 104.8099189  51.4298314  75.0598627 105.0495787  52.0616838  75.7377646
 103.9668385  51.0786354  75.3463987 105.9252904  34.1222916  63.7280432
 105.0482371  34.0011717  63.3642679 106.4010657  33.3308994  63.4759321
 115.7925897  42.5775984  80.4978888 114.9052676  42.2401906  80.6205287
 116.3624448  41.8459015  80.7347654  97.4455044  38.9100076  73.8221940
  98.1326084  38.5961806  73.2342955  97.2903173  39.8141440  73.5489191
 102.2489766  33.7990272  78.2506963 102.1647955  33.1915942  77.5157373
 101.4272473  34.2899291  78.2516460 109.3227051  47.2377436  77.4640131
 109.2497222  48.0432408  77.9759436 108.8804444  47.4369402  76.6388153
 109.1116830  46.4749206  70.9742953 108.3284352  47.0170887  71.0681177
 109.8109575  46.9923186  71.3737194 112.4213480  32.2843836  73.6177158
 112.9182180  31.5313798  73.2978229 111.6500462  32.3208153  73.0520368
 120.2743238  37.9884201  75.2595450 120.2633114  38.8708917  74.8889383
 119.4060617  37.6355752  75.0649987 111.7825734  47.1364270  79.6198290
 112.4953706  47.7711735  79.5474192 111.2915763  47.2328136  78.8038292
 113.5043261  41.0415523  71.1915582 112.5699540  41.1616986  71.0220286
 113.6819929  40.1387990  70.9275592 109.0048449  34.4261219  73.3448843
 108.6346237  33.8732259  74.0329748 109.5007542  33.8219352  72.7923843
 116.8915812  36.8832842  71.7265616 117.3576265  37.7160834  71.6525919
 117.3423313  36.4177824  72.4310874 106.8337648  44.8858714  80.4403861
 107.5347107  45.5195197  80.5933255 106.3632763  45.2273445  79.6799500
 114.9592043  43.2276664  68.7251768 115.2351887  43.1133258  69.6345642
 114.0896542  42.8294149  68.6863941 114.8632475  29.2513429  75.7656517
 113.9495555  29.4817656  75.9338724 115.2925577  29.3351873  76.6170550
 114.6338934  37.4403321  78.2656411 113.9810384  37.6879229  77.6108864
 115.0119314  36.6267460  77.9318889 111.5946108  47.4763015  72.3684582
 111.7768502  46.6584670  72.8312334 112.4179094  47.6930707  71.9309471
 111.9288273  46.4031200  69.6299630 112.4576039  45.8923654  69.0169792
 112.1916493  46.0873730  70.4945163 110.6826507  38.1823132  84.7522448
 110.0067144  38.0817262  85.4224824 111.5054141  38.0262346  85.2158446
 102.4305366  44.4195069  77.3734964 103.0158803  43.6738757  77.5062868
 102.2330204  44.7299026  78.2571627 105.2844021  47.4546316  72.3897406
 104.6154396  47.9392444  71.9061446 105.1456891  47.7015537  73.3040784
  97.0223020  36.9900669  76.0939407  97.0607120  36.4564260  76.8876525
  96.5163313  36.4635875  75.4750384 109.4249290  49.4890060  78.9880064
 109.9767598  49.6521681  79.7529150 109.7655483  50.0794498  78.3160089
 104.4013783  31.8365210  79.5901949 104.4655109  32.6980041  79.1779347
 104.3380903  31.2239211  78.8574308 103.8766055  33.9088342  83.2374983
 104.5038094  33.5265420  83.8512508 103.0193974  33.6902544  83.6030676
 114.2760164  44.3151317  84.8428719 114.8200068  44.9281276  84.3483674
 113.6947009  44.8730896  85.3595732 100.6531598  35.7164771  69.1693338
 100.9485039  34.8075450  69.1160392  99.7519634  35.6952511  68.8474340
 112.5617677  47.4372035  75.9743746 112.4368816  46.6361775  75.4654692
 113.2196768  47.9318229  75.4857716 104.1825845  33.7920768  75.1520887
 103.4612431  34.4056736  75.0128360 104.9719101  34.3278533  75.0737533
 114.6252585  45.2381055  77.6023297 113.6782921  45.1186407  77.5301623
 114.9735358  44.3503554  77.6849558 106.9852159  31.1275194  81.4261538
 107.5086560  31.3737491  82.1887848 106.7664492  31.9595229  81.0064676
 102.3819440  33.3978869  69.2932663 102.0532146  32.5176248  69.1107769
 102.7358810  33.3426538  70.1809052 111.6299018  45.0333772  73.8027649
 111.4823981  44.1050479  73.9835219 112.4552512  45.0553862  73.3184724
 105.4961263  33.6851839  69.6608141 105.8357335  34.2137760  68.9386749
 105.9433383  34.0232245  70.4366707 115.2333140  45.8562330  74.8892522
 116.1579688  45.6505192  74.7516973 115.0648444  45.6078732  75.7981863
 108.1904704  32.0688889  79.1111209 107.8501524  31.2696703  79.5131889
 107.4843710  32.3690600  78.5388042 108.8421175  29.1538202  77.5638532
 109.6647245  28.6798680  77.4417422 109.0859239  29.9328686  78.0637218
 107.4829410  32.1826460  67.8601434 108.2037772  32.5607713  67.3565151
 106.8594714  32.9015337  67.9636412 111.6260533  32.8871609  68.7959766
 111.8424147  33.7696247  68.4948594 111.1454600  32.4957823  68.0665408
 106.3659754  35.8457323  75.3730511 106.2204335  36.1597626  76.2654792
 105.8884958  36.4642223  74.8201409 108.2256137  32.8359871  75.4211400
 108.2117706  31.9400964  75.0843698 108.9428565  32.8430534  76.0549686
 110.0782268  33.2697211  77.4664528 109.8200046  34.1914281  77.4648858
 109.5467308  32.8727645  78.1564992 115.0228457  46.3747998  70.2454613
 115.1965334  45.8094420  69.4928465 115.5157348  47.1748893  70.0634103
 100.8405416  38.3862667  78.3118172 100.2958884  39.1622475  78.4438446
 101.7184766  38.7333471  78.1537293 107.6293033  31.7174251  70.6898970
 107.7508944  30.7890897  70.8889858 107.3395075  31.7312937  69.7777286
 110.4984223  29.4029161  73.8265690 110.5205920  29.4668494  72.8717670
 110.9152282  28.5633670  74.0206196 120.8767848  39.1384421  71.8644913
 121.3198994  38.3891746  71.4664036 119.9994358  39.1294557  71.4818645
 116.0103629  45.6914762  67.3451511 116.7054534  46.3121455  67.5638826
 116.3526779  44.8410113  67.6203889 101.6271438  37.5132563  81.2048329
 100.8853174  37.6615199  81.7912959 101.3064182  37.7740829  80.3415078
 117.9095052  43.1414468  68.8738842 118.4346376  43.4801741  68.1488162
 117.8217405  42.2061483  68.6901977 109.5715101  47.0548541  81.0028719
 109.8802227  46.8097688  81.8751418 110.3690583  47.2595180  80.5147589
 109.5935713  49.2086451  73.2334095 109.1540703  48.7162830  73.9266952
 110.3443830  48.6659419  72.9926170 102.0728052  45.3997992  73.2358723
 102.8986072  45.1001764  72.8557367 101.7222104  44.6305614  73.6848512
 107.0409585  44.7524460  75.3056397 106.4189594  44.0895165  75.0058625
 107.7114452  44.7785592  74.6230045 100.2736657  43.3184318  74.1947657
  99.4368565  42.8906493  74.0131658 100.2460302  43.5116762  75.1318448
 107.1134113  33.2306248  84.8988903 107.1622268  34.1068371  84.5166673
 107.6556627  32.6883641  84.3260546 117.5988958  43.7747371  84.1790040
 116.8084502  43.7571510  83.6394539 117.3622313  44.3135665  84.9339077
 117.7186833  40.6239838  81.4922769 117.7684838  40.4589845  82.4338291
 117.6100757  39.7567097  81.1020649 106.6023092  43.3028384  68.7814857
 106.7511212  43.9863848  68.1281530 107.4089535  43.2833474  69.2964313
 115.0090596  36.6070766  82.8082075 115.9100458  36.4677231  82.5166073
 115.0838570  36.7725221  83.7480253 109.3433401  33.9837621  81.6535262
 108.4736710  34.2771187  81.3817850 109.5792881  34.5678066  82.3742525
 119.2205030  43.0436779  81.7364790 118.9289838  43.4066760  82.5728251
 118.6077161  42.3303788  81.5578122 120.4200712  40.6089659  74.2567360
 121.2547604  41.0479463  74.4204921 120.5559841  40.1328312  73.4375606
 117.4692218  38.1669394  80.2044848 117.9446340  38.3597040  79.3963699
 116.5457784  38.2228580  79.9588232 104.3575725  39.3293561  69.7875926
 104.1121767  38.4255891  69.9856136 104.5271639  39.3310712  68.8455404
 112.0472435  30.2017238  79.1700682 112.5654379  30.9378264  78.8447171
 111.6927568  30.5081231  80.0047441 103.6271372  35.0621919  67.2862088
 102.9340617  35.1366274  66.6302124 103.3823124  34.2982262  67.8083605
 112.2985029  26.6217520  74.6901579 112.5786783  25.9540709  75.3162005
 113.0835636  26.8146616  74.1776242 110.1018497  45.7976514  66.2526605
 109.5292465  46.4166701  65.7997077 110.6751291  46.3475876  66.7866527
 116.1693887  35.0435154  78.4373154 117.1211310  35.1433252  78.4585378
 115.9997338  34.2513423  78.9471238 114.1908267  32.1290737  78.6232555
 113.5958199  32.4095750  77.9279043 113.9057964  32.6184638  79.3949296
 113.3215757  46.0813664  67.3835187 114.2546430  46.0159226  67.5868063
 113.2338970  46.9169931  66.9249720 115.9503774  45.3979534  64.3439135
 115.8717405  45.0639398  65.2374893 116.7713441  45.8901302  64.3430607
 118.6481965  38.2641274  77.5515453 118.6158285  37.3257274  77.7375137
 119.2582589  38.3425310  76.8181278 110.4865296  37.1337327  63.5942657
 111.4324401  37.0043535  63.6631075 110.1079541  36.3951989  64.0712086
 118.7976454  35.0552317  77.5973736 118.2815502  34.2710774  77.4103665
 119.6816402  34.7271034  77.7620256 116.4587181  28.7993333  73.5569549
 116.2612002  28.4908421  74.4412881 117.0686886  29.5254972  73.6867479
 110.3703989  41.1855073  85.0543314 111.2906998  41.3633672  85.2483361
 110.3353572  40.2411118  84.9023014 108.6708213  35.0587303  63.5297543
 107.7639669  34.7620416  63.6060256 108.9484194  34.7617121  62.6631829
  99.5886154  36.3793667  73.9796589  99.2688938  35.5258975  73.6870963
  99.0419582  36.5942245  74.7354556 103.3666061  39.0956108  77.6966095
 103.5852071  40.0273215  77.7154129 103.7791835  38.7364082  78.4820899
 110.2870279  29.6024193  69.6841784 109.4771007  29.2571278  70.0597030
 110.9754696  29.2931737  70.2729395 112.2160827  28.6802240  71.3066081
 112.7691866  29.0997693  71.9656104 112.4530914  27.7537988  71.3489037
 108.2393926  34.6689313  87.0868844 108.1390653  35.6183670  87.0180936
 108.0215468  34.3407552  86.2144914 107.4406998  31.9174238  63.6709522
 108.3026162  32.2429137  63.9305339 107.6257342  31.1305734  63.1582588
  99.4574414  39.9996578  75.9489711  98.7637885  39.5850531  75.4359665
 100.2047405  40.0417115  75.3523129 115.5939634  30.7902765  70.8144745
 115.0138303  31.4487569  70.4322797 115.3275567  29.9680109  70.4032162
 114.0443201  30.1907822  73.0166065 114.5442979  30.3024357  72.2080384
 114.6878809  29.8868875  73.6566874 108.1025196  38.0986452  85.9033906
 107.6192278  38.8986812  86.1097795 108.1886135  38.1094397  84.9501350
 101.3711156  39.9314832  73.8255725 101.3481844  40.0302519  72.8737609
 101.6811793  40.7779983  74.1472892 104.0298534  41.9890987  77.9402340
 104.9841787  41.9574929  77.8732271 103.8311058  41.5281611  78.7552566
 104.6197916  40.5592103  80.5073138 105.4390805  41.0536182  80.5307975
 104.8934724  39.6424071  80.4790705 114.3764512  32.9502855  69.8701093
 113.4890367  33.2352506  69.6521288 114.7918501  32.7896619  69.0228370
 117.7279048  32.9749376  73.5855432 118.5039439  33.4645829  73.8580049
 117.0027183  33.4007430  74.0427302 120.1651607  33.6876995  74.6429373
 120.7596098  33.4472731  73.9322681 120.2378191  32.9684126  75.2702909
 102.3848763  47.5310606  74.9572538 102.2503231  46.7711007  74.3910536
 101.9680825  48.2551506  74.4901327 113.5207726  42.7147530  63.9649113
 114.2243576  42.9197532  64.5806769 112.7970374  43.2824292  64.2298197
 114.3505536  38.4657391  70.0851383 114.2940737  38.9225943  69.2459016
 114.9033878  37.7048076  69.9074226 118.1610342  34.2547123  70.9101503
 117.9047276  33.8543759  71.7409710 117.5363210  34.9690917  70.7851642
 122.4722680  36.9943196  73.4172794 121.9122238  37.0636386  74.1904356
 121.8666183  36.8184181  72.6972290 105.5417889  48.4279923  75.1690980
 105.4250273  49.3725356  75.0669671 104.7210335  48.1253485  75.5576780
 115.4294423  43.1530059  66.0147573 116.2640027  42.7211258  65.8325048
 115.2678766  42.9812073  66.9424468 115.0840315  39.6562172  67.3803912
 115.0289119  39.4906444  66.4392356 114.4586371  40.3638205  67.5366102
  99.8732830  34.8930237  81.2065335 100.5191694  34.3829191  81.6952560
  99.6649981  35.6298918  81.7808760 112.3986222  41.9611084  86.7057475
 113.2677382  42.1351736  86.3444110 111.9192974  42.7805501  86.5833204
 108.3936441  29.1570281  66.9589231 108.3815111  30.1012121  67.1157502
 109.2859863  28.9740427  66.6648692 106.5672403  49.0808185  78.3846909
 107.4699649  49.1131795  78.7013404 106.3409773  48.1508636  78.3993245
 108.3226005  47.8339172  75.0456987 107.3721636  47.8341033  74.9321360
 108.6258491  47.0871906  74.5293022 112.2088560  25.7513058  71.2135168
 111.4420956  25.1971545  71.3591850 112.6199265  25.8234927  72.0749319
 104.2130321  32.0397854  85.3040349 105.0761783  31.6834659  85.5143673
 103.6395732  31.7011749  85.9915753 120.8668405  53.6227138  76.0464275
 120.5286916  53.5068203  75.1584809 121.7358173  53.2218303  76.0265281
 116.7255220  55.4762615  72.0361165 116.1620085  55.3852552  71.2677453
 116.6107615  54.6562519  72.5163658 121.3488187  54.7761990  82.0050480
 121.3376828  54.3814788  81.1330984 121.5108827  54.0428063  82.5984251
 114.2719652  56.9713806  74.8745386 115.0640944  56.6304631  74.4591685
 114.5116302  57.0808781  75.7947539 116.2310406  56.2322720  67.7462765
 117.0041282  55.6851707  67.6075641 116.5835805  57.0966969  67.9577226
 118.0695449  57.5599102  80.9529664 117.7785315  58.4644733  80.8376330
 118.7052433  57.6015629  81.6673734 118.9951655  54.9375950  77.5431024
 119.5915228  54.7131973  76.8287987 119.0526627  54.1960696  78.1456472
 118.5676684  52.3915386  65.3781215 118.8202205  51.8696907  64.6164678
 117.6301243  52.2281531  65.4807898 118.2872973  54.2943492  67.5805590
 118.1709231  53.6188395  68.2486674 118.3975233  53.8075866  66.7637743
 120.6304514  53.7553639  71.2852279 120.2662721  53.2284260  71.9965200
 121.4871629  53.3652108  71.1118764 120.2710001  48.7843538  66.2813627
 120.4384403  49.6523775  66.6484098 120.0807170  48.9470820  65.3574917
 116.4797815  53.6974314  73.9816162 115.5548312  53.5650528  74.1893854
 116.7282228  54.4768533  74.4786105 120.2499221  51.2401196  67.2660294
 120.1298847  51.6858247  68.1045774 119.5551810  51.5886514  66.7073832
 113.8406626  53.3407588  74.8159951 113.9699007  53.5942067  75.7299363
 113.1604078  53.9335296  74.4964606 118.0106114  64.0104838  70.9150425
 117.9330143  64.9612663  70.9938906 117.4067757  63.6650710  71.5725352
 120.5023343  51.1832703  83.5711792 119.7256677  51.7426623  83.5614657
 121.1413906  51.6689486  84.0926662 118.7569716  53.9918156  83.1329759
 119.4984400  54.5303200  82.8564583 118.0506701  54.6184445  83.2901311
 120.5856125  51.0719904  79.1035478 121.4317320  51.4959317  79.2470127
 120.5254763  50.4153528  79.7974041 120.1081832  56.4322896  72.7504295
 120.5720177  56.7110599  71.9608917 119.8438630  55.5306340  72.5677385
 117.0005913  55.9794377  75.6884058 117.5707270  56.4081646  75.0501543
 117.5914025  55.6976962  76.3868244 119.0450718  52.5546048  69.5593860
 119.7474761  53.0067092  70.0267786 118.7131346  51.9129867  70.1873753
 117.4931079  51.1457805  83.9345069 116.8629740  51.8274085  84.1680466
 117.3867167  51.0340886  82.9898208 112.7876052  50.8129601  74.8610993
 111.9975106  51.0687129  74.3851104 113.2787299  51.6277938  74.9663034
 114.7390797  51.1774180  71.8194470 113.9421960  51.2892874  72.3377966
 114.5116389  51.5160832  70.9535361 120.5696465  57.7018883  79.7676985
 120.6340897  58.1639290  80.6035157 119.8607389  57.0716248  79.8959295
 111.0713755  51.0660091  77.2925984 111.3221793  51.9507101  77.5583560
 111.6073303  50.8864693  76.5201076 120.2844482  59.3686991  69.6355965
 120.1490157  60.2138526  70.0640813 120.8254295  59.5706268  68.8721899
 116.7711822  45.4478570  86.2970320 116.3778768  44.8944769  86.9717965
 117.5877962  45.7589149  86.6876838 113.7373880  56.8862429  70.2083890
 114.2498400  57.6805679  70.3589455 114.3896593  56.1888719  70.1417492
 115.5468765  60.0028185  72.2906643 115.7235393  60.9246150  72.1027627
 116.3425598  59.6886604  72.7201023 119.6879783  46.8636450  83.8890577
 120.4289496  47.4643603  83.8095039 119.9197706  46.1214087  83.3308619
 114.8321121  52.0492817  82.1668807 114.7174636  51.1478074  82.4675905
 113.9765639  52.2956514  81.8153623 116.6700080  61.5206359  78.2916986
 117.2207505  61.3923422  77.5193980 115.8311556  61.8201248  77.9411879
 120.4667251  57.7857487  82.6361217 120.9995588  57.0245775  82.4060525
 119.9381332  57.4931138  83.3785371 111.7022797  55.2151083  70.9843461
 112.5398019  55.6248091  70.7677168 111.8801064  54.2750525  70.9543655
 121.1834340  47.7275864  71.7312532 120.3275936  47.3382715  71.5518171
 121.5961292  47.8067825  70.8712318 118.9576372  45.3460937  75.1370274
 119.8229369  45.1503746  74.7776163 119.0253881  45.1171289  76.0639630
 121.8319964  56.9143479  70.1480029 121.3041325  56.1796239  69.8353266
 121.3307466  57.6918155  69.9019997 116.5638691  47.5763145  72.5086640
 117.1382443  47.3538327  71.7759833 117.1509674  47.6451840  73.2615242
 116.8908278  49.6067606  66.5282526 116.0545591  49.9442293  66.8491800
 116.7513048  49.4716586  65.5909663 118.8661359  44.4504394  71.2361710
 118.2125771  44.1353411  70.6118325 118.8241833  43.8280135  71.9621533
 119.9772564  54.7323689  63.1515002 119.0699626  54.5012943  63.3506151
 120.4743596  53.9361309  63.3388983 121.1560797  54.8336284  67.6738992
 120.2472017  54.5495317  67.7711462 121.1855881  55.2535363  66.8142299
 111.7248968  52.5541798  71.6554194 111.5273368  51.9611159  70.9305261
 111.1695632  52.2494008  72.3730133 119.7045691  52.4464905  73.7748787
 119.7594301  51.4938741  73.6991264 118.8936893  52.6024344  74.2590086
 120.8536885  56.3745028  65.0127071 120.4156315  55.6580887  64.5532708
 121.5947326  56.6021143  64.4512162 117.6438051  51.0641964  71.5339166
 116.8305917  51.3636135  71.9404358 118.1397046  50.6697653  72.2513648
 119.7946629  61.0599721  73.4673431 119.7522808  61.2860568  72.5381963
 120.7109328  60.8263096  73.6159232 117.1352126  48.6360320  77.1500401
 117.7751505  48.4949079  76.4523364 116.3029657  48.3494833  76.7739003
 117.9112430  57.9362750  73.2635394 118.7053028  57.4413071  73.0617969
 117.2004122  57.4080614  72.9003099 114.2195193  52.0805832  69.3395146
 113.2892782  52.0190288  69.5565108 114.3152665  51.5581785  68.5431788
 114.1380742  48.6060645  71.9273388 114.3987560  49.5205978  71.8182548
 114.9597915  48.1385088  72.0770001 115.6105668  50.0198402  79.0972212
 116.2828721  49.8115764  78.4484861 114.7835454  49.8220488  78.6577445
 121.5131240  46.6460343  81.1137873 120.8659155  47.3450293  81.0202350
 122.2832255  47.0796487  81.4814122 120.4883706  58.5091772  76.9433231
 120.3494792  58.1410557  77.8159169 119.6998302  59.0239412  76.7717188
 121.0831858  63.6100869  68.2858767 121.2583614  63.1388912  69.1004390
 120.3964646  64.2366635  68.5140028 122.0388921  57.8873375  74.3322068
 121.7038754  57.8474145  75.2279718 121.5392867  57.2218091  73.8592479
 116.0133165  53.2941005  79.8574650 115.8752963  52.5621244  80.4586189
 116.9238089  53.2049905  79.5758837 118.6415466  53.0060964  79.3458329
 119.3515084  52.3654157  79.3044948 118.5984774  53.2573859  80.2684510
 117.3544400  49.9926182  81.1653969 116.8181757  49.5416921  81.8175565
 116.7661108  50.1272091  80.4224433 115.6492943  66.7590232  75.0598627
 115.8889541  67.3908756  75.7377646 114.8062140  66.4078272  75.3463987
 116.7646659  49.4514834  63.7280432 115.8876125  49.3303635  63.3642679
 117.2404412  48.6600912  63.4759321 108.2848799  54.2391993  73.8221940
 108.9719839  53.9253724  73.2342955 108.1296928  55.1433358  73.5489191
 113.0883521  49.1282190  78.2506963 113.0041710  48.5207860  77.5157373
 112.2666227  49.6191208  78.2516460 120.1620805  62.5669354  77.4640131
 120.0890977  63.3724326  77.9759436 119.7198198  62.7661320  76.6388153
 119.9510585  61.8041124  70.9742953 119.1678107  62.3462804  71.0681177
 120.6503330  62.3215104  71.3737194 119.8442204  49.7553137  73.3448843
 119.4739991  49.2024177  74.0329748 120.3401296  49.1511270  72.7923843
 117.6731402  60.2150632  80.4403861 118.3740862  60.8487115  80.5933255
 117.2026517  60.5565363  79.6799500 121.5220261  53.5115050  84.7522448
 120.8460898  53.4109179  85.4224824 122.3447895  53.3554264  85.2158446
 113.2699120  59.7486987  77.3734964 113.8552557  59.0030675  77.5062868
 113.0723959  60.0590943  78.2571627 116.1237775  62.7838234  72.3897406
 115.4548151  63.2684362  71.9061446 115.9850645  63.0307454  73.3040784
 107.8616775  52.3192587  76.0939407 107.9000874  51.7856178  76.8876525
 107.3557068  51.7927792  75.4750384 120.2643044  64.8181978  78.9880064
 120.8161352  64.9813599  79.7529150 120.6049237  65.4086415  78.3160089
 115.2407537  47.1657127  79.5901949 115.3048864  48.0271958  79.1779347
 115.1774657  46.5531129  78.8574308 114.7159810  49.2380260  83.2374983
 115.3431849  48.8557337  83.8512508 113.8587729  49.0194462  83.6030676
 111.4925353  51.0456689  69.1693338 111.7878794  50.1367367  69.1160392
 110.5913388  51.0244428  68.8474340 115.0219600  49.1212686  75.1520887
 114.3006185  49.7348653  75.0128360 115.8112855  49.6570450  75.0737533
 117.8245913  46.4567112  81.4261538 118.3480315  46.7029409  82.1887848
 117.6058246  47.2887147  81.0064676 113.2213194  48.7270787  69.2932663
 112.8925900  47.8468166  69.1107769 113.5752565  48.6718455  70.1809052
 116.3355017  49.0143756  69.6608141 116.6751090  49.5429678  68.9386749
 116.7827138  49.3524163  70.4366707 119.0298458  47.3980807  79.1111209
 118.6895278  46.5988620  79.5131889 118.3237464  47.6982518  78.5388042
 119.6814930  44.4830120  77.5638532 120.5040999  44.0090598  77.4417422
 119.9252993  45.2620603  78.0637218 118.3223164  47.5118378  67.8601434
 119.0431527  47.8899631  67.3565151 117.6988469  48.2307255  67.9636412
 117.2053509  51.1749240  75.3730511 117.0598089  51.4889543  76.2654792
 116.7278712  51.7934141  74.8201409 119.0649892  48.1651788  75.4211400
 119.0511460  47.2692882  75.0843698 119.7822320  48.1722452  76.0549686
 120.9176022  48.5989128  77.4664528 120.6593800  49.5206199  77.4648858
 120.3861063  48.2019563  78.1564992 111.6799171  53.7154585  78.3118172
 111.1352639  54.4914393  78.4438446 112.5578521  54.0625389  78.1537293
 118.4686787  47.0466168  70.6898970 118.5902699  46.1182815  70.8889858
 118.1788830  47.0604854  69.7777286 121.3377978  44.7321079  73.8265690
 121.3599675  44.7960412  72.8717670 121.7546037  43.8925588  74.0206196
 112.4665193  52.8424481  81.2048329 111.7246929  52.9907116  81.7912959
 112.1457937  53.1032747  80.3415078 120.4108855  62.3840459  81.0028719
 120.7195982  62.1389606  81.8751418 121.2084337  62.5887098  80.5147589
 120.4329467  64.5378369  73.2334095 119.9934458  64.0454747  73.9266952
 121.1837584  63.9951336  72.9926170 112.9121806  60.7289910  73.2358723
 113.7379826  60.4293681  72.8557367 112.5615858  59.9597532  73.6848512
 117.8803340  60.0816378  75.3056397 117.2583349  59.4187083  75.0058625
 118.5508206  60.1077510  74.6230045 111.1130411  58.6476236  74.1947657
 110.2762320  58.2198410  74.0131658 111.0854057  58.8408679  75.1318448
 117.9527867  48.5598166  84.8988903 118.0016023  49.4360289  84.5166673
 118.4950381  48.0175559  84.3260546 117.4416846  58.6320301  68.7814857
 117.5904967  59.3155766  68.1281530 118.2483290  58.6125391  69.2964313
 120.1827155  49.3129538  81.6535262 119.3130465  49.6063104  81.3817850
 120.4186636  49.8969983  82.3742525 115.1969479  54.6585479  69.7875926
 114.9515521  53.7547809  69.9856136 115.3665394  54.6602629  68.8455404
 114.4665127  50.3913836  67.2862088 113.7734372  50.4658191  66.6302124
 114.2216879  49.6274180  67.8083605 120.9412252  61.1268432  66.2526605
 120.3686219  61.7458619  65.7997077 121.5145046  61.6767793  66.7866527
 121.3259050  52.4629244  63.5942657 122.2718155  52.3335452  63.6631075
 120.9473295  51.7243906  64.0712086 121.2097743  56.5146991  85.0543314
 122.1300752  56.6925590  85.2483361 121.1747326  55.5703036  84.9023014
 119.5101968  50.3879221  63.5297543 118.6033423  50.0912333  63.6060256
 119.7877949  50.0909039  62.6631829 110.4279908  51.7085584  73.9796589
 110.1082692  50.8550892  73.6870963 109.8813336  51.9234162  74.7354556
 114.2059816  54.4248025  77.6966095 114.4245825  55.3565133  77.7154129
 114.6185589  54.0656000  78.4820899 121.1264033  44.9316110  69.6841784
 120.3164762  44.5863195  70.0597030 121.8148450  44.6223654  70.2729395
 119.0787681  49.9981231  87.0868844 118.9784408  50.9475588  87.0180936
 118.8609223  49.6699470  86.2144914 118.2800752  47.2466156  63.6709522
 119.1419916  47.5721054  63.9305339 118.4651096  46.4597652  63.1582588
 110.2968168  55.3288496  75.9489711 109.6031639  54.9142448  75.4359665
 111.0441159  55.3709032  75.3523129 118.9418951  53.4278370  85.9033906
 118.4586033  54.2278730  86.1097795 119.0279890  53.4386315  84.9501350
 112.2104911  55.2606749  73.8255725 112.1875599  55.3594437  72.8737609
 112.5205547  56.1071900  74.1472892 114.8692288  57.3182904  77.9402340
 115.8235542  57.2866847  77.8732271 114.6704812  56.8573528  78.7552566
 115.4591671  55.8884021  80.5073138 116.2784560  56.3828099  80.5307975
 115.7328478  54.9715989  80.4790705 113.2242517  62.8602524  74.9572538
 113.0896985  62.1002925  74.3910536 112.8074579  63.5843424  74.4901327
 116.3811643  63.7571841  75.1690980 116.2644027  64.7017273  75.0669671
 115.5604089  63.4545403  75.5576780 110.7126585  50.2222154  81.2065335
 111.3585448  49.7121108  81.6952560 110.5043736  50.9590836  81.7808760
 119.2330195  44.4862199  66.9589231 119.2208865  45.4304039  67.1157502
 120.1253617  44.3032344  66.6648692 117.4066157  64.4100103  78.3846909
 118.3093404  64.4423713  78.7013404 117.1803527  63.4800554  78.3993245
 119.1619759  63.1631089  75.0456987 118.2115390  63.1632951  74.9321360
 119.4652245  62.4163824  74.5293022 115.0524076  47.3689771  85.3040349
 115.9155537  47.0126576  85.5143673 114.4789486  47.0303666  85.9915753
 121.9107509  66.3952009  77.2925984 122.1615548  67.2799019  77.5583560
 122.4467058  66.2156610  76.5201076 119.1242553  69.5683911  73.8221940
 119.8113593  69.2545641  73.2342955 118.9690682  70.4725276  73.5489191
 118.7010529  67.6484505  76.0939407 118.7394629  67.1148095  76.8876525
 118.1950822  67.1219710  75.4750384 121.9524166  73.9768154  74.1947657
 121.1156074  73.5490328  74.0131658 121.9247811  74.1700597  75.1318448
 121.2673662  67.0377502  73.9796589 120.9476447  66.1842810  73.6870963
 120.7207091  67.2526080  74.7354556 121.1361923  70.6580413  75.9489711
 120.4425394  70.2434366  75.4359665 121.8834914  70.7000950  75.3523129
 121.5520339  65.5514072  81.2065335 122.1979203  65.0413026  81.6952560
 121.3437490  66.2882754  81.7808760  96.3318606  10.3583125  57.6395732
  96.2542635  11.3090950  57.7184213  95.7280249  10.0128997  58.2970658
  93.9705436  13.1068519  61.7843934  94.2102034  13.7387043  62.4622953
  93.1274632  12.7556559  62.0709293  94.4450268   9.1316521  59.1142713
  93.7760643   9.6162649  58.6306753  94.3063137   9.3785742  60.0286091
  98.5855536  11.1660265  65.7125371  99.1373844  11.3291886  66.4774456
  98.9261730  11.7564703  65.0405396  98.7541960  10.8856656  59.9579402
  98.3146950  10.3933035  60.6512259  99.5050077  10.3429624  59.7171477
  91.5455009   9.2080811  61.6817844  91.4109477   8.4481212  61.1155842
  91.1287072   9.9321711  61.2146633  94.7024135  10.1050128  61.8936287
  94.5856520  11.0495561  61.7914977  93.8816582   9.8023690  62.2822086
  95.7278649  10.7578390  65.1092215  96.6305896  10.7902000  65.4258710
  95.5016020   9.8278841  65.1238551 110.0274651  15.2997343  62.7709581
 109.6893163  15.1838408  61.8830116 110.8964419  14.8988508  62.7510587
 105.8861467  17.1532820  58.7606472 105.3226332  17.0622757  57.9922760
 105.7713862  16.3332724  59.2408965 110.5094434  16.4532195  68.7295787
 110.4983075  16.0584993  67.8576290 110.6715074  15.7198268  69.3229558
 103.4325899  18.6484011  61.5990693 104.2247191  18.3074836  61.1836992
 103.6722549  18.7578986  62.5192846 111.4661026  20.8203787  54.0720937
 110.8149005  21.4057868  53.6854951 112.2605388  21.3509982  54.1315974
 105.3916653  17.9092924  54.4708071 106.1647529  17.3621912  54.3320947
 105.7442052  18.7737174  54.6822533 107.2301695  19.2369307  67.6774971
 106.9391561  20.1414938  67.5621637 107.8658680  19.2785834  68.3919040
 108.1557902  16.6146155  64.2676330 108.7521475  16.3902178  63.5533293
 108.2132874  15.8730901  64.8701778 107.7282931  14.0685591  52.1026521
 107.9808451  13.5467112  51.3409984 106.7907490  13.9051736  52.2053205
 112.9436291  18.5094219  54.6089921 112.3082124  18.5828846  55.3210826
 112.6133697  19.0987818  53.9309001 107.4479219  15.9713697  54.3050896
 107.3315477  15.2958600  54.9731981 107.5581479  15.4846070  53.4883049
 109.7910760  15.4323844  58.0097585 109.4268968  14.9054465  58.7210507
 110.6477876  15.0422313  57.8364071 112.1891580  18.9230722  64.6724764
 111.8892304  19.8255761  64.5640572 111.8442640  18.6562905  65.5245917
 105.6404062  15.3744519  60.7061469 104.7154558  15.2420733  60.9139161
 105.8888475  16.1538738  61.2031411 103.0012873  15.0177793  61.5405258
 103.1305254  15.2712272  62.4544670 102.3210324  15.6105501  61.2209913
 107.1712360  25.6875043  57.6395732 107.0936390  26.6382868  57.7184213
 106.5674004  25.3420915  58.2970658 107.9175962  15.6688361  69.8575066
 108.6590647  16.2073405  69.5809890 107.2112948  16.2954650  70.0146618
 113.3931302  17.8117502  68.4547227 113.8014658  17.3699912  67.7101860
 112.6708564  17.2370129  68.7081420 113.7160117  18.3718692  62.2099516
 113.0868979  18.5364407  61.5075584 113.3285779  18.7860302  62.9810480
 117.5949349  19.3073130  59.5643880 116.9100387  19.6872032  59.0140913
 117.6793198  19.9168457  60.2975828 114.8500280  16.9533089  66.1639224
 115.0617175  17.5964849  65.4873605 114.8030028  16.1195406  65.6961154
 109.2688079  18.1093101  59.4749601 109.7326424  18.3880804  58.6854224
 109.0044877  17.2076545  59.2922692 106.1612160  17.6564582  62.4129365
 106.7313517  18.0851850  61.7746849 106.7520271  17.3747167  63.1113550
 108.2056965  14.2316253  56.2839167 108.9081008  14.6837297  56.7513093
 107.8737593  13.5900072  56.9119060 106.6537326  12.8228010  70.6590376
 106.0235987  13.5044290  70.8925773 106.5473414  12.7111091  69.7143514
 101.9482299  12.4899806  61.5856300 101.1581353  12.7457334  61.1096411
 102.4393546  13.3048143  61.6908341 115.9646108  19.8305045  64.3361581
 116.7863552  19.4285232  64.0544263 115.9608511  19.7273279  65.2877697
 103.8997044  12.8544385  58.5439777 103.1028207  12.9663079  59.0623272
 103.6722636  13.1931037  57.6780667 109.7302712  19.3789088  66.4922291
 109.7947144  19.8409495  67.3280463 109.0213635  18.7486453  66.6204601
 100.2320002  12.7430296  64.0171291 100.4828040  13.6277306  64.2828867
 100.7679550  12.5634898  63.2446383 109.4450729  21.0457196  56.3601272
 109.3096404  21.8908731  56.7886120 109.9860542  21.2476473  55.5967206
 102.8980127  18.5632634  56.9329197 103.4104647  19.3575884  57.0834762
 103.5502839  17.8658924  56.8662798 104.7075011  21.6798390  59.0151950
 104.8841640  22.6016355  58.8272934 105.5031845  21.3656809  59.4446330
 103.9927368  13.7263022  68.8914113 103.8780883  12.8248279  69.1921212
 103.1371886  13.9726718  68.5398930 111.0719206  21.6680762  70.4901614
 110.6283060  20.8817141  70.1722518 111.7336419  21.8559913  69.8245505
 105.8306327  23.1976564  65.0162292 106.3813752  23.0693627  64.2439286
 104.9917803  23.4971453  64.6657185 113.1700444  21.9483562  68.5183015
 113.1518919  22.7692443  68.0263284 114.0920364  21.8237637  68.7433156
 109.6273498  19.4627691  69.3606523 110.1601835  18.7015980  69.1305831
 109.0987579  19.1701343  70.1030678 100.8629043  16.8921288  57.7088767
 101.7004265  17.3018296  57.4922475 101.0407311  15.9520730  57.6788961
 117.7327750  17.3128723  55.3325774 116.9557192  16.9739883  54.8880936
 118.4119231  17.3181346  54.6580739 110.9926211  18.5913684  56.8725335
 110.4647572  17.8566443  56.5598573 110.4913713  19.3688360  56.6265304
 115.9719057  16.7862704  61.9892382 115.3142731  17.4761966  62.0772510
 116.7759456  17.1759136  62.3326368 109.1378811  16.4093894  49.8760309
 108.2305872  16.1783148  50.0751457 109.6349843  15.6131513  50.0634290
 112.0446890  25.1191401  52.7956995 111.3708588  25.4223098  53.4041953
 112.4312712  25.9220482  52.4462452 110.3167044  16.5106489  54.3984299
 109.4078263  16.2265522  54.4956768 110.3462128  16.9305568  53.5387605
 115.5486312  20.1213079  58.1675466 115.0948639  19.2803988  58.2240657
 114.9180278  20.7574477  58.5050246 113.9919251  21.9589575  59.1025284
 114.2842225  22.5194632  58.3837650 114.5017871  22.2518136  59.8578443
 100.8855215  14.2312003  58.3799501 100.6879614  13.6381364  57.6550567
 100.3301878  13.9264213  59.0975440 110.0143132  18.0515233  51.7372377
 109.5762562  17.3351092  51.2778015 110.7553573  18.2791348  51.1757469
 108.9552876  22.7369926  60.1918738 108.9129055  22.9630773  59.2627270
 109.8715575  22.5033301  60.3404539 118.1585626  18.3948957  62.8059967
 118.5922133  18.3024246  63.6543021 118.8717207  18.3706457  62.1679983
 107.0718677  19.6132955  59.9880700 107.8659275  19.1183275  59.7863275
 106.3610369  19.0850818  59.6248406 111.8913521  21.9951051  64.3393068
 111.9450544  22.5641987  65.1070784 111.0228303  22.1652936  63.9747105
 103.3801440  13.7576037  56.0640453 102.4499028  13.6960493  56.2810415
 103.4758912  13.2351990  55.2677094 119.0201176  18.4372657  65.3392853
 119.2137066  19.3418468  65.5852128 118.9201794  17.9780076  66.1731438
 114.0816285  18.5879400  70.9133733 113.9301791  18.3589952  69.9963817
 114.0720964  19.5450002  70.9265078 110.8501621  16.1611313  65.8980000
 111.7793681  16.3122473  65.7248967 110.4292651  16.2495334  65.0428646
 109.6489953  20.1861977  63.6678537 109.5101038  19.8180762  64.5404475
 108.8604549  20.7009617  63.4962495 110.2438105  25.2871074  55.0104074
 110.4189860  24.8159117  55.8249697 109.5570893  25.9136840  55.2385335
 111.1995168  19.5643580  61.0567375 110.8645000  19.5244350  61.9525025
 110.6999114  18.8988296  60.5837785 105.1739412  14.9711210  66.5819956
 105.0359210  14.2391449  67.1831495 106.0844335  14.8820110  66.3004144
 114.1354360  16.9099614  51.3304435 113.5183530  16.1846443  51.2337487
 113.6670848  17.6708975  50.9871509 107.8021713  14.6831169  66.0703636
 108.5121331  14.0424362  66.0290254 107.7591021  14.9344064  66.9929817
 115.7908491  21.6198523  68.9910215 115.7321037  20.9357743  68.3240798
 116.1928010  22.3617513  68.5390841 104.8099190  28.4360437  61.7843934
 105.0495788  29.0678961  62.4622953 103.9668386  28.0848477  62.0709293
 115.7925898  19.5838107  67.2224195 114.9052677  19.2464028  67.3450594
 116.3624450  18.8521138  67.4592960  97.4455046  15.9162198  60.5467246
  98.1326085  15.6023928  59.9588262  97.2903174  16.8203563  60.2734498
 109.3227052  24.2439559  64.1885438 109.2497223  25.0494530  64.7004743
 108.8804445  24.4431525  63.3633459 109.1116831  23.4811329  57.6988260
 108.3284353  24.0233009  57.7926484 109.8109577  23.9985309  58.0982501
 111.7825735  24.1426393  66.3443597 112.4953708  24.7773858  66.2719498
 111.2915764  24.2390259  65.5283599 113.5043262  18.0477646  57.9160888
 112.5699541  18.1679108  57.7465593 113.6819931  17.1450112  57.6520898
 106.8337649  21.8920836  67.1649167 107.5347108  22.5257319  67.3178562
 106.3632764  22.2335568  66.4044807 114.9592045  20.2338786  55.4497075
 115.2351889  20.1195381  56.3590949 114.0896543  19.8356271  55.4109248
 111.5946109  24.4825137  59.0929888 111.7768503  23.6646793  59.5557640
 112.4179095  24.6992829  58.6554778 111.9288274  23.4093322  56.3544937
 112.4576041  22.8985777  55.7415099 112.1916494  23.0935852  57.2190470
 110.6826508  15.1885255  71.4767755 110.0067145  15.0879384  72.1470130
 111.5054142  15.0324469  71.9403752 102.4305367  21.4257192  64.0980270
 103.0158804  20.6800879  64.2308174 102.2330205  21.7361148  64.9816934
 105.2844022  24.4608439  59.1142713 104.6154397  24.9454567  58.6306753
 105.1456892  24.7077659  60.0286091  97.0223022  13.9962792  62.8184713
  97.0607121  13.4626382  63.6121831  96.5163315  13.4697997  62.1995691
 109.4249291  26.4952182  65.7125371 109.9767599  26.6583804  66.4774456
 109.7655484  27.0856620  65.0405396 114.2760165  21.3213440  71.5674025
 114.8200069  21.9343398  71.0728980 113.6947010  21.8793018  72.0841038
 100.6531599  12.7226894  55.8938645 100.9485040  11.8137572  55.8405698
  99.7519635  12.7014633  55.5719647 112.5617678  24.4434158  62.6989053
 112.4368818  23.6423898  62.1899999 113.2196769  24.9380351  62.2103023
 114.6252586  22.2443178  64.3268603 113.6782922  22.1248529  64.2546930
 114.9735360  21.3565676  64.4094865 111.6299020  22.0395894  60.5272955
 111.4823982  21.1112602  60.7080525 112.4552513  22.0615985  60.0430031
 115.2333142  22.8624453  61.6137828 116.1579689  22.6567314  61.4762279
 115.0648445  22.6140854  62.5227170 106.3659755  12.8519445  62.0975817
 106.2204336  13.1659748  62.9900099 105.8884959  13.4704345  61.5446716
 115.0228458  23.3810120  56.9699920 115.1965335  22.8156543  56.2173772
 115.5157349  24.1811015  56.7879410 100.8405418  15.3924790  65.0363478
 100.2958886  16.1684598  65.1683753 101.7184767  15.7395594  64.8782600
 116.0103630  22.6976885  54.0696818 116.7054535  23.3183578  54.2884133
 116.3526780  21.8472236  54.3449196 101.6271439  14.5194686  67.9293635
 100.8853176  14.6677321  68.5158266 101.3064184  14.7802951  67.0660385
 117.9095053  20.1476590  55.5984149 118.4346377  20.4863863  54.8733469
 117.8217406  19.2123606  55.4147283 109.5715102  24.0610664  67.7274025
 109.8802229  23.8159811  68.5996725 110.3690584  24.2657303  67.2392896
 109.5935714  26.2148574  59.9579402 109.1540704  25.7224952  60.6512259
 110.3443831  25.6721541  59.7171477 102.0728053  22.4060115  59.9604030
 102.8986073  22.1063886  59.5802673 101.7222105  21.6367737  60.4093819
 107.0409586  21.7586583  62.0301704 106.4189596  21.0957288  61.7303931
 107.7114453  21.7847715  61.3475351 100.2736658  20.3246441  60.9192964
  99.4368566  19.8968615  60.7376965 100.2460304  20.5178884  61.8563755
 117.5988959  20.7809494  70.9035347 116.8084503  20.7633633  70.3639846
 117.3622314  21.3197788  71.6584383 117.7186835  17.6301960  68.2168075
 117.7684839  17.4651968  69.1583598 117.6100758  16.7629219  67.8265956
 106.6023093  20.3090506  55.5060164 106.7511214  20.9925970  54.8526837
 107.4089537  20.2895596  56.0209620 119.2205031  20.0498902  68.4610097
 118.9289840  20.4128882  69.2973558 118.6077163  19.3365910  68.2823429
 104.3575726  16.3355684  56.5121233 104.1121768  15.4318014  56.7101443
 104.5271641  16.3372834  55.5700711 110.1018499  22.8038637  52.9771911
 109.5292466  23.4228824  52.5242383 110.6751292  23.3537998  53.5111833
 113.3215759  23.0875787  54.1080494 114.2546432  23.0221348  54.3113369
 113.2338971  23.9232054  53.6495026 115.9503775  22.4041657  51.0684441
 115.8717407  22.0701521  51.9620199 116.7713442  22.8963425  51.0675914
 110.3703990  18.1917195  71.7788621 111.2906999  18.3695794  71.9728667
 110.3353573  17.2473241  71.6268320  99.5886155  13.3855789  60.7041896
  99.2688939  12.5321097  60.4116270  99.0419583  13.6004367  61.4599863
 103.3666062  16.1018230  64.4211402 103.5852072  17.0335338  64.4399436
 103.7791836  15.7426204  65.2066206  99.4574415  17.0058701  62.6735017
  98.7637886  16.5912653  62.1604972 100.2047406  17.0479237  62.0768436
 108.1025198  15.1048575  72.6279213 107.6192279  15.9048935  72.8343102
 108.1886137  15.1156520  71.6746657 101.3711157  16.9376954  60.5501032
 101.3481845  17.0364642  59.5982915 101.6811794  17.7842105  60.8718198
 104.0298535  18.9953109  64.6647646 104.9841789  18.9637052  64.5977578
 103.8311059  18.5343733  65.4797872 104.6197917  17.5654225  67.2318444
 105.4390806  18.0598304  67.2553281 104.8934725  16.6486194  67.2036012
 102.3848764  24.5372729  61.6817844 102.2503232  23.7773130  61.1155842
 101.9680826  25.2613629  61.2146633 113.5207727  19.7209652  50.6894420
 114.2243577  19.9259655  51.3052075 112.7970376  20.2886414  50.9543503
 105.5417890  25.4342046  61.8936287 105.4250274  26.3787478  61.7914977
 104.7210336  25.1315607  62.2822086 115.4294424  20.1592182  52.7392880
 116.2640028  19.7273380  52.5570354 115.2678767  19.9874195  53.6669774
 115.0840317  16.6624295  54.1049219 115.0289120  16.4968566  53.1637663
 114.4586372  17.3700328  54.2611409  99.8732832  11.8992359  67.9310641
 100.5191695  11.3891313  68.4197866  99.6649983  12.6361041  68.5054066
 112.3986224  18.9673207  73.4302782 113.2677383  19.1413859  73.0689417
 111.9192975  19.7867624  73.3078511 106.5672404  26.0870308  65.1092215
 107.4699651  26.1193918  65.4258710 106.3409774  25.1570759  65.1238551
 108.3226006  24.8401294  61.7702294 107.3721637  24.8403156  61.6566666
 108.6258492  24.0934029  61.2538329 120.8668406  30.6289261  62.7709581
 120.5286917  30.5130326  61.8830116 121.7358174  30.2280426  62.7510587
 116.7255221  32.4824737  58.7606472 116.1620087  32.3914674  57.9922760
 116.6107616  31.6624642  59.2408965 121.3488189  31.7824113  68.7295787
 121.3376830  31.3876911  67.8576290 121.5108828  31.0490185  69.3229558
 114.2719653  33.9775929  61.5990693 115.0640945  33.6366753  61.1836992
 114.5116304  34.0870904  62.5192846 116.2310407  33.2384842  54.4708071
 117.0041283  32.6913829  54.3320947 116.5835806  34.1029091  54.6822533
 118.0695450  34.5661224  67.6774971 117.7785316  35.4706855  67.5621637
 118.7052434  34.6077752  68.3919040 118.9951657  31.9438073  64.2676330
 119.5915229  31.7194095  63.5533293 119.0526628  31.2022818  64.8701778
 118.5676685  29.3977508  52.1026521 118.8202206  28.8759029  51.3409984
 117.6301244  29.2343654  52.2053205 118.2872974  31.3005614  54.3050896
 118.1709232  30.6250518  54.9731981 118.3975234  30.8137988  53.4883049
 120.6304515  30.7615761  58.0097585 120.2662722  30.2346382  58.7210507
 121.4871631  30.3714230  57.8364071 120.2710002  25.7905661  53.0058934
 120.4384404  26.6585897  53.3729405 120.0807171  25.9532943  52.0820223
 116.4797816  30.7036437  60.7061469 115.5548313  30.5712651  60.9139161
 116.7282230  31.4830656  61.2031411 120.2499223  28.2463318  53.9905601
 120.1298848  28.6920369  54.8291081 119.5551811  28.5948636  53.4319139
 113.8406627  30.3469710  61.5405258 113.9699009  30.6004189  62.4544670
 113.1604079  30.9397418  61.2209913 118.0106115  41.0166960  57.6395732
 117.9330144  41.9674785  57.7184213 117.4067758  40.6712833  58.2970658
 120.5023345  28.1894826  70.2957099 119.7256679  28.7488746  70.2859964
 121.1413908  28.6751609  70.8171969 118.7569717  30.9980279  69.8575066
 119.4984401  31.5365323  69.5809890 118.0506702  31.6246568  70.0146618
 120.5856127  28.0782026  65.8280784 121.4317322  28.5021440  65.9715433
 120.5254764  27.4215651  66.5219347 120.1081833  33.4385018  59.4749601
 120.5720179  33.7172721  58.6854224 119.8438631  32.5368463  59.2922692
 117.0005914  32.9856500  62.4129365 117.5707271  33.4143768  61.7746849
 117.5914026  32.7039084  63.1113550 119.0450719  29.5608171  56.2839167
 119.7474762  30.0129214  56.7513093 118.7131348  28.9191989  56.9119060
 117.4931081  28.1519927  70.6590376 116.8629741  28.8336208  70.8925773
 117.3867168  28.0403009  69.7143514 112.7876053  27.8191723  61.5856300
 111.9975107  28.0749252  61.1096411 113.2787300  28.6340061  61.6908341
 114.7390798  28.1836302  58.5439777 113.9421962  28.2954997  59.0623272
 114.5116391  28.5222955  57.6780667 120.5696466  34.7081006  66.4922291
 120.6340899  35.1701413  67.3280463 119.8607390  34.0778371  66.6204601
 111.0713756  28.0722214  64.0171291 111.3221794  28.9569224  64.2828867
 111.6073304  27.8926815  63.2446383 120.2844484  36.3749113  56.3601272
 120.1490158  37.2200649  56.7886120 120.8254296  36.5768391  55.5967206
 116.7711823  22.4540693  73.0215627 116.3778769  21.9006892  73.6963271
 117.5877964  22.7651272  73.4122145 113.7373881  33.8924551  56.9329197
 114.2498402  34.6867801  57.0834762 114.3896594  33.1950842  56.8662798
 115.5468766  37.0090308  59.0151950 115.7235394  37.9308272  58.8272934
 116.3425599  36.6948727  59.4446330 119.6879784  23.8698572  70.6135884
 120.4289498  24.4705725  70.5340346 119.9197707  23.1276210  70.0553926
 114.8321122  29.0554939  68.8914113 114.7174637  28.1540197  69.1921212
 113.9765640  29.3018636  68.5398930 116.6700081  38.5268481  65.0162292
 117.2207506  38.3985545  64.2439286 115.8311557  38.8263370  64.6657185
 120.4667252  34.7919609  69.3606523 120.9995589  34.0307897  69.1305831
 119.9381333  34.4993261  70.1030678 111.7022798  32.2213206  57.7088767
 112.5398020  32.6310214  57.4922475 111.8801066  31.2812648  57.6788961
 121.1834341  24.7337987  58.4557839 120.3275937  24.3444837  58.2763477
 121.5961293  24.8129948  57.5957624 118.9576374  22.3523060  61.8615580
 119.8229370  22.1565869  61.5021470 119.0253882  22.1233412  62.7884937
 121.8319965  33.9205602  56.8725335 121.3041327  33.1858361  56.5598573
 121.3307468  34.6980278  56.6265304 116.5638693  24.5825268  59.2331947
 117.1382445  24.3600449  58.5005140 117.1509675  24.6513962  59.9860548
 116.8908280  26.6129729  53.2527832 116.0545592  26.9504415  53.5737107
 116.7513049  26.4778709  52.3154969 118.8661360  21.4566517  57.9607016
 118.2125773  21.1415534  57.3363631 118.8241834  20.8342257  58.6866839
 119.9772565  31.7385812  49.8760309 119.0699627  31.5075065  50.0751457
 120.4743597  30.9423431  50.0634290 121.1560799  31.8398407  54.3984299
 120.2472018  31.5557440  54.4956768 121.1855882  32.2597485  53.5387605
 111.7248969  29.5603921  58.3799501 111.5273369  28.9673282  57.6550567
 111.1695633  29.2556131  59.0975440 119.7045693  29.4527027  60.4994094
 119.7594302  28.5000864  60.4236571 118.8936895  29.6086466  60.9835392
 120.8536886  33.3807150  51.7372377 120.4156316  32.6643009  51.2778015
 121.5947327  33.6083265  51.1757469 117.6438053  28.0704087  58.2584473
 116.8305918  28.3698258  58.6649665 118.1397047  27.6759776  58.9758955
 119.7946630  38.0661844  60.1918738 119.7522809  38.2922690  59.2627270
 120.7109329  37.8325219  60.3404539 117.1352127  25.6422443  63.8745708
 117.7751507  25.5011202  63.1768671 116.3029658  25.3556956  63.4984310
 117.9112431  34.9424873  59.9880700 118.7053030  34.4475193  59.7863275
 117.2004124  34.4142736  59.6248406 114.2195195  29.0867955  56.0640453
 113.2892783  29.0252410  56.2810415 114.3152667  28.5643908  55.2677094
 114.1380744  25.6122768  58.6518695 114.3987561  26.5268101  58.5427855
 114.9597916  25.1447210  58.8015307 115.6105669  27.0260525  65.8217519
 116.2828723  26.8177887  65.1730168 114.7835456  26.8282611  65.3822751
 121.5131241  23.6522466  67.8383180 120.8659156  24.3512415  67.7447656
 122.2832257  24.0858610  68.2059428 120.4883707  35.5153895  63.6678537
 120.3494793  35.1472679  64.5404475 119.6998303  36.0301534  63.4962495
 121.0831859  40.6162991  55.0104074 121.2583615  40.1451035  55.8249697
 120.3964647  41.2428758  55.2385335 122.0388922  34.8935498  61.0567375
 121.7038755  34.8536268  61.9525025 121.5392868  34.2280214  60.5837785
 116.0133166  30.3003128  66.5819956 115.8752964  29.5683367  67.1831495
 116.9238090  30.2112028  66.3004144 118.6415467  30.0123087  66.0703636
 119.3515086  29.3716279  66.0290254 118.5984775  30.2635982  66.9929817
 117.3544401  26.9988305  67.8899275 116.8181758  26.5479043  68.5420872
 116.7661109  27.1334214  67.1469740 115.6492944  43.7652354  61.7843934
 115.8889543  44.3970878  62.4622953 114.8062141  43.4140394  62.0709293
 116.7646660  26.4576956  50.4525739 115.8876126  26.3365757  50.0887986
 117.2404413  25.6663035  50.2004628 108.2848800  31.2454116  60.5467246
 108.9719840  30.9315846  59.9588262 108.1296929  32.1495481  60.2734498
 113.0883522  26.1344313  64.9752270 113.0041711  25.5269982  64.2402680
 112.2666229  26.6253331  64.9761766 120.1620806  39.5731477  64.1885438
 120.0890978  40.3786448  64.7004743 119.7198199  39.7723442  63.3633459
 119.9510586  38.8103247  57.6988260 119.1678108  39.3524927  57.7926484
 120.6503331  39.3277226  58.0982501 119.8442205  26.7615259  60.0694150
 119.4739992  26.2086300  60.7575055 120.3401297  26.1573393  59.5169150
 117.6731403  37.2212754  67.1649167 118.3740863  37.8549237  67.3178562
 117.2026518  37.5627486  66.4044807 121.5220262  30.5177173  71.4767755
 120.8460899  30.4171302  72.1470130 122.3447896  30.3616386  71.9403752
 113.2699121  36.7549109  64.0980270 113.8552558  36.0092797  64.2308174
 113.0723960  37.0653066  64.9816934 116.1237777  39.7900357  59.1142713
 115.4548152  40.2746484  58.6306753 115.9850646  40.0369577  60.0286091
 107.8616776  29.3254709  62.8184713 107.9000876  28.7918300  63.6121831
 107.3557069  28.7989915  62.1995691 120.2643045  41.8244100  65.7125371
 120.8161353  41.9875722  66.4774456 120.6049239  42.4148538  65.0405396
 115.2407538  24.1719250  66.3147256 115.3048865  25.0334081  65.9024653
 115.1774659  23.5593252  65.5819614 114.7159811  26.2442382  69.9620290
 115.3431850  25.8619460  70.5757814 113.8587730  26.0256584  70.3275982
 111.4925354  28.0518812  55.8938645 111.7878795  27.1429490  55.8405698
 110.5913390  28.0306551  55.5719647 115.0219601  26.1274808  61.8766193
 114.3006187  26.7410776  61.7373667 115.8112857  26.6632573  61.7982839
 117.8245914  23.4629235  68.1506845 118.3480316  23.7091531  68.9133154
 117.6058248  24.2949269  67.7309982 113.2213195  25.7332909  56.0177970
 112.8925902  24.8530288  55.8353076 113.5752566  25.6780578  56.9054359
 116.3355019  26.0205879  56.3853448 116.6751091  26.5491800  55.6632056
 116.7827139  26.3586285  57.1612014 119.0298459  24.4042930  65.8356516
 118.6895280  23.6050743  66.2377195 118.3237466  24.7044641  65.2633349
 119.6814931  21.4892242  64.2883839 120.5041000  21.0152720  64.1662729
 119.9252995  22.2682726  64.7882525 118.3223166  24.5180501  54.5846740
 119.0431528  24.8961753  54.0810457 117.6988470  25.2369377  54.6881718
 117.2053510  28.1811363  62.0975817 117.0598091  28.4951666  62.9900099
 116.7278714  28.7996263  61.5446716 119.0649893  25.1713911  62.1456707
 119.0511462  24.2755004  61.8089005 119.7822321  25.1784575  62.7794993
 120.9176024  25.6051251  64.1909834 120.6593801  26.5268322  64.1894165
 120.3861064  25.2081686  64.8810298 111.6799172  30.7216707  65.0363478
 111.1352640  31.4976515  65.1683753 112.5578522  31.0687512  64.8782600
 118.4686789  24.0528291  57.4144277 118.5902700  23.1244937  57.6135164
 118.1788831  24.0666977  56.5022592 121.3377979  21.7383202  60.5510997
 121.3599676  21.8022535  59.5962976 121.7546038  20.8987710  60.7451503
 112.4665194  29.8486603  67.9293635 111.7246930  29.9969239  68.5158266
 112.1457938  30.1094869  67.0660385 120.4108857  39.3902582  67.7274025
 120.7195983  39.1451728  68.5996725 121.2084339  39.5949220  67.2392896
 120.4329469  41.5440491  59.9579402 119.9934459  41.0516870  60.6512259
 121.1837586  41.0013459  59.7171477 112.9121808  37.7352032  59.9604030
 113.7379828  37.4355804  59.5802673 112.5615860  36.9659655  60.4093819
 117.8803341  37.0878500  62.0301704 117.2583350  36.4249205  61.7303931
 118.5508208  37.1139632  61.3475351 111.1130413  35.6538359  60.9192964
 110.2762321  35.2260533  60.7376965 111.0854058  35.8470802  61.8563755
 117.9527868  25.5660288  71.6234210 118.0016024  26.4422411  71.2411979
 118.4950382  25.0237682  71.0505853 117.4416848  35.6382424  55.5060164
 117.5904968  36.3217888  54.8526837 118.2483291  35.6187514  56.0209620
 120.1827157  26.3191661  68.3780568 119.3130466  26.6125227  68.1063157
 120.4186637  26.9032106  69.0987832 115.1969481  31.6647601  56.5121233
 114.9515523  30.7609931  56.7101443 115.3665395  31.6664752  55.5700711
 114.4665128  27.3975959  54.0107394 113.7734373  27.4720314  53.3547430
 114.2216880  26.6336303  54.5328911 120.9412253  38.1330554  52.9771911
 120.3686220  38.7520741  52.5242383 121.5145047  38.6829916  53.5111833
 121.3259052  29.4691367  50.3187964 122.2718156  29.3397575  50.3876382
 120.9473297  28.7306029  50.7957392 121.2097744  33.5209113  71.7788621
 122.1300754  33.6987712  71.9728667 121.1747327  32.5765158  71.6268320
 119.5101969  27.3941343  50.2542849 118.6033424  27.0974456  50.3305563
 119.7877950  27.0971161  49.3877135 110.4279909  28.7147707  60.7041896
 110.1082694  27.8613015  60.4116270 109.8813337  28.9296285  61.4599863
 114.2059817  31.4310148  64.4211402 114.4245827  32.3627256  64.4399436
 114.6185591  31.0718122  65.2066206 121.1264035  21.9378233  56.4087090
 120.3164763  21.5925318  56.7842337 121.8148452  21.6285777  56.9974702
 119.0787682  27.0043354  73.8114151 118.9784409  27.9537710  73.7426242
 118.8609224  26.6761592  72.9390221 118.2800754  24.2528279  50.3954828
 119.1419918  24.5783177  50.6550646 118.4651098  23.4659774  49.8827894
 110.2968169  32.3350618  62.6735017 109.6031641  31.9204571  62.1604972
 111.0441160  32.3771155  62.0768436 118.9418952  30.4340492  72.6279213
 118.4586034  31.2340852  72.8343102 119.0279891  30.4448437  71.6746657
 112.2104912  32.2668872  60.5501032 112.1875600  32.3656559  59.5982915
 112.5205548  33.1134023  60.8718198 114.8692290  34.3245027  64.6647646
 115.8235543  34.2928969  64.5977578 114.6704813  33.8635651  65.4797872
 115.4591672  32.8946143  67.2318444 116.2784561  33.3890222  67.2553281
 115.7328480  31.9778111  67.2036012 113.2242518  39.8664647  61.6817844
 113.0896986  39.1065047  61.1155842 112.8074581  40.5905546  61.2146633
 116.3811644  40.7633964  61.8936287 116.2644028  41.7079396  61.7914977
 115.5604091  40.4607525  62.2822086 110.7126586  27.2284277  67.9310641
 111.3585450  26.7183231  68.4197866 110.5043737  27.9652959  68.5054066
 119.2330197  21.4924322  53.6834537 119.2208866  22.4366162  53.8402808
 120.1253618  21.3094467  53.3893999 117.4066158  41.4162225  65.1092215
 118.3093405  41.4485836  65.4258710 117.1803529  40.4862676  65.1238551
 119.1619760  40.1693212  61.7702294 118.2115391  40.1695074  61.6566666
 119.4652247  39.4225947  61.2538329 115.0524077  24.3751894  72.0285655
 115.9155539  24.0188699  72.2388980 114.4789488  24.0365789  72.7161060
 121.9107511  43.4014131  64.0171291 122.1615549  44.2861141  64.2828867
 122.4467059  43.2218733  63.2446383 119.1242555  46.5746034  60.5467246
 119.8113594  46.2607764  59.9588262 118.9690683  47.4787398  60.2734498
 118.7010531  44.6546627  62.8184713 118.7394630  44.1210218  63.6121831
 118.1950824  44.1281833  62.1995691 121.9524167  50.9830276  60.9192964
 121.1156075  50.5552451  60.7376965 121.9247813  51.1762720  61.8563755
 121.2673664  44.0439624  60.7041896 120.9476448  43.1904933  60.4116270
 120.7207092  44.2588203  61.4599863 121.1361924  47.6642536  62.6735017
 120.4425395  47.2496489  62.1604972 121.8834915  47.7063072  62.0768436
 121.5520341  42.5576195  67.9310641 122.1979204  42.0475149  68.4197866
 121.3437492  43.2944876  68.5054066 118.0106116  18.0229083  44.3641039
 117.9330146  18.9736908  44.4429519 117.4067760  17.6774955  45.0215965
 115.6492946  20.7714477  48.5089241 115.8889544  21.4033001  49.1868259
 114.8062142  20.4202517  48.7954600 116.1237778  16.7962479  45.8388019
 115.4548153  17.2808607  45.3552059 115.9850648  17.0431700  46.7531398
 120.2643047  18.8306223  52.4370678 120.8161355  18.9937844  53.2019763
 120.6049240  19.4210661  51.7650702 120.4329470  18.5502614  46.6824708
 119.9934460  18.0578993  47.3757565 121.1837587  18.0075582  46.4416784
 113.2242520  16.8726769  48.4063151 113.0896988  16.1127170  47.8401149
 112.8074582  17.5967669  47.9391940 116.3811646  17.7696086  48.6181594
 116.2644030  18.7141519  48.5160284 115.5604092  17.4669648  49.0067393
 117.4066160  18.4224348  51.8337522 118.3093406  18.4547958  52.1504017
 117.1803530  17.4924799  51.8483858 121.9107512  20.4076254  50.7416598
 122.1615550  21.2923264  51.0074173 122.4467060  20.2280855  49.9691689
 119.1242556  23.5808156  47.2712553 119.8113596  23.2669886  46.6833568
 118.9690685  24.4849521  46.9979804 118.7010532  21.6608750  49.5430020
 118.7394631  21.1272340  50.3367138 118.1950825  21.1343955  48.9240997
 121.9524168  27.9892399  47.6438270 121.1156077  27.5614573  47.4622271
 121.9247814  28.1824842  48.5809061 121.2673665  21.0501747  47.4287202
 120.9476449  20.1967055  47.1361576 120.7207093  21.2650325  48.1845170
 121.1361925  24.6704659  49.3980324 120.4425396  24.2558611  48.8850278
 121.8834916  24.7125195  48.8013743 121.5520342  19.5638317  54.6555948
 122.1979205  19.0537271  55.1443173 121.3437493  20.3006999  55.2299373
  25.3296847  63.4421200 119.1730458  24.6558546  63.7452897 119.7815416
  25.7162669  64.2450280 118.8235915  27.4204317  55.2329413 117.7077899
  26.8033488  54.5076241 117.6110951  26.9520806  55.9938773 117.3644973
  29.2953588  61.0206684 120.4470282  29.9904493  61.6413376 120.6657596
  29.6376738  60.1702035 120.7222659  23.3868457  61.1268435 119.3545375
  22.8142424  61.7458622 118.9015847  23.9601250  61.6767797 119.8885297
  26.6065716  61.4105585 120.4853957  27.5396389  61.3451147 120.6886833
  26.5188929  62.2461852 120.0268490  29.2353733  60.7271456 117.4457905
  29.1567365  60.3931319 118.3393663  30.0563400  61.2193224 117.4449377
  26.8057685  58.0439451 117.0667883  27.5093535  58.2489454 117.6825539
  26.0820334  58.6116213 117.3316967  28.7144382  58.4821980 119.1166343
  29.5489986  58.0503179 118.9343818  28.5528725  58.3103994 120.0443238
  37.3428657  68.9991631 129.2121520  37.9807067  68.8798379 128.5084860
  37.2249500  69.9472475 129.2709472  34.1518364  68.9519059 129.1483045
  33.8136875  68.8360124 128.2603580  35.0208132  68.5510225 129.1284051
  30.0105179  70.8054536 125.1379936  29.4470044  70.7144473 124.3696224
  29.8957574  69.9854440 125.6182428  35.5904738  74.4725504 120.4494401
  34.9392718  75.0579584 120.0628415  36.3849101  75.0031698 120.5089438
  29.5160365  71.5614641 120.8481535  30.2891241  71.0143628 120.7094411
  29.8685764  72.4258890 121.0595996  31.8526643  67.7207307 118.4799985
  32.1052164  67.1988828 117.7183448  30.9151202  67.5573452 118.5826669
  36.8969926  66.7243085 126.2874728  37.6833015  66.3062508 125.9365145
  37.1608630  67.6289177 126.4556377  37.0680003  72.1615936 120.9863385
  36.4325836  72.2350562 121.6984290  36.7377410  72.7509534 120.3082464
  42.2978353  66.6618318 127.1907707  43.0303525  66.0917535 127.4245536
  41.5417709  66.2739919 127.6314212  31.5722932  69.6235413 120.6824360
  31.4559190  68.9480316 121.3505444  31.6825192  69.1367787 119.8656513
  33.9154473  69.0845560 124.3871049  33.5512680  68.5576181 125.0983971
  34.7721589  68.6944029 124.2137535  33.5559960  64.1135460 119.3832398
  33.7234362  64.9815696 119.7502869  33.3657129  64.2762741 118.4593687
  36.3135293  72.5752439 131.0498228  36.0136016  73.4777477 130.9414035
  35.9686352  72.3084622 131.9019381  39.7132437  65.0934979 128.7295665
  38.8049314  65.0250387 128.4354426  39.6620032  65.5706924 129.5577491
  33.5349180  66.5693117 120.3679065  33.4148806  67.0150168 121.2064545
  32.8401769  66.9178435 119.8092603  31.2956073  79.3396759 124.0169196
  31.2180102  80.2904584 124.0957676  30.6917716  78.9942631 124.6744122
  39.2334247  67.0414590 121.1959399  40.1452103  67.2741977 121.0207096
  38.7243894  67.6251635 120.6334477  37.8403829  72.0240409 128.5872980
  37.2112691  72.1886123 127.8849048  37.4529491  72.4382018 129.3583944
  41.7193061  72.9594847 125.9417344  41.0344099  73.3393748 125.3914377
  41.8036910  73.5690173 126.6749292  33.3931791  71.7614817 125.8523065
  33.8570136  72.0402520 125.0627688  33.1288589  70.8598261 125.6696156
  32.3300677  67.8837969 122.6612630  33.0324720  68.3359013 123.1286557
  31.9981305  67.2421788 123.2892523  40.0889820  73.4826761 130.7135045
  40.9107264  73.0806948 130.4317726  40.0852223  73.3794995 131.6651160
  48.1795813  69.8265510 127.0620016  47.4259522  69.2572908 126.9064021
  48.3143355  69.7928174 128.0090651  33.5694441  74.6978912 122.7374735
  33.4340116  75.5430448 123.1659583  34.1104254  74.8998189 121.9740669
  27.0223839  72.2154350 123.3102661  27.5348359  73.0097600 123.4608225
  27.6746552  71.5180640 123.2436262  28.8318724  75.3320106 125.3925414
  29.0085352  76.2538071 125.2046398  29.6275557  75.0178525 125.8219794
  24.9872756  70.5443004 124.0862231  25.8247978  70.9540013 123.8695939
  25.1651023  69.6042446 124.0562425  36.8837188  68.2118085 119.7746064
  36.3683811  68.9822689 120.0134451  36.6114496  67.5383221 120.3979126
  34.4684299  63.0567786 124.8331302  33.6125895  62.6674636 124.6536941
  34.8811251  63.1359746 123.9731088  41.8571462  70.9650439 121.7099238
  41.0800905  70.6261599 121.2654400  42.5362943  70.9703063 121.0354203
  36.6723491  66.0845177 121.6005845  36.3673627  66.3991326 122.4515988
  37.6253933  66.1626597 121.6433178  35.1169923  72.2435400 123.2498799
  34.5891284  71.5088160 122.9372037  34.6157426  73.0210077 123.0038768
  40.0962769  70.4384421 128.3665846  39.4386443  71.1283682 128.4545974
  40.9003168  70.8280853 128.7099832  38.9068228  68.7928793 126.4169787
  39.4200109  69.4258785 126.9191497  39.5569451  68.1929989 126.0513147
  30.1758238  64.9359528 119.6301296  29.3395550  65.2734214 119.9510571
  30.0363007  64.8008507 118.6928433  33.2622523  70.0615610 116.2533772
  32.3549585  69.8304864 116.4524921  33.7593555  69.2653230 116.4407754
  36.1690602  78.7713118 119.1730458  35.4952301  79.0744814 119.7815416
  36.5556424  79.5742198 118.8235915  36.1684106  67.6669665 123.7930808
  36.9155925  68.1791062 123.4837930  36.4375696  67.3453717 124.6535202
  34.4410756  70.1628205 120.7757762  33.5321976  69.8787238 120.8730232
  34.4705840  70.5827284 119.9161069  39.6730024  73.7734795 124.5448930
  39.2192351  72.9325705 124.6014120  39.0423991  74.4096193 124.8823710
  38.6162943  64.7026781 125.7749597  37.8785700  64.1904167 126.1059840
  38.8689717  64.2627162 124.9632874  38.1162963  75.6111292 125.4798748
  38.4085937  76.1716349 124.7611114  38.6261584  75.9039853 126.2351907
  32.9895650  67.7756826 126.8767558  33.0444260  66.8230662 126.8010034
  32.1786852  67.9316265 127.3608856  34.1386844  71.7036949 118.1145841
  33.7006274  70.9872808 117.6551478  34.8797285  71.9313064 117.5530932
  30.9288010  66.3933886 124.6357937  30.1155876  66.6928056 125.0423129
  31.4247005  65.9989574 125.3532419  33.0796588  76.3891643 126.5692201
  33.0372767  76.6152489 125.6400733  33.9959287  76.1555017 126.7178002
  42.2559959  69.9794146 124.1722159  42.1177858  70.1695742 123.2443349
  41.8996178  70.7413529 124.6290211  42.2829339  72.0470673 129.1833431
  42.7165845  71.9545962 130.0316485  42.9960919  72.0228174 128.5453447
  31.1962389  73.2654672 126.3654164  31.9902988  72.7704992 126.1636739
  30.4854081  72.7372535 126.0021870  36.0157234  75.6472767 130.7166532
  36.0694256  76.2163703 131.4844247  35.1472015  75.8174652 130.3520569
  27.5045152  67.4097753 122.4413917  26.5742741  67.3482209 122.6583879
  27.6002624  66.8873706 121.6450558  43.1444888  72.0894374 131.7166316
  43.3380778  72.9940184 131.9625591  43.0445506  71.6301793 132.5504901
  33.7733665  73.8383694 130.0452001  33.6344751  73.4702478 130.9177939
  32.9848261  74.3531333 129.8735959  34.3681817  78.9392790 121.3877538
  34.5433573  78.4680833 122.2023160  33.6814605  79.5658556 121.6158798
  35.3238880  73.2165296 127.4340839  34.9888713  73.1766066 128.3298489
  34.8242826  72.5510012 126.9611249  38.2598072  70.5621331 117.7077899
  37.6427242  69.8368159 117.6110951  37.7914560  71.3230691 117.3644973
  30.0496618  64.7806755 116.8299203  29.1726084  64.6595556 116.4661449
  30.5254371  63.9892833 116.5778091  33.2360544  77.1333045 124.0761723
  32.4528066  77.6754726 124.1699948  33.9353289  77.6507025 124.4755964
  36.5457194  62.9427675 126.7195929  37.0425893  62.1897637 126.3996999
  35.7744175  62.9791991 126.1539138  44.3986951  68.6468040 128.3614220
  44.3876828  69.5292756 127.9908153  43.5304331  68.2939591 128.1668757
  37.6286975  71.6999362 124.2934352  36.6943253  71.8200824 124.1239056
  37.8063643  70.7971829 124.0294362  41.0159526  67.5416681 124.8284386
  41.4819978  68.3744673 124.7544689  41.4667026  67.0761663 125.5329645
  39.0835757  73.8860503 121.8270538  39.3595601  73.7717097 122.7364412
  38.2140256  73.4877987 121.7882711  35.7189821  78.1346853 125.4703352
  35.9012216  77.3168509 125.9331104  36.5422807  78.3514546 125.0328242
  36.0531987  77.0615039 122.7318400  36.5819753  76.5507493 122.1188562
  36.3160206  76.7457569 123.5963933  24.7775312  66.3748610 122.2712108
  25.0728753  65.4659289 122.2179162  23.8763347  66.3536350 121.9493111
  36.6861390  78.0955874 129.0762517  36.5612530  77.2945614 128.5673462
  37.3440481  78.5902068 128.5876487  38.7496299  75.8964894 130.7042067
  37.8026634  75.7770246 130.6320394  39.0979072  75.0087392 130.7868328
  26.5063153  64.0562708 122.3951434  26.1775859  63.1760087 122.2126540
  26.8602524  64.0010377 123.2827823  35.7542732  75.6917611 126.9046419
  35.6067694  74.7634318 127.0853989  36.5796226  75.7137701 126.4203494
  29.6204976  64.3435678 122.7626911  29.9601049  64.8721599 122.0405520
  30.0677097  64.6816084 123.5385478  39.3576854  76.5146169 127.9911292
  40.2823401  76.3089031 127.8535743  39.1892157  76.2662570 128.9000633
  31.6073123  62.8410299 120.9620204  32.3281486  63.2191552 120.4583921
  30.9838428  63.5599176 121.0655182  35.7504246  63.5455448 121.8978536
  35.9667861  64.4280086 121.5967365  35.2698313  63.1541662 121.1684178
  39.1472170  77.0331837 123.3473383  39.3209048  76.4678259 122.5947236
  39.6401061  77.8332732 123.1652873  31.7536747  62.3758090 123.7917741
  31.8752658  61.4474736 123.9908628  31.4638789  62.3896776 122.8796056
  45.0011561  69.7968260 124.9663683  45.4442707  69.0475585 124.5682806
  44.1238072  69.7878396 124.5837415  40.1347343  76.3498601 120.4470282
  40.8298247  76.9705294 120.6657596  40.4770493  75.4993952 120.7222659
  42.0338766  73.7998307 121.9757612  42.5590090  74.1385579 121.2506932
  41.9461118  72.8645322 121.7920747  33.7179426  79.8670290 126.3352866
  33.2784417  79.3746669 127.0285722  34.4687543  79.3243258 126.0944941
  30.7266805  73.9612222 121.8833628  30.8754926  74.6447687 121.2300301
  31.5333249  73.9417312 122.3983084  43.3448744  73.7020618 134.8383560
  43.0533552  74.0650599 135.6747021  42.7320875  72.9887627 134.6596892
  44.5444426  71.2673498 127.3586131  45.3791317  71.7063302 127.5223691
  44.6803555  70.7912151 126.5394376  28.4819438  69.9877400 122.8894697
  28.2365480  69.0839730 123.0874907  28.6515353  69.9894550 121.9474175
  27.7515086  65.7205758 120.3880858  27.0584331  65.7950113 119.7320894
  27.5066838  64.9566101 120.9102375  34.2262211  76.4560353 119.3545375
  33.6536178  77.0750540 118.9015847  34.7995005  77.0059715 119.8885297
  37.4459471  76.7397503 120.4853957  38.3790144  76.6743065 120.6886833
  37.3582684  77.5753770 120.0268490  40.0747487  76.0563373 117.4457905
  39.9961119  75.7223237 118.3393663  40.8957154  76.5485141 117.4449377
  42.7725679  68.9225113 130.6534224  42.7401999  67.9841113 130.8393907
  43.3826302  69.0009149 129.9200049  34.6109010  67.7921166 116.6961428
  35.5568114  67.6627374 116.7649846  34.2323254  67.0535828 117.1730856
  48.5902229  69.9841119 129.7940260  49.3205617  69.7226408 130.3547964
  47.9809174  69.2469841 129.8342328  46.6717526  68.1248982 130.3914712
  45.9450689  67.9904947 129.7831203  46.2564813  68.4325811 131.1971430
  32.7951927  65.7171142 116.6316313  31.8883382  65.4204255 116.7079027
  33.0727908  65.4200960 115.7650599  34.4113992  60.2608032 122.7860554
  33.6014721  59.9155117 123.1615800  35.0998409  59.9515575 123.3748166
  31.5650711  62.5758077 116.7728292  32.4269875  62.9012976 117.0324109
  31.7501055  61.7889573 116.2601358  39.7183348  61.4486604 123.9163515
  39.1382017  62.1071408 123.5341568  39.4519280  60.6263948 123.5050933
  38.5008226  63.6086694 122.9719863  37.6134081  63.8936345 122.7540058
  38.9162215  63.4480457 122.1247140  41.8522762  63.6333215 126.6874203
  42.6283152  64.1229667 126.9598819  41.1270896  64.0591269 127.1446072
  44.2895321  64.3460834 127.7448143  44.8839811  64.1056570 127.0341451
  44.3621904  63.6267965 128.3721680  37.6451439  73.3731369 117.0667883
  38.3487289  73.5781371 117.6825539  36.9214088  73.9408131 117.3316967
  38.4749250  69.1241230 123.1870154  38.4184451  69.5809781 122.3477786
  39.0277592  68.3631915 123.0092996  42.2854055  64.9130962 124.0120273
  42.0290990  64.5127598 124.8428481  41.6606923  65.6274756 123.8870412
  46.5966393  67.6527035 126.5191564  46.0365951  67.7220224 127.2923126
  45.9909897  67.4768020 125.7991061  39.5538137  73.8113898 119.1166343
  40.3883741  73.3795096 118.9343818  39.3922480  73.6395912 120.0443238
  39.2084029  70.3146011 120.4822683  39.1532833  70.1490283 119.5411127
  38.5830084  71.0222044 120.6384872  32.5180154  59.8154120 120.0608001
  32.5058824  60.7595960 120.2176272  33.4103576  59.6324266 119.7667462
  44.9912118  84.2810977 129.1483045  44.6530630  84.1652042 128.2603580
  45.8601886  83.8802142 129.1284051  40.8498934  86.1346454 125.1379936
  40.2863799  86.0436391 124.3696224  40.7351329  85.3146358 125.6182428
  46.4298492  89.8017421 120.4494401  45.7786472  90.3871502 120.0628415
  47.2242855  90.3323616 120.5089438  40.3554120  86.8906558 120.8481535
  41.1284996  86.3435546 120.7094411  40.7079518  87.7550808 121.0595996
  42.6920397  83.0499225 118.4799985  42.9445918  82.5280746 117.7183448
  41.7544957  82.8865370 118.5826669  47.7363680  82.0535003 126.2874728
  48.5226769  81.6354426 125.9365145  48.0002385  82.9581095 126.4556377
  47.9073758  87.4907853 120.9863385  47.2719591  87.5642480 121.6984290
  47.5771164  88.0801452 120.3082464  53.1372107  81.9910236 127.1907707
  53.8697279  81.4209453 127.4245536  52.3811463  81.6031837 127.6314212
  42.4116686  84.9527330 120.6824360  42.2952944  84.2772234 121.3505444
  42.5218946  84.4659704 119.8656513  44.7548227  84.4137478 124.3871049
  44.3906434  83.8868099 125.0983971  45.6115343  84.0235947 124.2137535
  50.6597528  75.7031810 131.6502315  50.3280853  76.5727221 131.4263530
  50.0643141  75.3868094 132.3296346  44.3953714  79.4427377 119.3832398
  44.5628116  80.3107614 119.7502869  44.2050883  79.6054659 118.4593687
  40.6041529  84.3558153 127.0834932  39.6792025  84.2234367 127.2912624
  40.8525942  85.1352372 127.5804875  44.3742935  81.8985035 120.3679065
  44.2542560  82.3442086 121.2064545  43.6795523  82.2470352 119.8092603
  42.1349827  94.6688677 124.0169196  42.0573857  95.6196502 124.0957676
  41.5311471  94.3234549 124.6744122  50.0728001  82.3706508 121.1959399
  50.9845857  82.6033895 121.0207096  49.5637648  82.9543552 120.6334477
  47.4163976  78.5464544 129.4449259  46.5548455  78.8445798 129.7365997
  47.4426411  78.7634943 128.5130292  44.2325545  87.0906735 125.8523065
  44.6963891  87.3694437 125.0627688  43.9682343  86.1890179 125.6696156
  41.1249626  86.6378216 128.7902828  41.6950983  87.0665484 128.1520313
  41.7157738  86.3560801 129.4887014  43.1694431  83.2129887 122.6612630
  43.8718475  83.6650931 123.1286557  42.8375060  82.5713706 123.2892523
  36.9119765  81.4713440 127.9629764  36.1218819  81.7270968 127.4869874
  37.4031013  82.2861777 128.0681804  38.8634511  81.8358019 124.9213241
  38.0665674  81.9476713 125.4396736  38.6360103  82.1744671 124.0554131
  44.4088196  90.0270830 122.7374735  44.2733871  90.8722365 123.1659583
  44.9498008  90.2290107 121.9740669  37.8617593  87.5446268 123.3102661
  38.3742114  88.3389518 123.4608225  38.5140306  86.8472558 123.2436262
  39.6712478  90.6612024 125.3925414  39.8479106  91.5829989 125.2046398
  40.4669312  90.3470443 125.8219794  47.7580660  73.5501391 131.2673629
  47.4144929  74.4403033 131.1912740  48.1259622  73.3603049 130.4043214
  35.8266510  85.8734922 124.0862231  36.6641732  86.2831930 123.8695939
  36.0044778  84.9334364 124.0562425  47.7230942  83.5410002 119.7746064
  47.2077566  84.3114607 120.0134451  47.4508251  82.8675139 120.3979126
  45.3078053  78.3859703 124.8331302  44.4519650  77.9966554 124.6536941
  45.7205005  78.4651664 123.9731088  46.8377200  75.9206047 129.2322862
  46.3341996  75.8836182 128.4190667  47.1307807  76.8298789 129.2919519
  43.0820086  76.0044776 128.2389044  43.9473083  75.8087585 127.8794933
  43.1497595  75.7755128 129.1658401  52.6965216  86.2942357 121.7099238
  51.9194659  85.9553517 121.2654400  53.3756697  86.2994980 121.0354203
  47.5117245  81.4137095 121.6005845  47.2067381  81.7283244 122.4515988
  48.4647688  81.4918514 121.6433178  45.9563677  87.5727318 123.2498799
  45.4285039  86.8380077 122.9372037  45.4551180  88.3501994 123.0038768
  40.6882405  78.2346984 125.6105411  41.2626157  78.0122166 124.8778604
  41.2753387  78.3035679 126.3634012  49.7461982  84.1220711 126.4169787
  50.2593864  84.7550703 126.9191497  50.3963206  83.5221907 126.0513147
  41.0151992  80.2651445 119.6301296  40.1789304  80.6026132 119.9510571
  40.8756762  80.1300425 118.6928433  42.9905073  75.1088233 124.3380480
  42.3369485  74.7937250 123.7137095  42.9485547  74.4863974 125.0640303
  44.1016277  85.3907528 116.2533772  43.1943339  85.1596782 116.4524921
  44.5987309  84.5945147 116.4407754  47.0084356  94.1005035 119.1730458
  46.3346055  94.4036732 119.7815416  47.3950178  94.9034116 118.8235915
  46.2242813  81.5970167 128.6628128  45.3065374  81.8185114 128.5049816
  46.6402957  81.6716477 127.8039835  47.0077861  82.9961582 123.7930808
  47.7549680  83.5082980 123.4837930  47.2769450  82.6745635 124.6535202
  45.2804511  85.4920123 120.7757762  44.3715730  85.2079156 120.8730232
  45.3099595  85.9119202 119.9161069  49.4556698  80.0318699 125.7749597
  48.7179455  79.5196085 126.1059840  49.7083471  79.5919080 124.9632874
  49.5568325  72.8094951 126.3691367  49.8627202  71.9492314 126.0817282
  50.2820930  73.4012571 126.1690361  35.8492681  83.2125637 124.7572965
  35.6517081  82.6194998 124.0324031  35.2939345  82.9077847 125.4748903
  43.8289405  83.1048744 126.8767558  43.8838015  82.1522580 126.8010034
  43.0180607  83.2608183 127.3608856  44.9780599  87.0328867 118.1145841
  44.5400029  86.3164726 117.6551478  45.7191040  87.2604982 117.5530932
  41.7681765  81.7225803 124.6357937  40.9549630  82.0219974 125.0423129
  42.2640759  81.3281492 125.3532419  53.0953713  85.3086064 124.1722159
  52.9571612  85.4987660 123.2443349  52.7389932  86.0705447 124.6290211
  41.2595840  79.2944159 130.2519172  41.8995219  79.1532918 129.5542135
  40.4273370  79.0078672 129.8757774  42.0356144  88.5946589 126.3654164
  42.8296742  88.0996909 126.1636739  41.3247836  88.0664452 126.0021870
  38.3438907  82.7389671 122.4413917  37.4136495  82.6774127 122.6583879
  38.4396379  82.2165624 121.6450558  38.2624456  79.2644484 125.0292158
  38.5231273  80.1789817 124.9201319  39.0841628  78.7968926 125.1788771
  45.2075571  94.2684708 121.3877538  45.3827327  93.7972751 122.2023160
  44.5208360  94.8950474 121.6158798  49.0991826  85.8913248 117.7077899
  48.4820997  85.1660077 117.6110951  48.6308315  86.6522609 117.3644973
  40.8890372  80.1098673 116.8299203  40.0119839  79.9887473 116.4661449
  41.3648125  79.3184751 116.5778091  44.0754298  92.4624963 124.0761723
  43.2921820  93.0046643 124.1699948  44.7747043  92.9798943 124.4755964
  47.3850948  78.2719592 126.7195929  47.8819648  77.5189555 126.3996999
  46.6137930  78.3083909 126.1539138  48.4680729  87.0291280 124.2934352
  47.5337008  87.1492742 124.1239056  48.6457398  86.1263746 124.0294362
  43.9685917  80.4136975 126.4467613  43.5983705  79.8608016 127.1348519
  44.4645010  79.8095109 125.8942613  51.8553280  82.8708599 124.8284386
  52.3213733  83.7036591 124.7544689  52.3060781  82.4053581 125.5329645
  49.9229512  89.2152420 121.8270538  50.1989355  89.1009015 122.7364412
  49.0534010  88.8169905 121.7882711  49.8269943  75.2389186 128.8675288
  48.9133023  75.4693413 129.0357494  50.2563045  75.3227630 129.7189320
  46.8925741  92.3906956 122.7318400  47.4213507  91.8799411 122.1188562
  47.1553961  92.0749486 123.5963933  39.3651251  77.8240966 132.6920719
  39.4292577  78.6855797 132.2798117  39.3018371  77.2114968 131.9593078
  35.6169066  81.7040528 122.2712108  35.9122507  80.7951206 122.2179162
  34.7157102  81.6828267 121.9493111  39.1463313  79.7796524 128.2539657
  38.4249899  80.3932492 128.1147130  39.9356569  80.3154289 128.1756303
  37.3456908  79.3854626 122.3951434  37.0169614  78.5052004 122.2126540
  37.6996278  79.3302294 123.2827823  40.4598731  79.6727595 122.7626911
  40.7994803  80.2013517 122.0405520  40.9070851  80.0108001 123.5385478
  43.1542172  78.0564646 132.2129979  42.8138992  77.2572459 132.6150659
  42.4481178  78.3566357 131.6406813  43.8058643  75.1413958 130.6657302
  44.6284713  74.6674437 130.5436193  44.0496707  75.9204442 131.1655989
  42.4466878  78.1702217 120.9620204  43.1675240  78.5483470 120.4583921
  41.8232182  78.8891094 121.0655182  46.5898001  78.8747366 121.8978536
  46.8061615  79.7572004 121.5967365  46.1092068  78.4833579 121.1684178
  41.3297222  81.8333079 128.4749281  41.1841803  82.1473382 129.3673562
  40.8522426  82.4517979 127.9220180  43.1893605  78.8235627 128.5230171
  43.1755174  77.9276720 128.1862468  43.9066033  78.8306291 129.1568457
  45.0419736  79.2572967 130.5683298  44.7837514  80.1790038 130.5667628
  44.5104776  78.8603402 131.2583762  42.5930501  77.7050007 123.7917741
  42.7146412  76.7766654 123.9908628  42.3032543  77.7188693 122.8796056
  45.4621691  75.3904918 126.9284460  45.4843388  75.4544251 125.9736440
  45.8789750  74.5509426 127.1224967  50.9741097  91.6790519 120.4470282
  51.6692002  92.2997212 120.6657596  51.3164247  90.8285870 120.7222659
  52.8732520  89.1290224 121.9757612  53.3983844  89.4677497 121.2506932
  52.7854873  88.1937240 121.7920747  41.5660560  89.2904140 121.8833628
  41.7148680  89.9739604 121.2300301  42.3727003  89.2709230 122.3983084
  39.3213193  85.3169318 122.8894697  39.0759235  84.4131648 123.0874907
  39.4909108  85.3186468 121.9474175  47.0109903  76.1892994 132.2719452
  47.5291847  76.9254021 131.9465941  46.6565036  76.4956987 133.1066211
  38.5908840  81.0497675 120.3880858  37.8978085  81.1242030 119.7320894
  38.3460592  80.2858019 120.9102375  47.2622497  72.6093277 127.7920349
  47.5424251  71.9416466 128.4180775  48.0473104  72.8022372 127.2795013
  45.0655966  91.7852271 119.3545375  44.4929933  92.4042458 118.9015847
  45.6388759  92.3351632 119.8885297  48.2853225  92.0689421 120.4853957
  49.2183898  92.0034982 120.6886833  48.1976438  92.9045688 120.0268490
  50.9141242  91.3855291 117.4457905  50.8354873  91.0515155 118.3393663
  51.7350909  91.8777059 117.4449377  45.4502764  83.1213083 116.6961428
  46.3961869  82.9919291 116.7649846  45.0717009  82.3827745 117.1730856
  51.4224649  74.7869089 126.6588320  51.2249470  74.4784178 127.5431651
  52.0324354  75.5130728 126.7886249  43.6345681  81.0463060 116.6316313
  42.7277137  80.7496172 116.7079027  43.9121662  80.7492878 115.7650599
  45.2507747  75.5899949 122.7860554  44.4408475  75.2447034 123.1615800
  45.9392164  75.2807493 123.3748166  47.1798295  74.6677996 124.4084851
  47.7329334  75.0873450 125.0674874  47.4168382  73.7413744 124.4507807
  42.4044466  77.9049995 116.7728292  43.2663630  78.2304893 117.0324109
  42.5894810  77.1181491 116.2601358  50.5577102  76.7778521 123.9163515
  49.9775771  77.4363325 123.5341568  50.2913035  75.9555866 123.5050933
  49.0080669  76.1783579 126.1184835  49.5080447  76.2900114 125.3099154
  49.6516277  75.8744632 126.7585644  49.3401980  78.9378612 122.9719863
  48.4527835  79.2228262 122.7540058  49.7555969  78.7772375 122.1247140
  52.6916516  78.9625133 126.6874203  53.4676907  79.4521585 126.9598819
  51.9664651  79.3883187 127.1446072  55.1289075  79.6752752 127.7448143
  55.7233566  79.4348488 127.0341451  55.2015659  78.9559883 128.3721680
  48.4845194  88.7023286 117.0667883  49.1881044  88.9073289 117.6825539
  47.7607843  89.2700048 117.3316967  49.3143004  84.4533148 123.1870154
  49.2578205  84.9101699 122.3477786  49.8671346  83.6923832 123.0092996
  53.1247810  80.2422880 124.0120273  52.8684744  79.8419515 124.8428481
  52.5000678  80.9566673 123.8870412  50.3931891  89.1405816 119.1166343
  51.2277495  88.7087014 118.9343818  50.2316234  88.9687829 120.0443238
  50.0477783  85.6437929 120.4822683  49.9926587  85.4782200 119.5411127
  49.4223839  86.3513962 120.6384872  43.3573909  75.1446038 120.0608001
  43.3452579  76.0887878 120.2176272  44.2497331  74.9616183 119.7667462
  47.1726028  71.7388815 124.3153938  46.4058424  71.1847301 124.4610620
  47.5836733  71.8110683 125.1768090  51.8545746  95.5943363 119.6301296
  51.0183059  95.9318049 119.9510571  51.7150516  95.4592343 118.6928433
  51.7284127  95.4390590 116.8299203  50.8513593  95.3179391 116.4661449
  52.2041880  94.6476669 116.5778091  49.4302595  96.3789593 120.3880858
  48.7371840  96.4533948 119.7320894  49.1854347  95.6149937 120.9102375
  54.4739436  96.3754977 116.6316313  53.5670891  96.0788090 116.7079027
  54.7515417  96.0784795 115.7650599  53.2438220  93.2341913 116.7728292
  54.1057384  93.5596811 117.0324109  53.4288564  92.4473408 116.2601358
  54.1967663  90.4737956 120.0608001  54.1846333  91.4179796 120.2176272
  55.0891085  90.2908101 119.7667462  25.3296849  40.4483323 105.8975765
  24.6558547  40.7515019 106.5060723  25.7162671  41.2512403 105.5481222
  27.4204319  32.2391536 104.4323205  26.8033489  31.5138364 104.3356258
  26.9520807  33.0000896 104.0890279  29.2953589  38.0268806 107.1715588
  29.9904494  38.6475499 107.3902903  29.6376739  37.1764157 107.4467966
  23.3868458  38.1330558 106.0790682  22.8142425  38.7520745 105.6261154
  23.9601251  38.6829919 106.6130604  26.6065718  38.4167708 107.2099264
  27.5396391  38.3513270 107.4132140  26.5188930  39.2523975 106.7513797
  29.2353734  37.7333578 104.1703212  29.1567366  37.3993442 105.0638970
  30.0563401  38.2255346 104.1694684  26.8057686  35.0501574 103.7913190
  27.5093536  35.2551576 104.4070846  26.0820335  35.6178336 104.0562274
  28.7144383  35.4884103 105.8411650  29.5489987  35.0565301 105.6589125
  28.5528726  35.3166117 106.7688545  37.3428659  46.0053754 115.9366827
  37.9807068  45.8860501 115.2330167  37.2249501  46.9534598 115.9954779
  34.1518365  45.9581182 115.8728352  33.8136876  45.8422247 114.9848886
  35.0208133  45.5572347 115.8529358  30.0105180  47.8116658 111.8625242
  29.4470046  47.7206595 111.0941530  29.8957576  46.9916563 112.3427735
  35.5904739  51.4787626 107.1739707  34.9392719  52.0641707 106.7873721
  36.3849102  52.0093821 107.2334745  29.5160366  48.5676763 107.5726842
  30.2891242  48.0205750 107.4339718  29.8685765  49.4321013 107.7841303
  31.8526644  44.7269429 105.2045292  32.1052165  44.2050951 104.4428755
  30.9151203  44.5635575 105.3071975  36.8969927  43.7305208 113.0120035
  37.6833016  43.3124631 112.6610452  37.1608631  44.6351300 113.1801683
  37.0680004  49.1678058 107.7108692  36.4325837  49.2412685 108.4229596
  36.7377411  49.7571657 107.0327771  42.2978354  43.6680441 113.9153013
  43.0303526  43.0979658 114.1490843  41.5417710  43.2802041 114.3559519
  31.5722933  46.6297535 107.4069667  31.4559191  45.9542439 108.0750751
  31.6825193  46.1429909 106.5901820  33.9154474  46.0907683 111.1116356
  33.5512681  45.5638303 111.8229277  34.7721590  45.7006152 110.9382841
  33.5559961  41.1197582 106.1077704  33.7234363  41.9877819 106.4748175
  33.3657130  41.2824864 105.1838994  36.3135294  49.5814561 117.7743535
  36.0136017  50.4839600 117.6659342  35.9686354  49.3146744 118.6264688
  39.7132438  42.0997101 115.4540972  38.8049315  42.0312510 115.1599733
  39.6620034  42.5769046 116.2822798  33.5349182  43.5755240 107.0924371
  33.4148807  44.0212290 107.9309851  32.8401770  43.9240557 106.5337909
  31.2956074  56.3458881 110.7414502  31.2180104  57.2966707 110.8202983
  30.6917717  56.0004754 111.3989429  39.2334248  44.0476713 107.9204705
  40.1452104  44.2804100 107.7452403  38.7243895  44.6313757 107.3579784
  37.8403830  49.0302531 115.3118287  37.2112693  49.1948245 114.6094355
  37.4529492  49.4444141 116.0829251  41.7193062  49.9656969 112.6662650
  41.0344100  50.3455871 112.1159684  41.8036911  50.5752296 113.3994598
  33.3931792  48.7676939 112.5768372  33.8570138  49.0464642 111.7872994
  33.1288590  47.8660384 112.3941462  32.3300678  44.8900092 109.3857937
  33.0324721  45.3421135 109.8531863  31.9981307  44.2483911 110.0137830
  40.0889822  50.4888884 117.4380351  40.9107265  50.0869071 117.1563033
  40.0852225  50.3857118 118.3896467  48.1795815  46.8327632 113.7865323
  47.4259523  46.2635030 113.6309327  48.3143356  46.7990297 114.7335957
  33.5694443  51.7041034 109.4620042  33.4340118  52.5492570 109.8904890
  34.1104255  51.9060312 108.6985976  27.0223840  49.2216472 110.0347967
  27.5348361  50.0159723 110.1853532  27.6746553  48.5242763 109.9681569
  28.8318725  52.3382229 112.1170720  29.0085353  53.2600193 111.9291704
  29.6275558  52.0240648 112.5465100  29.9550040  53.8560403 118.1181063
  30.5057465  53.7277466 117.3458057  29.1161516  54.1555292 117.7675956
  24.9872757  47.5505127 110.8107538  25.8247979  47.9602135 110.5941245
  25.1651025  46.6104569 110.7807732  36.8837189  45.2180207 106.4991371
  36.3683812  45.9884812 106.7379758  36.6114497  44.5445344 107.1224432
  34.4684300  40.0629908 111.5576609  33.6125896  39.6736759 111.3782248
  34.8811252  40.1421869 110.6976395  41.8571463  47.9712562 108.4344544
  41.0800906  47.6323722 107.9899706  42.5362944  47.9765185 107.7599509
  36.6723492  43.0907300 108.3251152  36.3673628  43.4053449 109.1761295
  37.6253934  43.1688719 108.3678485  35.1169924  49.2497523 109.9744106
  34.5891286  48.5150282 109.6617343  34.6157427  50.0272199 109.7284074
  40.0962770  47.4446543 115.0911152  39.4386444  48.1345805 115.1791281
  40.9003169  47.8342975 115.4345139  38.9068229  45.7990916 113.1415094
  39.4200111  46.4320908 113.6436804  39.5569453  45.1992112 112.7758454
  30.1758239  41.9421650 106.3546603  29.3395551  42.2796337 106.6755877
  30.0363008  41.8070630 105.4173740  33.2622524  47.0677733 102.9779079
  32.3549586  46.8366987 103.1770228  33.7593556  46.2715352 103.1653060
  36.1690603  55.7775240 105.8975765  35.4952302  56.0806937 106.5060723
  36.5556425  56.5804321 105.5481222  36.1684107  44.6731787 110.5176115
  36.9155926  45.1853184 110.2083237  36.4375697  44.3515840 111.3780508
  34.4410758  47.1690328 107.5003069  33.5321977  46.8849361 107.5975539
  34.4705841  47.5889407 106.6406376  39.6730025  50.7796917 111.2694237
  39.2192352  49.9387827 111.3259427  39.0423992  51.4158316 111.6069017
  38.6162945  41.7088903 112.4994904  37.8785701  41.1966290 112.8305147
  38.8689718  41.2689285 111.6878181  38.1162964  52.6173414 112.2044055
  38.4085939  53.1778471 111.4856420  38.6261585  52.9101975 112.9597214
  32.9895652  44.7818949 113.6012864  33.0444261  43.8292785 113.5255341
  32.1786854  44.9378388 114.0854163  34.1386845  48.7099072 104.8391148
  33.7006275  47.9934931 104.3796785  34.8797286  48.9375186 104.2776239
  30.9288012  43.3996008 111.3603243  30.1155877  43.6990179 111.7668435
  31.4247006  43.0051697 112.0777725  33.0796590  53.3953765 113.2937508
  33.0372768  53.6214612 112.3646040  33.9959288  53.1617140 113.4423309
  42.2559960  46.9856269 110.8967466  42.1177859  47.1757865 109.9688655
  41.8996179  47.7475651 111.3535517  42.2829340  49.0532796 115.9078738
  42.7165847  48.9608085 116.7561792  42.9960921  49.0290296 115.2698754
  31.1962390  50.2716794 113.0899471  31.9902989  49.7767114 112.8882046
  30.4854083  49.7434657 112.7267176  36.0157235  52.6534890 117.4411838
  36.0694257  53.2225826 118.2089554  35.1472016  52.8236775 117.0765875
  27.5045154  44.4159876 109.1659223  26.5742742  44.3544331 109.3829185
  27.6002626  43.8935829 108.3695865  43.1444889  49.0956496 118.4411623
  43.3380779  50.0002307 118.6870898  43.0445508  48.6363915 119.2750208
  33.7733666  50.8445816 116.7697308  33.6344752  50.4764601 117.6423246
  32.9848263  51.3593456 116.5981266  34.3681818  55.9454913 108.1122844
  34.5433574  55.4742956 108.9268467  33.6814606  56.5720679 108.3404105
  35.3238881  50.2227419 114.1586145  34.9888714  50.1828189 115.0543795
  34.8242827  49.5572135 113.6856556  38.2598073  47.5683453 104.4323205
  37.6427244  46.8430281 104.3356258  37.7914562  48.3292814 104.0890279
  28.9342904  59.0944275 114.8862704  29.1739502  59.7262800 115.5641723
  28.0912100  58.7432315 115.1728064  30.0496619  41.7868878 103.5544509
  29.1726085  41.6657678 103.1906756  30.5254372  40.9954956 103.3023398
  33.4470765  54.9023398 117.2904208  33.3740937  55.7078369 117.8023513
  33.0048159  55.1015364 116.4652230  33.2360545  54.1395168 110.8007030
  32.4528067  54.6816848 110.8945254  33.9353290  54.6569148 111.2001271
  36.5457195  39.9489797 113.4441235  37.0425895  39.1959760 113.1242306
  35.7744177  39.9854114 112.8784445  44.3986953  45.6530163 115.0859527
  44.3876829  46.5354878 114.7153460  43.5304332  45.3001714 114.8914064
  35.9069449  54.8010232 119.4462367  36.6197421  55.4357697 119.3738269
  35.4159478  54.8974098 118.6302369  37.6286976  48.7061485 111.0179659
  36.6943255  48.8262947 110.8484363  37.8063644  47.8033951 110.7539669
  41.0159527  44.5478804 111.5529693  41.4819979  45.3806795 111.4789996
  41.4667028  44.0823785 112.2574951  39.0835758  50.8922625 108.5515845
  39.3595602  50.7779220 109.4609719  38.2140257  50.4940110 108.5128018
  35.7189822  55.1408976 112.1948659  35.9012217  54.3230632 112.6576411
  36.5422808  55.3576668 111.7573549  36.0531988  54.0677161 109.4563707
  36.5819754  53.5569616 108.8433869  36.3160207  53.7519691 110.3209240
  29.4087736  55.1192278 112.2161483  28.7398111  55.6038405 111.7325523
  29.2700605  55.3661498 113.1304861  33.5493004  57.1536021 118.8144141
  34.1011312  57.3167643 119.5793227  33.8899198  57.7440459 118.1424166
  24.7775313  43.3810733 108.9957415  25.0728754  42.4721411 108.9424469
  23.8763349  43.3598472 108.6738417  36.6861392  55.1017997 115.8007823
  36.5612531  54.3007737 115.2918769  37.3440483  55.5964190 115.3121793
  38.7496300  52.9027017 117.4287374  37.8026636  52.7832368 117.3565700
  39.0979073  52.0149515 117.5113635  26.5063154  41.0624830 109.1196740
  26.1775861  40.1822209 108.9371846  26.8602525  41.0072499 110.0073129
  35.7542733  52.6979733 113.6291726  35.6067696  51.7696441 113.8099296
  36.5796227  52.7199824 113.1448801  29.6204978  41.3497800 109.4872218
  29.9601050  41.8783722 108.7650826  30.0677098  41.6878206 110.2630784
  39.3576855  53.5208292 114.7156599  40.2823403  53.3151153 114.5781050
  39.1892159  53.2724693 115.6245940  31.6073125  39.8472422 107.6865511
  32.3281487  40.2253675 107.1829228  30.9838429  40.5661299 107.7900489
  35.7504248  40.5517571 108.6223843  35.9667862  41.4342209 108.3212671
  35.2698315  40.1603784 107.8929485  39.1472171  54.0393959 110.0718690
  39.3209049  53.4740382 109.3192542  39.6401063  54.8394854 109.8898180
  31.7536748  39.3820212 110.5163047  31.8752659  38.4536859 110.7153935
  31.4638790  39.3958898 109.6041363  45.0011563  46.8030382 111.6908990
  45.4442709  46.0537708 111.2928113  44.1238073  46.7940519 111.3082722
  40.1347344  53.3560724 107.1715588  40.8298248  53.9767416 107.3902903
  40.4770494  52.5056075 107.4467966  42.0338767  50.8060429 108.7002919
  42.5590091  51.1447702 107.9752239  41.9461120  49.8707445 108.5166054
  33.7179428  56.8732413 113.0598172  33.2784418  56.3808791 113.7531029
  34.4687545  56.3305380 112.8190247  26.1971767  53.0643953 113.0622800
  27.0229787  52.7647725 112.6821444  25.8465819  52.2951576 113.5112589
  31.1653300  52.4170422 115.1320474  30.5433309  51.7541127 114.8322702
  31.8358167  52.4431554 114.4494122  24.3980372  50.9830280 114.0211734
  23.5612280  50.5552454 113.8395735  24.3704017  51.1762723 114.9582525
  30.7266807  50.9674345 108.6078934  30.8754927  51.6509809 107.9545607
  31.5333250  50.9479435 109.1228390  43.3448745  50.7082741 121.5628867
  43.0533553  51.0712721 122.3992328  42.7320876  49.9949749 121.3842199
  44.5444427  48.2735621 114.0831437  45.3791319  48.7125425 114.2468998
  44.6803556  47.7974274 113.2639683  28.4819440  46.9939523 109.6140003
  28.2365482  46.0901853 109.8120213  28.6515354  46.9956673 108.6719481
  27.7515087  42.7267880 107.1126165  27.0584332  42.8012235 106.4566201
  27.5066839  41.9628224 107.6347682  34.2262212  53.4622475 106.0790682
  33.6536179  54.0812663 105.6261154  34.7995006  54.0121837 106.6130604
  37.4459472  53.7459626 107.2099264  38.3790145  53.6805187 107.4132140
  37.3582685  54.5815892 106.7513797  42.7725680  45.9287235 117.3779530
  42.7402000  44.9903236 117.5639214  43.3826304  46.0071272 116.6445355
  34.6109011  44.7983288 103.4206734  35.5568116  44.6689496 103.4895152
  34.2323256  44.0597950 103.8976163  48.5902230  46.9903242 116.5185567
  49.3205618  46.7288530 117.0793270  47.9809175  46.2531964 116.5587635
  46.6717527  45.1311105 117.1160018  45.9450690  44.9967070 116.5076510
  46.2564814  45.4387933 117.9216736  32.7951928  42.7233265 103.3561620
  31.8883383  42.4266377 103.4324333  33.0727909  42.4263083 102.4895906
  34.4113994  37.2670154 109.5105861  33.6014722  36.9217239 109.8861107
  35.0998411  36.9577698 110.0993472  31.5650713  39.5820200 103.4973599
  32.4269877  39.9075098 103.7569416  31.7501057  38.7951696 102.9846665
  39.7183349  38.4548726 110.6408822  39.1382018  39.1133530 110.2586874
  39.4519282  37.6326071 110.2296239  38.5008227  40.6148817 109.6965170
  37.6134082  40.8998467 109.4785365  38.9162216  40.4542580 108.8492447
  41.8522763  40.6395338 113.4119509  42.6283153  41.1291790 113.6844126
  41.1270897  41.0653392 113.8691379  44.2895322  41.3522957 114.4693450
  44.8839813  41.1118693 113.7586758  44.3621906  40.6330087 115.0966986
  26.5092478  55.1956568 114.7836615  26.3746945  54.4356969 114.2174613
  26.0924540  55.9197468 114.3165404  38.4749251  46.1303353 109.9115460
  38.4184452  46.5871904 109.0723093  39.0277593  45.3694037 109.7338303
  42.2854057  41.9193084 110.7365580  42.0290991  41.5189720 111.5673787
  41.6606925  42.6336878 110.6115719  46.5966395  44.6589158 113.2436871
  46.0365953  44.7282347 114.0168433  45.9909898  44.4830142 112.5236367
  29.6661603  56.0925885 114.9955057  29.5493988  57.0371317 114.8933748
  28.8454050  55.7899446 115.3840857  39.5538138  50.8176021 105.8411650
  40.3883742  50.3857219 105.6589125  39.3922481  50.6458034 106.7688545
  39.2084030  47.3208134 107.2067989  39.1532834  47.1552405 106.2656433
  38.5830085  48.0284167 107.3630179  32.5180156  36.8216243 106.7853308
  32.5058825  37.7658083 106.9421579  33.4103577  36.6386388 106.4912769
  30.6916118  56.7454147 118.2110986  31.5943364  56.7777757 118.5277481
  30.4653488  55.8154598 118.2257322  32.4469720  55.4985133 114.8721064
  31.4965351  55.4986995 114.7585437  32.7502206  54.7517868 114.3557099
  48.1822413  61.3345672 115.9366827  48.8200823  61.2152419 115.2330167
  48.0643256  62.2826516 115.9954779  44.9912119  61.2873100 115.8728352
  44.6530631  61.1714164 114.9848886  45.8601887  60.8864265 115.8529358
  40.8498935  63.1408576 111.8625242  40.2863800  63.0498513 111.0941530
  40.7351330  62.3208481 112.3427735  45.4731902  62.4407951 121.8314557
  45.4620543  62.0460750 120.9595061  45.6352542  61.7074024 122.4248328
  38.3963367  64.6359768 114.7009463  39.1884659  64.2950592 114.2855762
  38.6360017  64.7454743 115.6211616  46.4298494  66.8079544 107.1739707
  45.7786473  67.3933624 106.7873721  47.2242857  67.3385739 107.2334745
  40.3554121  63.8968681 107.5726842  41.1284997  63.3497668 107.4339718
  40.7079520  64.7612930 107.7841303  42.1939163  65.2245063 120.7793741
  41.9029029  66.1290694 120.6640407  42.8296148  65.2661591 121.4937811
  43.1195370  62.6021912 117.3695101  43.7158943  62.3777934 116.6552064
  43.1770342  61.8606657 117.9720549  47.7363681  59.0597125 113.0120035
  48.5226771  58.6416549 112.6610452  48.0002386  59.9643218 113.1801683
  47.9073759  64.4969976 107.7108692  47.2719592  64.5704602 108.4229596
  47.5771165  65.0863575 107.0327771  53.1372109  58.9972359 113.9153013
  53.8697281  58.4271576 114.1490843  52.3811464  58.6093959 114.3559519
  42.4116687  61.9589453 107.4069667  42.2952946  61.2834356 108.0750751
  42.5218947  61.4721827 106.5901820  44.7548228  61.4199600 111.1116356
  44.3906436  60.8930221 111.8229277  45.6115344  61.0298069 110.9382841
  50.6597529  52.7093933 118.3747622  50.3280854  53.5789344 118.1508837
  50.0643142  52.3930217 119.0541652  44.3953715  56.4489500 106.1077704
  44.5628118  57.3169736 106.4748175  44.2050884  56.6116782 105.1838994
  47.1529049  64.9106479 117.7743535  46.8529772  65.8131518 117.6659342
  46.8080108  64.6438662 118.6264688  40.6041530  61.3620276 113.8080239
  39.6792026  61.2296490 114.0157931  40.8525943  62.1414495 114.3050182
  50.5526192  57.4289019 115.4540972  49.6443070  57.3604427 115.1599733
  50.5013788  57.9060964 116.2822798  44.3742936  58.9047157 107.0924371
  44.2542561  59.3504208 107.9309851  43.6795525  59.2532475 106.5337909
  37.9650341  61.0053549 114.6424028  38.0942722  61.2588028 115.5563440
  37.2847792  61.5981257 114.3228683  42.1349828  71.6750799 110.7414502
  42.0573858  72.6258624 110.8202983  41.5311472  71.3296672 111.3989429
  44.6267058  58.8478665 123.3975869  43.8500392  59.4072585 123.3878734
  45.2657621  59.3335448 123.9190739  52.4187839  55.6305457 117.2318846
  51.7762219  55.9237991 116.5858641  51.9142767  55.5158378 118.0372043
  50.0728002  59.3768631 107.9204705  50.9845858  59.6096017 107.7452403
  49.5637649  59.9605675 107.3579784  42.8813430  61.6564118 122.9593836
  43.6228115  62.1949162 122.6828660  42.1750416  62.2830407 123.1165388
  48.3568770  63.7993258 121.5565998  48.7652126  63.3575669 120.8120630
  47.6346032  63.2245886 121.8100191  44.7099840  58.7365865 118.9299555
  45.5561035  59.1605279 119.0734204  44.6498478  58.0799489 119.6238118
  48.6797585  64.3594449 115.3118287  48.0506447  64.5240163 114.6094355
  48.2923247  64.7736059 116.0829251  52.5586817  65.2948887 112.6662650
  51.8737855  65.6747788 112.1159684  52.6430666  65.9044214 113.3994598
  47.8599285  56.3970234 120.5880728  47.6160217  57.1512294 120.0515004
  48.1359216  56.7755581 121.4227975  49.8137748  62.9408846 119.2657994
  50.0254643  63.5840606 118.5892375  49.7667496  62.1071162 118.7979924
  47.4163977  55.5526667 116.1694566  46.5548456  55.8507920 116.4611304
  47.4426412  55.7697065 115.2375599  44.2325547  64.0968857 112.5768372
  44.6963892  64.3756560 111.7872994  43.9682345  63.1952302 112.3941462
  41.1249628  63.6440339 115.5148135  41.6950985  64.0727607 114.8765620
  41.7157739  63.3622923 116.2132321  43.1694433  60.2192009 109.3857937
  43.8718476  60.6713053 109.8531863  42.8375061  59.5775828 110.0137830
  41.6174794  58.8103766 123.7609146  40.9873455  59.4920047 123.9944543
  41.5110882  58.6986848 122.8162285  36.9119767  58.4775562 114.6875070
  36.1218821  58.7333091 114.2115181  37.4031014  59.2923900 114.7927111
  50.9283576  65.8180801 117.4380351  51.7501020  65.4160989 117.1563033
  50.9245979  65.7149035 118.3896467  38.8634512  58.8420141 111.6458547
  38.0665675  58.9538836 112.1642043  38.6360104  59.1806794 110.7799438
  44.6940180  65.3664845 119.5941062  44.7584612  65.8285252 120.4299234
  43.9851103  64.7362210 119.7223372  35.1957470  58.7306053 117.1190061
  35.4465508  59.6153062 117.3847637  35.7317018  58.5510654 116.3465153
  59.0189569  62.1619550 113.7865323  58.2653278  61.5926948 113.6309327
  59.1537110  62.1282214 114.7335957  44.4088197  67.0332952 109.4620042
  44.2733872  67.8784488 109.8904890  44.9498010  67.2352230 108.6985976
  37.8617595  64.5508390 110.0347967  38.3742115  65.3451640 110.1853532
  38.5140307  63.8534681 109.9681569  39.6712479  67.6674146 112.1170720
  39.8479108  68.5892111 111.9291704  40.4669313  67.3532566 112.5465100
  43.8123498  54.5282411 123.7154654  44.5533211  55.1289564 123.6359116
  44.0441421  53.7860049 123.1572696  38.9564836  59.7138778 121.9932884
  38.8418351  58.8124036 122.2939983  38.1009354  59.9602475 121.6417700
  46.0356674  67.6556519 123.5920384  45.5920528  66.8692897 123.2741289
  46.6973887  67.8435669 122.9264275  40.7943795  69.1852320 118.1181063
  41.3451220  69.0569384 117.3458057  39.9555271  69.4847209 117.7675956
  48.1337912  67.9359319 121.6201785  48.1156387  68.7568200 121.1282055
  49.0557832  67.8113394 121.8451927  44.5910966  65.4503448 122.4625294
  45.1239303  64.6891736 122.2324602  44.0625047  65.1577100 123.2049448
  47.7580661  50.5563514 117.9918936  47.4144930  51.4465156 117.9158046
  48.1259623  50.3665172 117.1288521  35.8266511  62.8797044 110.8107538
  36.6641733  63.2894053 110.5941245  36.0044779  61.9396487 110.7807732
  47.7230944  60.5472125 106.4991371  47.2077567  61.3176730 106.7379758
  47.4508252  59.8737261 107.1224432  45.3078055  55.3921826 111.5576609
  44.4519651  55.0028676 111.3782248  45.7205006  55.4713787 110.6976395
  46.8377201  52.9268169 115.9568169  46.3341997  52.8898304 115.1435974
  47.1307808  53.8360912 116.0164825  43.0820087  53.0106899 114.9634351
  43.9473084  52.8149708 114.6040240  43.1497596  52.7817251 115.8903707
  52.6965218  63.3004480 108.4344544  51.9194660  62.9615639 107.9899706
  53.3756699  63.3057103 107.7599509  47.5117247  58.4199217 108.3251152
  47.2067382  58.7345366 109.1761295  48.4647689  58.4980637 108.3678485
  45.9563679  64.5789441 109.9744106  45.4285040  63.8442200 109.6617343
  45.4551181  65.3564117 109.7284074  50.9356525  62.7738461 115.0911152
  50.2780199  63.4637722 115.1791281  51.7396924  63.1634893 115.4345139
  40.6882406  55.2409107 112.3350717  41.2626158  55.0184288 111.6023910
  41.2753389  55.3097801 113.0879319  49.7461983  61.1282834 113.1415094
  50.2593865  61.7612826 113.6436804  50.3963207  60.5284029 112.7758454
  41.0151993  57.2713568 106.3546603  40.1789306  57.6088254 106.6755877
  40.8756763  57.1362548 105.4173740  42.9905074  52.1150356 111.0625787
  42.3369486  51.7999373 110.4382402  42.9485548  51.4926096 111.7885610
  47.0084358  71.1067158 105.8975765  46.3346056  71.4098855 106.5060723
  47.3950180  71.9096238 105.5481222  46.2242814  58.6032289 115.3873434
  45.3065376  58.8247236 115.2295122  46.6402958  58.6778600 114.5285142
  47.0077862  60.0023705 110.5176115  47.7549681  60.5145102 110.2083237
  47.2769452  59.6807758 111.3780508  45.2804512  62.4982246 107.5003069
  44.3715731  62.2141278 107.5975539  45.3099596  62.9181324 106.6406376
  50.5123780  66.1088835 111.2694237  50.0586107  65.2679745 111.3259427
  49.8817746  66.7450233 111.6069017  49.4556699  57.0380821 112.4994904
  48.7179456  56.5258207 112.8305147  49.7083473  56.5981203 111.6878181
  48.9556719  67.9465332 112.2044055  49.2479693  68.5070389 111.4856420
  49.4655339  68.2393893 112.9597214  49.5568326  49.8157073 113.0936673
  49.8627203  48.9554437 112.8062588  50.2820931  50.4074693 112.8935667
  35.8492683  60.2187760 111.4818271  35.6517082  59.6257120 110.7569338
  35.2939347  59.9139970 112.1994210  43.8289406  60.1110866 113.6012864
  43.8838016  59.1584703 113.5255341  43.0180608  60.2670305 114.0854163
  41.7681766  58.7287926 111.3603243  40.9549632  59.0282097 111.7668435
  42.2640760  58.3343615 112.0777725  43.9190344  68.7245683 113.2937508
  43.8766523  68.9506529 112.3646040  44.8353043  68.4909057 113.4423309
  47.3655978  59.1929750 120.1918137  47.7205366  59.4201224 121.0512603
  48.0128109  59.5248127 119.5695392  53.0953715  62.3148186 110.8967466
  52.9571613  62.5049782 109.9688655  52.7389934  63.0767569 111.3535517
  41.2595841  56.3006281 116.9764478  41.8995220  56.1595041 116.2787441
  40.4273371  56.0140795 116.6003080  53.1223094  64.3824713 115.9078738
  53.5559601  64.2900002 116.7561792  53.8354675  64.3582214 115.2698754
  42.0356145  65.6008712 113.0899471  42.8296743  65.1059032 112.8882046
  41.3247837  65.0726575 112.7267176  46.8550989  67.9826807 117.4411838
  46.9088012  68.5517744 118.2089554  45.9865771  68.1528692 117.0765875
  38.3438908  59.7451794 109.1659223  37.4136496  59.6836249 109.3829185
  38.4396380  59.2227746 108.3695865  38.2624457  56.2706606 111.7537465
  38.5231275  57.1851940 111.6446625  39.0841630  55.8031049 111.9034078
  39.7349383  57.6844364 118.9236289  40.4072436  57.4761726 118.2748938
  38.9079169  57.4866450 118.4841522  53.9838644  64.4248414 118.4411623
  54.1774534  65.3294224 118.6870898  53.8839262  63.9655833 119.2750208
  45.6374955  54.3106305 120.9401950  44.9902870  55.0096254 120.8466427
  46.4075970  54.7442448 121.3078199  49.0453753  64.5755157 124.0152504
  48.8939259  64.3465708 123.0982587  49.0358432  65.5325758 124.0283849
  45.8139089  62.1487069 118.9998770  46.7431149  62.2998229 118.8267737
  45.3930119  62.2371090 118.1447417  44.6127421  66.1737734 116.7697308
  44.4738506  65.8056518 117.6423246  43.8242017  66.6885373 116.5981266
  45.2075573  71.2746830 108.1122844  45.3827328  70.8034874 108.9268467
  44.5208361  71.9012597 108.3404105  46.1632636  65.5519337 114.1586145
  45.8282469  65.5120107 115.0543795  45.6636582  64.8864053 113.6856556
  40.1376880  60.9586967 119.6838727  39.9996678  60.2267205 120.2850266
  41.0481803  60.8695867 119.4022914  42.7659181  60.6706926 119.1722406
  43.4758799  60.0300118 119.1309025  42.7228489  60.9219821 120.0948587
  50.7545959  67.6074279 122.0928986  50.6958505  66.9233499 121.4259569
  51.1565478  68.3493269 121.6409611  41.4788115  57.6572144 120.9918046
  40.9425472  57.2062882 121.6439642  40.8904823  57.7918053 120.2488510
  39.7736658  74.4236193 114.8862704  40.0133256  75.0554717 115.5641723
  38.9305855  74.0724233 115.1728064  50.7563367  65.5713863 120.3242965
  49.8690145  65.2339785 120.4469364  51.3261918  64.8396894 120.5611731
  32.4092514  61.9037955 113.6486017  33.0963553  61.5899685 113.0607032
  32.2540642  62.8079320 113.3753268  37.2127236  56.7928152 118.0771040
  37.1285424  56.1853821 117.3421450  36.3909942  57.2837170 118.0780537
  44.2864520  70.2315316 117.2904208  44.2134691  71.0370287 117.8023513
  43.8441913  70.4307281 116.4652230  44.0754300  69.4687086 110.8007030
  43.2921821  70.0108766 110.8945254  44.7747045  69.9861065 111.2001271
  47.3850950  55.2781715 113.4441235  47.8819649  54.5251677 113.1242306
  46.6137931  55.3146032 112.8784445  55.2380707  60.9822081 115.0859527
  55.2270583  61.8646796 114.7153460  54.3698086  60.6293631 114.8914064
  46.7463203  70.1302150 119.4462367  47.4591176  70.7649614 119.3738269
  46.2553232  70.2266016 118.6302369  48.4680730  64.0353402 111.0179659
  47.5337009  64.1554865 110.8484363  48.6457399  63.1325869 110.7539669
  43.9685918  57.4199098 113.1712920  43.5983706  56.8670138 113.8593825
  44.4645011  56.8157232 112.6187920  51.8553282  59.8770722 111.5529693
  52.3213734  60.7098713 111.4789996  52.3060782  59.4115703 112.2574951
  41.7975117  67.8796593 120.2667938  42.4984576  68.5133076 120.4197332
  41.3270232  68.2211325 119.5063577  49.9229513  66.2214543 108.5515845
  50.1989357  66.1071137 109.4609719  49.0534012  65.8232028 108.5128018
  49.8269944  52.2451309 115.5920594  48.9133024  52.4755535 115.7602801
  50.2563046  52.3289753 116.4434627  49.5976403  60.4341201 118.0920488
  48.9447853  60.6817108 117.4372941  49.9756783  59.6205339 117.7582966
  46.5583577  70.4700894 112.1948659  46.7405971  69.6522550 112.6576411
  47.3816563  70.6868586 111.7573549  46.8925742  69.3969079 109.4563707
  47.4213509  68.8861533 108.8433869  47.1553962  69.0811609 110.3209240
  45.6463976  61.1761012 124.5786525  44.9704613  61.0755141 125.2488901
  46.4691610  61.0200225 125.0422523  37.3942835  67.4132948 117.1999041
  37.9796272  66.6676636 117.3326945  37.1967673  67.7236905 118.0835704
  40.2481490  70.4484196 112.2161483  39.5791865  70.9330323 111.7325523
  40.1094360  70.6953416 113.1304861  31.9860490  59.9838548 115.9203484
  32.0244589  59.4502139 116.7140602  31.4800783  59.4573754 115.3014461
  44.3886759  72.4827939 118.8144141  44.9405067  72.6459561 119.5793227
  44.7292952  73.0732377 118.1424166  39.3651252  54.8303089 119.4166026
  39.4292579  55.6917920 119.0043424  39.3018372  54.2177090 118.6838385
  38.8403525  56.9026221 123.0639060  39.4675563  56.5203299 123.6776585
  37.9831443  56.6840423 123.4294753  49.2397633  67.3089197 124.6692796
  49.7837537  67.9219155 124.1747751  48.6584478  67.8668775 125.1859809
  35.6169067  58.7102650 108.9957415  35.9122508  57.8013329 108.9424469
  34.7157103  58.6890390 108.6738417  47.5255146  70.4309915 115.8007823
  47.4006286  69.6299654 115.2918769  48.1834237  70.9256108 115.3121793
  39.1463314  56.7858647 114.9784964  38.4249900  57.3994615 114.8392437
  39.9356570  57.3216412 114.9001610  49.5890054  68.2318935 117.4287374
  48.6420390  68.1124286 117.3565700  49.9372828  67.3441433 117.5113635
  41.9489628  54.1213074 121.2525615  42.4724030  54.3675370 122.0151925
  41.7301961  54.9533108 120.8328753  37.3456909  56.3916748 109.1196740
  37.0169615  55.5114127 108.9371846  37.6996280  56.3364417 110.0073129
  46.5936488  68.0271651 113.6291726  46.4461450  67.0988358 113.8099296
  47.4189981  68.0491742 113.1448801  40.4598732  56.6789718 109.4872218
  40.7994805  57.2075639 108.7650826  40.9070853  57.0170124 110.2630784
  50.1970610  68.8500210 114.7156599  51.1217157  68.6443071 114.5781050
  50.0285913  68.6016611 115.6245940  43.1542173  55.0626769 118.9375286
  42.8138993  54.2634582 119.3395966  42.4481179  55.3628480 118.3652119
  43.8058645  52.1476081 117.3902609  44.6284714  51.6736559 117.2681499
  44.0496708  52.9266565 117.8901295  42.4466879  55.1764340 107.6865511
  43.1675242  55.5545592 107.1829228  41.8232183  55.8953216 107.7900489
  46.5898002  55.8809489 108.6223843  46.8061616  56.7634126 108.3212671
  46.1092069  55.4895702 107.8929485  41.3297223  58.8395202 115.1994588
  41.1841804  59.1535505 116.0918869  40.8522427  59.4580102 114.6465486
  43.1893606  55.8297750 115.2475477  43.1755175  54.9338843 114.9107775
  43.9066034  55.8368413 115.8813763  45.0419737  56.2635090 117.2928605
  44.7837515  57.1852161 117.2912935  44.5104777  55.8665524 117.9829069
  49.9865926  69.3685877 110.0718690  50.1602803  68.8032300 109.3192542
  50.4794817  70.1686772 109.8898180  35.8042886  61.3800546 118.1382249
  35.2596354  62.1560354 118.2702523  36.6822235  61.7271351 117.9801370
  42.5930502  54.7112130 110.5163047  42.7146413  53.7828776 110.7153935
  42.3032545  54.7250816 109.6041363  45.4621693  52.3967040 113.6529767
  45.4843389  52.4606374 112.6981747  45.8789752  51.5571549 113.8470273
  55.8405317  62.1322300 111.6908990  56.2836463  61.3829625 111.2928113
  54.9631827  62.1232436 111.3082722  50.9741098  68.6852641 107.1715588
  51.6692003  69.3059334 107.3902903  51.3164248  67.8347993 107.4467966
  36.5908907  60.5070442 121.0312406  35.8490644  60.6553078 121.6177036
  36.2701652  60.7678708 120.1679155  52.8732521  66.1352347 108.7002919
  53.3983846  66.4739620 107.9752239  52.7854874  65.1999362 108.5166054
  44.5352570  70.0486421 120.8292796  44.8439697  69.8035567 121.7015495
  45.3328052  70.2533059 120.3411666  44.5573182  72.2024330 113.0598172
  44.1178172  71.7100709 113.7531029  45.3081299  71.6597298 112.8190247
  37.0365521  68.3935871 113.0622800  37.8623541  68.0939643 112.6821444
  36.6859573  67.6243494 113.5112589  42.0047054  67.7462339 115.1320474
  41.3827064  67.0833044 114.8322702  42.6751921  67.7723471 114.4494122
  35.2374126  66.3122198 114.0211734  34.4006035  65.8844372 113.8395735
  35.2097772  66.5054641 114.9582525  42.0771582  56.2244127 124.7252980
  42.1259737  57.1006250 124.3430750  42.6194096  55.6821520 124.1524623
  52.5626428  66.7685251 124.0054117  51.7721971  66.7509389 123.4658616
  52.3259782  67.3073544 124.7603154  52.6824303  63.6177717 121.3186846
  52.7322307  63.4527724 122.2602368  52.5738226  62.7504976 120.9284726
  41.5660561  66.2966263 108.6078934  41.7148682  66.9801727 107.9545607
  42.3727005  66.2771353 109.1228390  49.9728065  59.6008645 122.6346152
  50.8737928  59.4615110 122.3430150  50.0476039  59.7663100 123.5744330
  44.3070870  56.9775500 121.4799339  43.4374180  57.2709066 121.2081927
  44.5430351  57.5615945 122.2006602  54.1842499  66.0374659 121.5628867
  53.8927308  66.4004639 122.3992328  53.5714631  65.3241667 121.3842199
  55.3838182  63.6027538 114.0831437  56.2185073  64.0417342 114.2468998
  55.5197310  63.1266191 113.2639683  52.4329688  61.1607273 120.0308925
  52.9083809  61.3534919 119.2227776  51.5095253  61.2166459 119.7852309
  39.3213194  62.3231440 109.6140003  39.0759236  61.4193770 109.8120213
  39.4909109  62.3248591 108.6719481  47.0109904  53.1955117 118.9964759
  47.5291848  53.9316144 118.6711248  46.6565037  53.5019110 119.8311518
  38.5908842  58.0559798 107.1126165  37.8978087  58.1304153 106.4566201
  38.3460594  57.2920142 107.6347682  47.2622498  49.6155399 114.5165656
  47.5424252  48.9478588 115.1426082  48.0473105  49.8084495 114.0040319
  45.0655967  68.7914393 106.0790682  44.4929934  69.4104580 105.6261154
  45.6388760  69.3413755 106.6130604  51.1331357  58.0373033 118.2637231
  52.0848780  58.1371131 118.2849455  50.9634807  57.2451302 118.7735315
  49.1545736  55.1228616 118.4496632  48.5595668  55.4033629 117.7543120
  48.8695433  55.6122517 119.2213373  48.2853227  69.0751543 107.2099264
  49.2183900  69.0097105 107.4132140  48.1976439  69.9107810 106.7513797
  53.6119434  61.2579153 117.3779530  53.5795755  60.3195154 117.5639214
  54.2220058  61.3363190 116.6445355  53.7613923  58.0490196 117.4237813
  53.2452972  57.2648653 117.2367742  54.6453871  57.7208913 117.5884333
  51.4224650  51.7931212 113.3833626  51.2249471  51.4846300 114.2676958
  52.0324355  52.5192851 113.5131556  59.4295984  62.3195160 116.5185567
  60.1599373  62.0580448 117.0793270  58.8202930  61.5823882 116.5587635
  57.5111281  60.4603022 117.1160018  56.7844445  60.3258987 116.5076510
  57.0958568  60.7679851 117.9216736  45.3341458  64.1792952 124.8807391
  46.2544467  64.3571551 125.0747438  45.2991041  63.2348997 124.7287091
  34.5523623  59.3731546 113.8060666  34.2326407  58.5196854 113.5135040
  34.0057051  59.5880124 114.5618633  38.3303530  62.0893987 117.5230172
  38.5489540  63.0211094 117.5418206  38.7429304  61.7301961 118.3084976
  45.2507748  52.5962072 109.5105861  44.4408476  52.2509157 109.8861107
  45.9392165  52.2869616 110.0993472  47.1798296  51.6740119 111.1330158
  47.7329335  52.0935572 111.7920181  47.4168383  50.7475867 111.1753114
  34.4211883  62.9934457 115.7753788  33.7275354  62.5788410 115.2623742
  35.1684874  63.0354994 115.1787206  50.5577104  53.7840644 110.6408822
  49.9775773  54.4425448 110.2586874  50.2913036  52.9617989 110.2296239
  49.0080670  53.1845702 112.8430142  49.5080448  53.2962236 112.0344461
  49.6516278  52.8806755 113.4830951  43.0662666  61.0924331 125.7297983
  42.5829747  61.8924691 125.9361872  43.1523605  61.1032276 124.7765427
  36.3348625  62.9252711 113.6519802  36.3119313  63.0240398 112.7001686
  36.6449262  63.7717862 113.9736969  38.9936003  64.9828866 117.7666417
  39.9479257  64.9512808 117.6996348  38.7948527  64.5219490 118.5816643
  39.5835385  63.5529982 120.3337215  40.4028274  64.0474061 120.3572052
  39.8572193  62.6361950 120.3054782  49.3401982  55.9440734 109.6965170
  48.4527837  56.2290385 109.4785365  49.7555971  55.7834498 108.8492447
  52.6916518  55.9687255 113.4119509  53.4676908  56.4583708 113.6844126
  51.9664652  56.3945310 113.8691379  55.1289076  56.6814875 114.4693450
  55.7233567  56.4410610 113.7586758  55.2015660  55.9622005 115.0966986
  37.3486232  70.5248485 114.7836615  37.2140700  69.7648886 114.2174613
  36.9318294  71.2489385 114.3165404  49.3143005  61.4595270 109.9115460
  49.2578207  61.9163822 109.0723093  49.8671348  60.6985955 109.7338303
  53.1247811  57.2485002 110.7365580  52.8684745  56.8481638 111.5673787
  52.5000679  57.9628796 110.6115719  57.4360149  59.9881075 113.2436871
  56.8759707  60.0574265 114.0168433  56.8303652  59.8122060 112.5236367
  40.5055358  71.4217802 114.9955057  40.3887742  72.3663235 114.8933748
  39.6847804  71.1191364 115.3840857  50.3931892  66.1467938 105.8411650
  51.2277496  65.7149137 105.6589125  50.2316235  65.9749952 106.7688545
  50.0477785  62.6500052 107.2067989  49.9926588  62.4844323 106.2656433
  49.4223840  63.3576084 107.3630179  34.8370300  57.8868116 121.0329412
  35.4829163  57.3767070 121.5216637  34.6287451  58.6236798 121.6072837
  47.3623692  64.9548963 126.5321552  48.2314851  65.1289616 126.1708187
  46.8830443  65.7743380 126.4097281  43.3573910  52.1508161 106.7853308
  43.3452580  53.0950000 106.9421579  44.2497332  51.9678306 106.4912769
  41.5309872  72.0746064 118.2110986  42.4337119  72.1069675 118.5277481
  41.3047242  71.1446515 118.2257322  43.2863474  70.8277051 114.8721064
  42.3359105  70.8278913 114.7585437  43.5895960  70.0809785 114.3557099
  47.1726030  48.7450937 111.0399245  46.4058425  48.1909424 111.1855927
  47.5836734  48.8172806 111.9013396  59.0216168  76.6637589 115.9366827
  59.6594577  76.5444337 115.2330167  58.9037010  77.6118433 115.9954779
  55.8305874  76.6165017 115.8728352  55.4924385  76.5006082 114.9848886
  56.6995642  76.2156183 115.8529358  51.6892689  78.4700494 111.8625242
  51.1257555  78.3790431 111.0941530  51.5745085  77.6500398 112.3427735
  56.3125657  77.7699869 121.8314557  56.3014298  77.3752667 120.9595061
  56.4746296  77.0365942 122.4248328  49.2357121  79.9651685 114.7009463
  50.0278413  79.6242510 114.2855762  49.4753772  80.0746660 115.6211616
  57.2692248  82.1371462 107.1739707  56.6180228  82.7225542 106.7873721
  58.0636611  82.6677656 107.2334745  51.1947875  79.2260599 107.5726842
  51.9678751  78.6789586 107.4339718  51.5473274  80.0904848 107.7841303
  53.0332918  80.5536981 120.7793741  52.7422784  81.4582612 120.6640407
  53.6689902  80.5953509 121.4937811  53.9589125  77.9313829 117.3695101
  54.5552697  77.7069852 116.6552064  54.0164096  77.1898575 117.9720549
  53.5314153  75.3853265 105.2045292  53.7839674  74.8634786 104.4428755
  52.5938712  75.2219410 105.3071975  58.5757436  74.3889043 113.0120035
  59.3620525  73.9708466 112.6610452  58.8396140  75.2935135 113.1801683
  58.7467513  79.8261893 107.7108692  58.1113346  79.8996520 108.4229596
  58.4164920  80.4155492 107.0327771  63.9765863  74.3264276 113.9153013
  64.7091035  73.7563493 114.1490843  63.2205219  73.9385877 114.3559519
  53.2510442  77.2881371 107.4069667  53.1346700  76.6126274 108.0750751
  53.3612702  76.8013745 106.5901820  55.5941983  76.7491518 111.1116356
  55.2300190  76.2222139 111.8229277  56.4509099  76.3589987 110.9382841
  61.4991283  68.0385850 118.3747622  61.1674608  68.9081261 118.1508837
  60.9036897  67.7222134 119.0541652  55.2347470  71.7781418 106.1077704
  55.4021872  72.6461654 106.4748175  55.0444639  71.9408699 105.1838994
  57.9922803  80.2398396 117.7743535  57.6923526  81.1423435 117.6659342
  57.6473863  79.9730580 118.6264688  51.4435284  76.6912193 113.8080239
  50.5185781  76.5588407 114.0157931  51.6919698  77.4706413 114.3050182
  61.3919947  72.7580937 115.4540972  60.4836824  72.6896345 115.1599733
  61.3407543  73.2352882 116.2822798  55.2136691  74.2339075 107.0924371
  55.0936316  74.6796126 107.9309851  54.5189279  74.5824393 106.5337909
  48.8044096  76.3345467 114.6424028  48.9336477  76.5879946 115.5563440
  48.1241547  76.9273175 114.3228683  52.9743583  87.0042717 110.7414502
  52.8967612  87.9550542 110.8202983  52.3705226  86.6588589 111.3989429
  55.4660813  74.1770582 123.3975869  54.6894147  74.7364502 123.3878734
  56.1051376  74.6627365 123.9190739  63.2581593  70.9597375 117.2318846
  62.6155973  71.2529908 116.5858641  62.7536522  70.8450295 118.0372043
  60.9121757  74.7060548 107.9204705  61.8239613  74.9387935 107.7452403
  60.4031404  75.2897592 107.3579784  53.7207185  76.9856036 122.9593836
  54.4621869  77.5241080 122.6828660  53.0144170  77.6122324 123.1165388
  59.1962525  79.1285176 121.5565998  59.6045881  78.6867587 120.8120630
  58.4739786  78.5537804 121.8100191  55.5493595  74.0657783 118.9299555
  56.3954790  74.4897196 119.0734204  55.4892232  73.4091407 119.6238118
  59.5191339  79.6886367 115.3118287  58.8900202  79.8532081 114.6094355
  59.1317001  80.1027976 116.0829251  63.3980571  80.6240805 112.6662650
  62.7131609  81.0039706 112.1159684  63.4824420  81.2336131 113.3994598
  58.6993040  71.7262151 120.5880728  58.4553972  72.4804212 120.0515004
  58.9752970  72.1047499 121.4227975  60.6531503  78.2700764 119.2657994
  60.8648398  78.9132523 118.5892375  60.6061251  77.4363080 118.7979924
  58.2557732  70.8818584 116.1694566  57.3942211  71.1799838 116.4611304
  58.2820166  71.0988983 115.2375599  55.0719301  79.4260775 112.5768372
  55.5357647  79.7048478 111.7872994  54.8076099  78.5244219 112.3941462
  51.9643382  78.9732256 115.5148135  52.5344739  79.4019525 114.8765620
  52.5551494  78.6914841 116.2132321  54.0088187  75.5483927 109.3857937
  54.7112230  76.0004971 109.8531863  53.6768816  74.9067746 110.0137830
  52.4568549  74.1395684 123.7609146  51.8267209  74.8211965 123.9944543
  52.3504637  74.0278765 122.8162285  47.7513521  73.8067480 114.6875070
  46.9612575  74.0625008 114.2115181  48.2424768  74.6215818 114.7927111
  61.7677331  81.1472719 117.4380351  62.5894774  80.7452906 117.1563033
  61.7639733  81.0440953 118.3896467  49.7028266  74.1712059 111.6458547
  48.9059430  74.2830753 112.1642043  49.4753859  74.5098711 110.7799438
  55.5333934  80.6956762 119.5941062  55.5978367  81.1577170 120.4299234
  54.8244858  80.0654127 119.7223372  46.0351224  74.0597970 117.1190061
  46.2859262  74.9444980 117.3847637  46.5710772  73.8802572 116.3465153
  69.8583324  77.4911467 113.7865323  69.1047032  76.9218866 113.6309327
  69.9930865  77.4574132 114.7335957  55.2481952  82.3624870 109.4620042
  55.1127627  83.2076406 109.8904890  55.7891764  82.5644147 108.6985976
  51.7349291  68.4416450 126.1234397  51.3416237  67.8882648 126.7982042
  52.5515432  68.7527028 126.5140915  48.7011349  79.8800308 110.0347967
  49.2135870  80.6743558 110.1853532  49.3534062  79.1826598 109.9681569
  50.5106234  82.9966064 112.1170720  50.6872862  83.9184029 111.9291704
  51.3063067  82.6824483 112.5465100  54.6517252  69.8574329 123.7154654
  55.3926966  70.4581482 123.6359116  54.8835175  69.1151967 123.1572696
  49.7958590  75.0430696 121.9932884  49.6812105  74.1415953 122.2939983
  48.9403108  75.2894393 121.6417700  56.8750428  82.9848436 123.5920384
  56.4314282  82.1984815 123.2741289  57.5367642  83.1727587 122.9264275
  51.6337549  84.5144238 118.1181063  52.1844974  84.3861301 117.3458057
  50.7949025  84.8139127 117.7675956  58.9731666  83.2651236 121.6201785
  58.9550142  84.0860117 121.1282055  59.8951586  83.1405311 121.8451927
  55.4304720  80.7795366 122.4625294  55.9633057  80.0183654 122.2324602
  54.9018801  80.4869018 123.2049448  58.5974415  65.8855432 117.9918936
  58.2538685  66.7757073 117.9158046  58.9653378  65.6957089 117.1288521
  46.6660266  78.2088962 110.8107538  47.5035488  78.6185970 110.5941245
  46.8438534  77.2688404 110.7807732  58.5624698  75.8764043 106.4991371
  58.0471321  76.6468647 106.7379758  58.2902006  75.2029179 107.1224432
  56.1471809  70.7213744 111.5576609  55.2913405  70.3320594 111.3782248
  56.5598761  70.8005704 110.6976395  57.6770956  68.2560087 115.9568169
  57.1735751  68.2190222 115.1435974  57.9701563  69.1652830 116.0164825
  53.9213842  68.3398817 114.9634351  54.7866838  68.1441625 114.6040240
  53.9891350  68.1109168 115.8903707  63.5358972  78.6296397 108.4344544
  62.7588415  78.2907557 107.9899706  64.2150453  78.6349021 107.7599509
  58.3511001  73.7491135 108.3251152  58.0461137  74.0637284 109.1761295
  59.3041443  73.8272555 108.3678485  56.7957433  79.9081358 109.9744106
  56.2678795  79.1734118 109.6617343  56.2944936  80.6856035 109.7284074
  61.7750279  78.1030379 115.0911152  61.1173953  78.7929640 115.1791281
  62.5790678  78.4926811 115.4345139  51.5276161  70.5701024 112.3350717
  52.1019913  70.3476206 111.6023910  52.1147143  70.6389719 113.0879319
  60.5855738  76.4574751 113.1415094  61.0987620  77.0904743 113.6436804
  61.2356962  75.8575947 112.7758454  51.8545748  72.6005485 106.3546603
  51.0183060  72.9380172 106.6755877  51.7150517  72.4654465 105.4173740
  53.8298828  67.4442273 111.0625787  53.1763241  67.1291291 110.4382402
  53.7879302  66.8218014 111.7885610  54.9410033  77.7261568 102.9779079
  54.0337095  77.4950822 103.1770228  55.4381065  76.9299188 103.1653060
  57.8478112  86.4359076 105.8975765  57.1739811  86.7390772 106.5060723
  58.2343934  87.2388156 105.5481222  57.0636569  73.9324207 115.3873434
  56.1459130  74.1539154 115.2295122  57.4796712  74.0070517 114.5285142
  57.8471616  75.3315623 110.5176115  58.5943435  75.8437020 110.2083237
  58.1163206  75.0099675 111.3780508  56.1198267  77.8274163 107.5003069
  55.2109486  77.5433196 107.5975539  56.1493350  78.2473242 106.6406376
  61.3517534  81.4380753 111.2694237  60.8979861  80.5971663 111.3259427
  60.7211501  82.0742151 111.6069017  60.2950454  72.3672739 112.4994904
  59.5573210  71.8550125 112.8305147  60.5477227  71.9273120 111.6878181
  59.7950473  83.2757249 112.2044055  60.0873448  83.8362307 111.4856420
  60.3049094  83.5685810 112.9597214  60.3962081  65.1448991 113.0936673
  60.7020958  64.2846354 112.8062588  61.1214686  65.7366611 112.8935667
  46.6886437  75.5479677 111.4818271  46.4910837  74.9549038 110.7569338
  46.1333101  75.2431888 112.1994210  54.6683161  75.4402784 113.6012864
  54.7231770  74.4876620 113.5255341  53.8574363  75.5962223 114.0854163
  55.8174354  79.3682907 104.8391148  55.3793784  78.6518766 104.3796785
  56.5584795  79.5959022 104.2776239  52.6075521  74.0579844 111.3603243
  51.7943386  74.3574014 111.7668435  53.1034515  73.6635532 112.0777725
  54.7584098  84.0537601 113.2937508  54.7160277  84.2798447 112.3646040
  55.6746797  83.8200975 113.4423309  58.2049732  74.5221668 120.1918137
  58.5599120  74.7493141 121.0512603  58.8521864  74.8540045 119.5695392
  63.9347469  77.6440104 110.8967466  63.7965368  77.8341700 109.9688655
  63.5783688  78.4059487 111.3535517  52.0989595  71.6298199 116.9764478
  52.7388975  71.4886958 116.2787441  51.2667126  71.3432713 116.6003080
  63.9616849  79.7116631 115.9078738  64.3953355  79.6191920 116.7561792
  64.6748430  79.6874131 115.2698754  52.8749899  80.9300630 113.0899471
  53.6690498  80.4350950 112.8882046  52.1641592  80.4018493 112.7267176
  57.6944744  83.3118725 117.4411838  57.7481766  83.8809661 118.2089554
  56.8259525  83.4820610 117.0765875  49.1832663  75.0743711 109.1659223
  48.2530251  75.0128167 109.3829185  49.2790135  74.5519664 108.3695865
  49.1018212  71.5998524 111.7537465  49.3625029  72.5143857 111.6446625
  49.9235384  71.1322967 111.9034078  50.5743137  73.0136281 118.9236289
  51.2466191  72.8053643 118.2748938  49.7472924  72.8158367 118.4841522
  64.8232398  79.7540332 118.4411623  65.0168288  80.6586142 118.6870898
  64.7233017  79.2947751 119.2750208  56.4768709  69.6398222 120.9401950
  55.8296624  70.3388172 120.8466427  57.2469725  70.0734366 121.3078199
  59.8847507  79.9047074 124.0152504  59.7333013  79.6757626 123.0982587
  59.8752187  80.8617676 124.0283849  56.6532843  77.4778987 118.9998770
  57.5824903  77.6290147 118.8267737  56.2323873  77.5663008 118.1447417
  55.4521175  81.5029652 116.7697308  55.3132261  81.1348436 117.6423246
  54.6635771  82.0177291 116.5981266  56.0469327  86.6038748 108.1122844
  56.2221083  86.1326791 108.9268467  55.3602115  87.2304514 108.3404105
  57.0026390  80.8811254 114.1586145  56.6676223  80.8412024 115.0543795
  56.5030336  80.2155970 113.6856556  50.9770634  76.2878884 119.6838727
  50.8390432  75.5559123 120.2850266  51.8875558  76.1987784 119.4022914
  59.9385582  78.2267289 104.4323205  59.3214753  77.5014117 104.3356258
  59.4702071  78.9876649 104.0890279  53.6052935  75.9998844 119.1722406
  54.3152554  75.3592036 119.1309025  53.5622243  76.2511738 120.0948587
  61.5939714  82.9366197 122.0928986  61.5352260  82.2525417 121.4259569
  61.9959232  83.6785187 121.6409611  52.3181869  72.9864062 120.9918046
  51.7819226  72.5354800 121.6439642  51.7298577  73.1209970 120.2488510
  50.6130413  89.7528111 114.8862704  50.8527011  90.3846635 115.5641723
  49.7699609  89.4016151 115.1728064  61.5957121  80.9005781 120.3242965
  60.7083900  80.5631703 120.4469364  62.1655672  80.1688812 120.5611731
  43.2486268  77.2329873 113.6486017  43.9357308  76.9191603 113.0607032
  43.0934397  78.1371237 113.3753268  48.0520990  72.1220069 118.0771040
  47.9679179  71.5145739 117.3421450  47.2303697  72.6129088 118.0780537
  55.1258274  85.5607233 117.2904208  55.0528446  86.3662205 117.8023513
  54.6835667  85.7599199 116.4652230  54.9148054  84.7979003 110.8007030
  54.1315576  85.3400683 110.8945254  55.6140799  85.3152983 111.2001271
  58.2244704  70.6073633 113.4441235  58.7213404  69.8543595 113.1242306
  57.4531686  70.6437949 112.8784445  66.0774462  76.3113998 115.0859527
  66.0664338  77.1938714 114.7153460  65.2091841  75.9585549 114.8914064
  57.5856958  85.4594067 119.4462367  58.2984930  86.0941532 119.3738269
  57.0946987  85.5557933 118.6302369  59.3074485  79.3645320 111.0179659
  58.3730764  79.4846782 110.8484363  59.4851153  78.4617787 110.7539669
  54.8079673  72.7491016 113.1712920  54.4377460  72.1962056 113.8593825
  55.3038765  72.1449149 112.6187920  62.6947036  75.2062639 111.5529693
  63.1607488  76.0390631 111.4789996  63.1454537  74.7407621 112.2574951
  52.6368871  83.2088511 120.2667938  53.3378331  83.8424994 120.4197332
  52.1663986  83.5503242 119.5063577  60.7623267  81.5506461 108.5515845
  61.0383111  81.4363055 109.4609719  59.8927766  81.1523945 108.5128018
  60.6663699  67.5743226 115.5920594  59.7526779  67.8047453 115.7602801
  61.0956800  67.6581670 116.4434627  60.4370157  75.7633118 118.0920488
  59.7841608  76.0109026 117.4372941  60.8150537  74.9497256 117.7582966
  57.3977331  85.7992811 112.1948659  57.5799726  84.9814467 112.6576411
  58.2210317  86.0160504 111.7573549  57.7319497  84.7260997 109.4563707
  58.2607263  84.2153451 108.8433869  57.9947716  84.4103527 110.3209240
  56.4857730  76.5052929 124.5786525  55.8098367  76.4047059 125.2488901
  57.3085364  76.3492143 125.0422523  48.2336589  82.7424866 117.1999041
  48.8190026  81.9968554 117.3326945  48.0361428  83.0528823 118.0835704
  51.0875245  85.7776113 112.2161483  50.4185620  86.2622241 111.7325523
  50.9488114  86.0245334 113.1304861  42.8254244  75.3130466 115.9203484
  42.8638344  74.7794057 116.7140602  42.3194537  74.7865672 115.3014461
  55.2280513  87.8119857 118.8144141  55.7798821  87.9751478 119.5793227
  55.5686707  88.4024295 118.1424166  50.2045007  70.1595007 119.4166026
  50.2686333  71.0209837 119.0043424  50.1412127  69.5469008 118.6838385
  49.6797279  72.2318139 123.0639060  50.3069318  71.8495216 123.6776585
  48.8225198  72.0132341 123.4294753  46.4562822  74.0394568 108.9957415
  46.7516263  73.1305247 108.9424469  45.5550858  74.0182308 108.6738417
  58.3648901  85.7601832 115.8007823  58.2400040  84.9591572 115.2918769
  59.0227992  86.2548026 115.3121793  49.9857069  72.1150565 114.9784964
  49.2643655  72.7286532 114.8392437  50.7750325  72.6508330 114.9001610
  60.4283809  83.5610852 117.4287374  59.4814144  83.4416204 117.3565700
  60.7766582  82.6733350 117.5113635  52.7883382  69.4504991 121.2525615
  53.3117784  69.6967288 122.0151925  52.5695716  70.2825026 120.8328753
  48.1850663  71.7208666 109.1196740  47.8563370  70.8406045 108.9371846
  48.5390034  71.6656335 110.0073129  57.4330242  83.3563569 113.6291726
  57.2855205  82.4280276 113.8099296  58.2583736  83.3783659 113.1448801
  51.2992487  72.0081636 109.4872218  51.6388559  72.5367557 108.7650826
  51.7464607  72.3462042 110.2630784  61.0364364  84.1792127 114.7156599
  61.9610912  83.9734989 114.5781050  60.8679667  83.9308528 115.6245940
  53.9935927  70.3918686 118.9375286  53.6532748  69.5926499 119.3395966
  53.2874934  70.6920397 118.3652119  54.6452399  67.4767999 117.3902609
  55.4678469  67.0028477 117.2681499  54.8890463  68.2558483 117.8901295
  53.2860634  70.5056257 107.6865511  54.0068996  70.8837510 107.1829228
  52.6625938  71.2245134 107.7900489  57.4291757  71.2101406 108.6223843
  57.6455371  72.0926044 108.3212671  56.9485824  70.8187620 107.8929485
  52.1690978  74.1687119 115.1994588  52.0235559  74.4827422 116.0918869
  51.6916182  74.7872020 114.6465486  54.0287361  71.1589667 115.2475477
  54.0148930  70.2630761 114.9107775  54.7459789  71.1660331 115.8813763
  55.8813492  71.5927008 117.2928605  55.6231269  72.5144078 117.2912935
  55.3498532  71.1957442 117.9829069  60.8259680  84.6977795 110.0718690
  60.9996558  84.1324217 109.3192542  61.3188572  85.4978690 109.8898180
  46.6436640  76.7092464 118.1382249  46.0990108  77.4852272 118.2702523
  47.5215990  77.0563268 117.9801370  53.4324257  70.0404048 110.5163047
  53.5540168  69.1120694 110.7153935  53.1426299  70.0542734 109.6041363
  56.3015447  67.7258958 113.6529767  56.3237144  67.7898291 112.6981747
  56.7183506  66.8863467 113.8470273  66.6799071  77.4614218 111.6908990
  67.1230218  76.7121543 111.2928113  65.8025582  77.4524354 111.3082722
  61.8134853  84.0144559 107.1715588  62.5085757  84.6351252 107.3902903
  62.1558003  83.1639910 107.4467966  47.4302662  75.8362360 121.0312406
  46.6884398  75.9844995 121.6177036  47.1095406  76.0970626 120.1679155
  63.7126276  81.4644265 108.7002919  64.2377600  81.8031537 107.9752239
  63.6248628  80.5291280 108.5166054  55.3746325  85.3778338 120.8292796
  55.6833451  85.1327485 121.7015495  56.1721807  85.5824977 120.3411666
  55.3966937  87.5316248 113.0598172  54.9571927  87.0392627 113.7531029
  56.1475054  86.9889216 112.8190247  47.8759276  83.7227789 113.0622800
  48.7017296  83.4231561 112.6821444  47.5253328  82.9535411 113.5112589
  52.8440809  83.0754257 115.1320474  52.2220818  82.4124962 114.8322702
  53.5145676  83.1015389 114.4494122  46.0767881  81.6414115 114.0211734
  45.2399789  81.2136290 113.8395735  46.0491526  81.8346559 114.9582525
  52.9165336  71.5536045 124.7252980  52.9653492  72.4298168 124.3430750
  53.4587851  71.0113438 124.1524623  63.5218057  78.9469635 121.3186846
  63.5716062  78.7819642 122.2602368  63.4131980  78.0796894 120.9284726
  60.8121819  74.9300563 122.6346152  61.7131682  74.7907028 122.3430150
  60.8869794  75.0955018 123.5744330  55.1464625  72.3067417 121.4799339
  54.2767934  72.6000984 121.2081927  55.3824105  72.8907862 122.2006602
  65.0236254  81.3666576 121.5628867  64.7321062  81.7296557 122.3992328
  64.4108385  80.6533584 121.3842199  66.2231936  78.9319456 114.0831437
  67.0578828  79.3709260 114.2468998  66.3591065  78.4558109 113.2639683
  63.2723442  76.4899191 120.0308925  63.7477564  76.6826837 119.2227776
  62.3489007  76.5458377 119.7852309  50.1606949  77.6523358 109.6140003
  49.9152991  76.7485688 109.8120213  50.3302863  77.6540508 108.6719481
  57.8503659  68.5247034 118.9964759  58.3685602  69.2608061 118.6711248
  57.4958791  68.8311028 119.8311518  49.4302596  73.3851716 107.1126165
  48.7371841  73.4596071 106.4566201  49.1854348  72.6212059 107.6347682
  58.1016253  64.9447317 114.5165656  58.3818007  64.2770506 115.1426082
  58.8866860  65.1376413 114.0040319  55.9049721  84.1206311 106.0790682
  55.3323688  84.7396498 105.6261154  56.4782515  84.6705673 106.6130604
  61.9725111  73.3664951 118.2637231  62.9242534  73.4663049 118.2849455
  61.8028562  72.5743219 118.7735315  59.9939491  70.4520534 118.4496632
  59.3989423  70.7325547 117.7543120  59.7089187  70.9414435 119.2213373
  59.1246981  84.4043461 107.2099264  60.0577654  84.3389023 107.4132140
  59.0370194  85.2399728 106.7513797  61.7534998  83.7209331 104.1703212
  61.6748629  83.3869195 105.0638970  62.5744665  84.2131099 104.1694684
  64.4513189  76.5871071 117.3779530  64.4189509  75.6487071 117.5639214
  65.0613813  76.6655107 116.6445355  56.2896520  75.4567124 103.4206734
  57.2355624  75.3273332 103.4895152  55.9110765  74.7181785 103.8976163
  64.6007677  73.3782114 117.4237813  64.0846726  72.5940571 117.2367742
  65.4847626  73.0500831 117.5884333  62.2618404  67.1223130 113.3833626
  62.0643225  66.8138218 114.2676958  62.8718110  67.8484769 113.5131556
  70.2689739  77.6487077 116.5185567  70.9993127  77.3872366 117.0793270
  69.6596684  76.9115799 116.5587635  68.3505036  75.7894940 117.1160018
  67.6238199  75.6550905 116.5076510  67.9352323  76.0971769 117.9216736
  56.1735212  79.5084870 124.8807391  57.0938222  79.6863469 125.0747438
  56.1384795  78.5640915 124.7287091  54.4739437  73.3817100 103.3561620
  53.5670892  73.0850213 103.4324333  54.7515418  73.0846918 102.4895906
  45.3917377  74.7023463 113.8060666  45.0720162  73.8488772 113.5135040
  44.8450805  74.9172042 114.5618633  49.1697285  77.4185904 117.5230172
  49.3883295  78.3503012 117.5418206  49.5823059  77.0593879 118.3084976
  56.0901503  67.9253990 109.5105861  55.2802231  67.5801075 109.8861107
  56.7785920  67.6161533 110.0993472  58.0192051  67.0032036 111.1330158
  58.5723090  67.4227490 111.7920181  58.2562137  66.0767785 111.1753114
  54.0425150  72.9919110 126.9132921  53.9421877  73.9413467 126.8445013
  53.8246692  72.6637349 126.0408992  45.2605637  78.3226375 115.7753788
  44.5669109  77.9080328 115.2623742  46.0078628  78.3646911 115.1787206
  61.3970858  69.1132562 110.6408822  60.8169527  69.7717366 110.2586874
  61.1306791  68.2909906 110.2296239  59.8474424  68.5137619 112.8430142
  60.3474203  68.6254154 112.0344461  60.4910032  68.2098672 113.4830951
  53.9056420  76.4216249 125.7297983  53.4223502  77.2216609 125.9361872
  53.9917359  76.4324194 124.7765427  47.1742380  78.2544629 113.6519802
  47.1513068  78.3532316 112.7001686  47.4843016  79.1009779 113.9736969
  49.8329758  80.3120784 117.7666417  50.7873011  80.2804726 117.6996348
  49.6342281  79.8511407 118.5816643  50.4229140  78.8821900 120.3337215
  51.2422029  79.3765978 120.3572052  50.6965948  77.9653868 120.3054782
  60.1795736  71.2732652 109.6965170  59.2921591  71.5582303 109.4785365
  60.5949725  71.1126415 108.8492447  63.5310272  71.2979173 113.4119509
  64.3070662  71.7875625 113.6844126  62.8058406  71.7237227 113.8691379
  65.9682831  72.0106792 114.4693450  66.5627322  71.7702528 113.7586758
  66.0409414  71.2913923 115.0966986  48.1879986  85.8540403 114.7836615
  48.0534454  85.0940804 114.2174613  47.7712049  86.5781303 114.3165404
  59.3238949  81.0377327 103.7913190  60.0274800  81.2427329 104.4070846
  58.6001598  81.6054089 104.0562274  60.1536760  76.7887188 109.9115460
  60.0971961  77.2455739 109.0723093  60.7065102  76.0277873 109.7338303
  63.9641566  72.5776920 110.7365580  63.7078500  72.1773555 111.5673787
  63.3394434  73.2920714 110.6115719  68.2753904  75.3172993 113.2436871
  67.7153462  75.3866182 114.0168433  67.6697407  75.1413978 112.5236367
  51.3449112  86.7509720 114.9955057  51.2281497  87.6955153 114.8933748
  50.5241559  86.4483282 115.3840857  61.2325647  81.4759856 105.8411650
  62.0671251  81.0441054 105.6589125  61.0709990  81.3041870 106.7688545
  60.8871539  77.9791969 107.2067989  60.8320343  77.8136241 106.2656433
  60.2617594  78.6868002 107.3630179  45.6764054  73.2160034 121.0329412
  46.3222918  72.7058988 121.5216637  45.4681205  73.9528715 121.6072837
  54.1967665  67.4800078 106.7853308  54.1846334  68.4241918 106.9421579
  55.0891086  67.2970224 106.4912769  52.3703626  87.4037982 118.2110986
  53.2730873  87.4361592 118.5277481  52.1440997  86.4738433 118.2257322
  54.1257229  86.1568969 114.8721064  53.1752860  86.1570830 114.7585437
  54.4289715  85.4101703 114.3557099  58.0119784  64.0742855 111.0399245
  57.2452180  63.5201342 111.1855927  58.4230489  64.1464724 111.9013396
  50.0161545  70.3627651 125.1304426  50.8793007  70.0064455 125.3407750
  49.4426956  70.0241545 125.8179830  66.6699628  91.9456935 115.8728352
  66.3318140  91.8298000 114.9848886  67.5389396  91.5448100 115.8529358
  62.5286444  93.7992412 111.8625242  61.9651309  93.7082348 111.0941530
  62.4138839  92.9792316 112.3427735  60.0750876  95.2943603 114.7009463
  60.8672168  94.9534428 114.2855762  60.3147526  95.4038578 115.6211616
  68.1086003  97.4663379 107.1739707  67.4573982  98.0517460 106.7873721
  68.9030365  97.9969574 107.2334745  62.0341630  94.5552516 107.5726842
  62.8072506  94.0081503 107.4339718  62.3867029  95.4196766 107.7841303
  64.3707908  90.7145182 105.2045292  64.6233428  90.1926704 104.4428755
  63.4332467  90.5511328 105.3071975  69.4151190  89.7180961 113.0120035
  70.2014280  89.3000384 112.6610452  69.6789895  90.6227053 113.1801683
  69.5861268  95.1553811 107.7108692  68.9507101  95.2288438 108.4229596
  69.2558674  95.7447410 107.0327771  74.8159618  89.6556194 113.9153013
  75.5484790  89.0855411 114.1490843  74.0598973  89.2677794 114.3559519
  64.0904196  92.6173288 107.4069667  63.9740455  91.9418192 108.0750751
  64.2006456  92.1305662 106.5901820  66.4335737  92.0783436 111.1116356
  66.0693945  91.5514057 111.8229277  67.2902853  91.6881905 110.9382841
  72.3385038  83.3677768 118.3747622  72.0068363  84.2373179 118.1508837
  71.7430651  83.0514052 119.0541652  66.0741224  87.1073335 106.1077704
  66.2415627  87.9753572 106.4748175  65.8838393  87.2700617 105.1838994
  62.2829039  92.0204111 113.8080239  61.3579535  91.8880325 114.0157931
  62.5313452  92.7998330 114.3050182  66.0530445  89.5630993 107.0924371
  65.9330070  90.0088044 107.9309851  65.3583034  89.9116310 106.5337909
  59.6437850  91.6637385 114.6424028  59.7730231  91.9171863 115.5563440
  58.9635301  92.2565093 114.3228683  63.8137337 102.3334634 110.7414502
  63.7361367 103.2842460 110.8202983  63.2098981 101.9880507 111.3989429
  71.7515511  90.0352466 107.9204705  72.6633367  90.2679853 107.7452403
  71.2425158  90.6189510 107.3579784  69.0951486  86.2110502 116.1694566
  68.2335965  86.5091755 116.4611304  69.1213921  86.4280901 115.2375599
  65.9113056  94.7552692 112.5768372  66.3751401  95.0340395 111.7872994
  65.6469854  93.8536137 112.3941462  62.8037137  94.3024174 115.5148135
  63.3738494  94.7311442 114.8765620  63.3945248  94.0206759 116.2132321
  64.8481942  90.8775845 109.3857937  65.5505985  91.3296888 109.8531863
  64.5162570  90.2359664 110.0137830  58.5907276  89.1359397 114.6875070
  57.8006330  89.3916926 114.2115181  59.0818523  89.9507735 114.7927111
  60.5422021  89.5003977 111.6458547  59.7453184  89.6122671 112.1642043
  60.3147613  89.8390629 110.7799438  56.8744979  89.3889888 117.1190061
  57.1253017  90.2736898 117.3847637  57.4104527  89.2094489 116.3465153
  66.0875706  97.6916787 109.4620042  65.9521381  98.5368323 109.8904890
  66.6285519  97.8936065 108.6985976  59.5405104  95.2092225 110.0347967
  60.0529624  96.0035476 110.1853532  60.1927816  94.5118516 109.9681569
  61.3499988  98.3257982 112.1170720  61.5266617  99.2475946 111.9291704
  62.1456822  98.0116401 112.5465100  69.4368170  81.2147349 117.9918936
  69.0932439  82.1048991 117.9158046  69.8047132  81.0249007 117.1288521
  57.5054020  93.5380880 110.8107538  58.3429242  93.9477888 110.5941245
  57.6832288  92.5980322 110.7807732  69.4018452  91.2055960 106.4991371
  68.8865076  91.9760565 106.7379758  69.1295761  90.5321097 107.1224432
  66.9865564  86.0505661 111.5576609  66.1307160  85.6612512 111.3782248
  67.3992515  86.1297622 110.6976395  68.5164710  83.5852004 115.9568169
  68.0129506  83.5482140 115.1435974  68.8095317  84.4944747 116.0164825
  64.7607596  83.6690734 114.9634351  65.6260593  83.4733543 114.6040240
  64.8285105  83.4401086 115.8903707  74.3752727  93.9588315 108.4344544
  73.5982169  93.6199475 107.9899706  75.0544208  93.9640938 107.7599509
  69.1904756  89.0783053 108.3251152  68.8854891  89.3929202 109.1761295
  70.1435198  89.1564472 108.3678485  67.6351188  95.2373276 109.9744106
  67.1072549  94.5026035 109.6617343  67.1338690  96.0147952 109.7284074
  62.3669915  85.8992942 112.3350717  62.9413667  85.6768124 111.6023910
  62.9540898  85.9681637 113.0879319  71.4249492  91.7866669 113.1415094
  71.9381374  92.4196661 113.6436804  72.0750716  91.1867865 112.7758454
  62.6939502  87.9297403 106.3546603  61.8576814  88.2672090 106.6755877
  62.5544272  87.7946383 105.4173740  64.6692583  82.7734191 111.0625787
  64.0156995  82.4583208 110.4382402  64.6273057  82.1509931 111.7885610
  65.7803788  93.0553486 102.9779079  64.8730849  92.8242740 103.1770228
  66.2774820  92.2591105 103.1653060  68.6871867 101.7650993 105.8975765
  68.0133565 102.0682690 106.5060723  69.0737689 102.5680074 105.5481222
  67.9030323  89.2616125 115.3873434  66.9852885  89.4831072 115.2295122
  68.3190467  89.3362435 114.5285142  68.6865371  90.6607540 110.5176115
  69.4337190  91.1728937 110.2083237  68.9556961  90.3391593 111.3780508
  66.9592021  93.1566081 107.5003069  66.0503240  92.8725114 107.5975539
  66.9887105  93.5765160 106.6406376  71.1344208  87.6964657 112.4994904
  70.3966965  87.1842043 112.8305147  71.3870982  87.2565038 111.6878181
  71.2355835  80.4740909 113.0936673  71.5414712  79.6138272 112.8062588
  71.9608440  81.0658529 112.8935667  57.5280192  90.8771595 111.4818271
  57.3304591  90.2840956 110.7569338  56.9726856  90.5723805 112.1994210
  65.5076915  90.7694702 113.6012864  65.5625525  89.8168538 113.5255341
  64.6968117  90.9254141 114.0854163  66.6568109  94.6974825 104.8391148
  66.2187539  93.9810684 104.3796785  67.3978550  94.9250939 104.2776239
  63.4469275  89.3871761 111.3603243  62.6337141  89.6865932 111.7668435
  63.9428269  88.9927450 112.0777725  74.7741224  92.9732022 110.8967466
  74.6359122  93.1633618 109.9688655  74.4177443  93.7351405 111.3535517
  62.9383350  86.9590117 116.9764478  63.5782729  86.8178876 116.2787441
  62.1060880  86.6724630 116.6003080  63.7143654  96.2592547 113.0899471
  64.5084252  95.7642867 112.8882046  63.0035346  95.7310410 112.7267176
  60.0226417  90.4035629 109.1659223  59.0924005  90.3420084 109.3829185
  60.1183889  89.8811582 108.3695865  59.9411966  86.9290442 111.7537465
  60.2018784  87.8435775 111.6446625  60.7629139  86.4614884 111.9034078
  61.4136892  88.3428199 118.9236289  62.0859945  88.1345561 118.2748938
  60.5866678  88.1450285 118.4841522  66.8863082 101.9330666 108.1122844
  67.0614837 101.4618709 108.9268467  66.1995870 102.5596432 108.3404105
  70.7779337  93.5559206 104.4323205  70.1608507  92.8306034 104.3356258
  70.3095825  94.3168567 104.0890279  62.5677882  87.7744631 103.5544509
  61.6907349  87.6533431 103.1906756  63.0435636  86.9830709 103.3023398
  54.0880023  92.5621790 113.6486017  54.7751062  92.2483520 113.0607032
  53.9328151  93.4663155 113.3753268  58.8914745  87.4511987 118.0771040
  58.8072933  86.8437656 117.3421450  58.0697451  87.9421005 118.0780537
  65.7541808 100.1270921 110.8007030  64.9709330 100.6692601 110.8945254
  66.4534554 100.6444901 111.2001271  69.0638459  85.9365550 113.4441235
  69.5607158  85.1835513 113.1242306  68.2925440  85.9729867 112.8784445
  70.1468239  94.6937238 111.0179659  69.2124518  94.8138700 110.8484363
  70.3244908  93.7909704 110.7539669  65.6473427  88.0782933 113.1712920
  65.2771215  87.5253974 113.8593825  66.1432520  87.4741067 112.6187920
  73.5340791  90.5354557 111.5529693  74.0001243  91.3682549 111.4789996
  73.9848291  90.0699538 112.2574951  71.6017022  96.8798378 108.5515845
  71.8776866  96.7654973 109.4609719  70.7321520  96.4815863 108.5128018
  71.5057453  82.9035144 115.5920594  70.5920533  83.1339371 115.7602801
  71.9350555  82.9873588 116.4434627  68.5713251 100.0552914 109.4563707
  69.1001018  99.5445369 108.8433869  68.8341471  99.7395444 110.3209240
  53.6647999  90.6422384 115.9203484  53.7032098  90.1085974 116.7140602
  53.1588292  90.1157589 115.3014461  61.0438761  85.4886924 119.4166026
  61.1080088  86.3501755 119.0043424  60.9805881  84.8760926 118.6838385
  57.2956576  89.3686486 108.9957415  57.5910017  88.4597164 108.9424469
  56.3944612  89.3474225 108.6738417  60.8250823  87.4442482 114.9784964
  60.1037409  88.0578450 114.8392437  61.6144079  87.9800247 114.9001610
  59.0244418  87.0500583 109.1196740  58.6957124  86.1697962 108.9371846
  59.3783789  86.9948252 110.0073129  62.1386241  87.3373553 109.4872218
  62.4782314  87.8659475 108.7650826  62.5858362  87.6753959 110.2630784
  64.8329682  85.7210604 118.9375286  64.4926502  84.9218417 119.3395966
  64.1268688  86.0212315 118.3652119  65.4846154  82.8059916 117.3902609
  66.3072223  82.3320395 117.2681499  65.7284217  83.5850400 117.8901295
  64.1254388  85.8348175 107.6865511  64.8462751  86.2129428 107.1829228
  63.5019692  86.5537052 107.7900489  68.2685511  86.5393324 108.6223843
  68.4849125  87.4217962 108.3212671  67.7879578  86.1479537 107.8929485
  63.0084732  89.4979037 115.1994588  62.8629313  89.8119340 116.0918869
  62.5309936  90.1163937 114.6465486  64.8681115  86.4881585 115.2475477
  64.8542684  85.5922678 114.9107775  65.5853543  86.4952249 115.8813763
  66.7207246  86.9218925 117.2928605  66.4625024  87.8435996 117.2912935
  66.1892286  86.5249360 117.9829069  57.4830395  92.0384381 118.1382249
  56.9383863  92.8144189 118.2702523  58.3609744  92.3855186 117.9801370
  64.2718011  85.3695965 110.5163047  64.3933922  84.4412612 110.7153935
  63.9820054  85.3834651 109.6041363  67.1409202  83.0550876 113.6529767
  67.1630898  83.1190209 112.6981747  67.5577261  82.2155384 113.8470273
  72.6528607  99.3436477 107.1715588  73.3479512  99.9643169 107.3902903
  72.9951757  98.4931828 107.4467966  74.5520030  96.7936182 108.7002919
  75.0771355  97.1323455 107.9752239  74.4642383  95.8583198 108.5166054
  58.7153030  99.0519706 113.0622800  59.5411050  98.7523478 112.6821444
  58.3647082  98.2827329 113.5112589  56.9161635  96.9706033 114.0211734
  56.0793544  96.5428207 113.8395735  56.8885281  97.1638476 114.9582525
  63.2448070  96.9550098 108.6078934  63.3936191  97.6385562 107.9545607
  64.0514514  96.9355188 109.1228390  61.0000703  92.9815276 109.6140003
  60.7546745  92.0777606 109.8120213  61.1696618  92.9832426 108.6719481
  68.6897413  83.8538952 118.9964759  69.2079357  84.5899979 118.6711248
  68.3352546  84.1602945 119.8311518  60.2696351  88.7143633 107.1126165
  59.5765596  88.7887988 106.4566201  60.0248103  87.9503977 107.6347682
  68.9410007  80.2739235 114.5165656  69.2211761  79.6062424 115.1426082
  69.7260614  80.4668330 114.0040319  66.7443476  99.4498228 106.0790682
  66.1717443 100.0688416 105.6261154  67.3176269  99.9997590 106.6130604
  69.9640736  99.7335379 107.2099264  70.8971409  99.6680940 107.4132140
  69.8763948 100.5691645 106.7513797  72.5928752  99.0501249 104.1703212
  72.5142384  98.7161113 105.0638970  73.4138419  99.5423017 104.1694684
  67.1290274  90.7859041 103.4206734  68.0749379  90.6565249 103.4895152
  66.7504519  90.0473703 103.8976163  73.1012159  82.4515047 113.3833626
  72.9036980  82.1430135 114.2676958  73.7111864  83.1776686 113.5131556
  65.3133191  88.7109018 103.3561620  64.4064647  88.4142130 103.4324333
  65.5909172  88.4138836 102.4895906  56.2311132  90.0315381 113.8060666
  55.9113916  89.1780689 113.5135040  55.6844560  90.2463959 114.5618633
  60.0091039  92.7477822 117.5230172  60.2277049  93.6794930 117.5418206
  60.4216813  92.3885796 118.3084976  66.9295257  83.2545907 109.5105861
  66.1195985  82.9092992 109.8861107  67.6179674  82.9453451 110.0993472
  68.8585805  82.3323954 111.1330158  69.4116844  82.7519408 111.7920181
  69.0955892  81.4059702 111.1753114  64.0831976  85.5695953 103.4973599
  64.9451140  85.8950851 103.7569416  64.2682320  84.7827449 102.9846665
  56.0999392  93.6518293 115.7753788  55.4062863  93.2372245 115.2623742
  56.8472383  93.6938829 115.1787206  72.2364612  84.4424479 110.6408822
  71.6563282  85.1009283 110.2586874  71.9700545  83.6201824 110.2296239
  70.6868179  83.8429537 112.8430142  71.1867957  83.9546072 112.0344461
  71.3303787  83.5390590 113.4830951  58.0136134  93.5836546 113.6519802
  57.9906822  93.6824234 112.7001686  58.3236771  94.4301697 113.9736969
  71.0189491  86.6024570 109.6965170  70.1315346  86.8874220 109.4785365
  71.4343480  86.4418333 108.8492447  74.3704027  86.6271091 113.4119509
  75.1464417  87.1167543 113.6844126  73.6452161  87.0529145 113.8691379
  76.8076585  87.3398710 114.4693450  77.4021076  87.0994446 113.7586758
  76.8803169  86.6205840 115.0966986  70.1632704  96.3669244 103.7913190
  70.8668554  96.5719247 104.4070846  69.4395353  96.9346006 104.0562274
  70.9930514  92.1179106 109.9115460  70.9365716  92.5747657 109.0723093
  71.5458857  91.3569790 109.7338303  74.8035320  87.9068837 110.7365580
  74.5472254  87.5065473 111.5673787  74.1788188  88.6212631 110.6115719
  72.0719401  96.8051774 105.8411650  72.9065005  96.3732972 105.6589125
  71.9103744  96.6333787 106.7688545  71.7265294  93.3083887 107.2067989
  71.6714097  93.1428158 106.2656433  71.1011349  94.0159920 107.3630179
  56.5157809  88.5451951 121.0329412  57.1616672  88.0350905 121.5216637
  56.3074960  89.2820633 121.6072837  65.0361419  82.8091996 106.7853308
  65.0240089  83.7533836 106.9421579  65.9284841  82.6262141 106.4912769
  68.8513538  79.4034773 111.0399245  68.0845934  78.8493259 111.1855927
  69.2624243  79.4756641 111.9013396  73.5333257 103.2589321 106.3546603
  72.6970569 103.5964007 106.6755877  73.3938026 103.1238301 105.4173740
  73.4071637 103.1036548 103.5544509  72.5301103 102.9825349 103.1906756
  73.8829390 102.3122627 103.3023398  71.1090105 104.0435551 107.1126165
  70.4159350 104.1179906 106.4566201  70.8641857 103.2795895 107.6347682
  76.1526946 104.0400935 103.3561620  75.2458401 103.7434048 103.4324333
  76.4302927 103.7430753 102.4895906  74.9225731 100.8987871 103.4973599
  75.7844895 101.2242769 103.7569416  75.1076075 100.1119366 102.9846665
  75.8755174  98.1383914 106.7853308  75.8633843  99.0825753 106.9421579
  76.7678595  97.9554059 106.4912769  25.3296850  17.4545445  92.6221072
  24.6558549  17.7577142  93.2306030  25.7162672  18.2574526  92.2726529
  27.4204320   9.2453658  91.1568512  26.8033490   8.5200486  91.0601564
  26.9520808  10.0063018  90.8135586  29.2953591  15.0330929  93.8960895
  29.9904495  15.6537621  94.1148210  29.6376741  14.1826280  94.1713273
  23.3868459  15.1392680  92.8035988  22.8142426  15.7582868  92.3506460
  23.9601253  15.6892042  93.3375910  26.6065719  15.4229831  93.9344571
  27.5396392  15.3575392  94.1377446  26.5188932  16.2586097  93.4759103
  29.2353736  14.7395701  90.8948518  29.1567367  14.4055564  91.7884276
  30.0563402  15.2317469  90.8939991  26.8057687  12.0563696  90.5158497
  27.5093537  12.2613699  91.1316152  26.0820336  12.6240458  90.7807580
  28.7144385  12.4946225  92.5656957  29.5489989  12.0627424  92.3834431
  28.5528728  12.3228239  93.4933851  37.3428660  23.0115877 102.6612133
  37.9807070  22.8922624 101.9575474  37.2249503  23.9596721 102.7200086
  34.1518366  22.9643305 102.5973658  33.8136878  22.8484369 101.7094193
  35.0208134  22.5634470 102.5774664  30.0105182  24.8178781  98.5870549
  29.4470047  24.7268718  97.8186837  29.8957577  23.9978686  99.0673042
  35.5904740  28.4849749  93.8985014  34.9392720  29.0703829  93.5119028
  36.3849103  29.0155944  93.9580051  29.5160368  25.5738886  94.2972148
  30.2891244  25.0267873  94.1585024  29.8685767  26.4383135  94.5086610
  31.8526645  21.7331552  91.9290598  32.1052166  21.2113073  91.1674061
  30.9151205  21.5697697  92.0317282  36.8969928  20.7367330  99.7365341
  37.6833018  20.3186754  99.3855759  37.1608633  21.6413423  99.9046990
  37.0680006  26.1740181  94.4353998  36.4325839  26.2474807  95.1474903
  36.7377412  26.7633780  93.7573078  42.2978355  20.6742564 100.6398320
  43.0303527  20.1041780 100.8736149  41.5417711  20.2864164 101.0804826
  31.5722934  23.6359658  94.1314973  31.4559192  22.9604561  94.7996058
  31.6825194  23.1492032  93.3147126  33.9154475  23.0969805  97.8361662
  33.5512682  22.5700426  98.5474584  34.7721591  22.7068274  97.6628148
  33.5559962  18.1259705  92.8323011  33.7234364  18.9939941  93.1993482
  33.3657131  18.2886987  91.9084300  36.3135295  26.5876684 104.4988841
  36.0136018  27.4901723 104.3904649  35.9686355  26.3208867 105.3509994
  39.7132439  19.1059224 102.1786279  38.8049316  19.0374632 101.8845040
  39.6620035  19.5831169 103.0068104  33.5349183  20.5817362  93.8169678
  33.4148808  21.0274413  94.6555158  32.8401771  20.9302680  93.2583216
  31.2956075  33.3521004  97.4659809  31.2180105  34.3028829  97.5448290
  30.6917719  33.0066877  98.1234735  39.2334249  21.0538835  94.6450012
  40.1452105  21.2866222  94.4697709  38.7243896  21.6375880  94.0825090
  37.8403831  26.0364654 102.0363593  37.2112694  26.2010368 101.3339661
  37.4529494  26.4506263 102.8074557  41.7193063  26.9719092  99.3907957
  41.0344101  27.3517993  98.8404990  41.8036913  27.5814418 100.1239905
  33.3931793  25.7739062  99.3013678  33.8570139  26.0526765  98.5118301
  33.1288591  24.8722507  99.1186769  32.3300679  21.8962214  96.1103244
  33.0324723  22.3483258  96.5777170  31.9981308  21.2546033  96.7383137
  40.0889823  27.4951006 104.1625658  40.9107267  27.0931194 103.8808340
  40.0852226  27.3919240 105.1141774  48.1795816  23.8389755 100.5110629
  47.4259524  23.2697153 100.3554634  48.3143357  23.8052419 101.4581264
  33.5694444  28.7103157  96.1865349  33.4340119  29.5554693  96.6150197
  34.1104256  28.9122435  95.4231283  27.0223841  26.2278595  96.7593274
  27.5348362  27.0221845  96.9098839  27.6746554  25.5304886  96.6926875
  28.8318726  29.3444351  98.8416027  29.0085354  30.2662316  98.6537011
  29.6275560  29.0302771  99.2710407  29.9550042  30.8622525 104.8426369
  30.5057467  30.7339588 104.0703363  29.1161517  31.1617414 104.4921262
  24.9872758  24.5567249  97.5352844  25.8247980  24.9664258  97.3186552
  25.1651026  23.6166692  97.5053038  36.8837190  22.2242330  93.2236677
  36.3683814  22.9946935  93.4625065  36.6114499  21.5507466  93.8469739
  34.4684301  17.0692031  98.2821916  33.6125898  16.6798881  98.1027554
  34.8811253  17.1483992  97.4221701  41.8571464  24.9774685  95.1589851
  41.0800907  24.6385844  94.7145013  42.5362945  24.9827308  94.4844816
  36.6723493  20.0969422  95.0496459  36.3673629  20.4115571  95.9006602
  37.6253936  20.1750842  95.0923792  35.1169925  26.2559645  96.6989412
  34.5891287  25.5212405  96.3862650  34.6157428  27.0334322  96.4529381
  40.0962771  24.4508666 101.8156459  39.4386446  25.1407927 101.9036587
  40.9003171  24.8405098 102.1590445  38.9068230  22.8053039  99.8660401
  39.4200112  23.4383030 100.3682110  39.5569454  22.2054234  99.5003761
  30.1758240  18.9483773  93.0791909  29.3395552  19.2858459  93.4001184
  30.0363010  18.8132753  92.1419046  33.2622525  24.0739856  89.7024386
  32.3549587  23.8429109  89.9015534  33.7593557  23.2777475  89.8898367
  36.1690604  32.7837363  92.6221072  35.4952303  33.0869060  93.2306030
  36.5556426  33.5866443  92.2726529  36.1684109  21.6793910  97.2421421
  36.9155928  22.1915307  96.9328543  36.4375698  21.3577963  98.1025815
  34.4410759  24.1752451  94.2248376  33.5321978  23.8911483  94.3220845
  34.4705843  24.5951529  93.3651682  39.6730026  27.7859040  97.9939543
  39.2192353  26.9449950  98.0504734  39.0423993  28.4220438  98.3314323
  38.6162946  18.7151026  99.2240211  37.8785703  18.2028412  99.5550453
  38.8689719  18.2751408  98.4123487  38.1162966  29.6235537  98.9289361
  38.4085940  30.1840594  98.2101727  38.6261586  29.9164098  99.6842520
  32.9895653  21.7881071 100.3258171  33.0444263  20.8354908 100.2500648
  32.1786855  21.9440510 100.8099469  34.1386847  25.7161194  91.5636454
  33.7006277  24.9997053  91.1042092  34.8797288  25.9437309  91.0021546
  30.9288013  20.4058131  98.0848550  30.1155878  20.7052301  98.4913742
  31.4247007  20.0113820  98.8023032  33.0796591  30.4015888 100.0182815
  33.0372770  30.6276734  99.0891347  33.9959290  30.1679262 100.1668616
  42.2559962  23.9918391  97.6212773  42.1177860  24.1819987  96.6933962
  41.8996180  24.7537774  98.0780824  42.2829341  26.0594918 102.6324044
  42.7165848  25.9670207 103.4807098  42.9960922  26.0352419 101.9944060
  31.1962392  27.2778917  99.8144777  31.9902990  26.7829237  99.6127352
  30.4854084  26.7496780  99.4512483  36.0157236  29.6597012 104.1657145
  36.0694258  30.2287949 104.9334861  35.1472017  29.8298897 103.8011182
  27.5045155  21.4221999  95.8904530  26.5742743  21.3606454  96.1074492
  27.6002627  20.8997951  95.0941171  43.1444891  26.1018619 105.1656930
  43.3380781  27.0064429 105.4116205  43.0445509  25.6426038 105.9995515
  33.7733668  27.8507939 103.4942614  33.6344753  27.4826723 104.3668552
  32.9848264  28.3655578 103.3226572  34.3681820  32.9517035  94.8368151
  34.5433575  32.4805078  95.6513774  33.6814608  33.5782801  95.0649412
  35.3238883  27.2289542 100.8831452  34.9888715  27.1890311 101.7789102
  34.8242828  26.5634257 100.4101862  38.2598074  24.5745576  91.1568512
  37.6427245  23.8492404  91.0601564  37.7914563  25.3354936  90.8135586
  28.9342905  36.1006398 101.6108011  29.1739503  36.7324922 102.2887030
  28.0912101  35.7494438 101.8973370  30.0496620  18.7931000  90.2789816
  29.1726087  18.6719801  89.9152063  30.5254373  18.0017078  90.0268705
  33.4470767  31.9085520 104.0149515  33.3740938  32.7140492 104.5268820
  33.0048160  32.1077486 103.1897536  33.2360546  31.1457291  97.5252337
  32.4528068  31.6878971  97.6190561  33.9353291  31.6631270  97.9246578
  36.5457196  16.9551920 100.1686542  37.0425896  16.2021882  99.8487612
  35.7744178  16.9916237  99.6029751  44.3986954  22.6592286 101.8104833
  44.3876830  23.5417001 101.4398767  43.5304333  22.3063836 101.6159371
  35.9069450  31.8072355 106.1707674  36.6197422  32.4419819 106.0983575
  35.4159479  31.9036221 105.3547676  37.6286977  25.7123607  97.7424965
  36.6943256  25.8325070  97.5729670  37.8063646  24.8096074  97.4784975
  41.0159528  21.5540926  98.2774999  41.4819981  22.3868918  98.2035302
  41.4667029  21.0885908  98.9820258  39.0835760  27.8984748  95.2761152
  39.3595603  27.7841342  96.1855026  38.2140258  27.5002233  95.2373325
  35.7189824  32.1471099  98.9193965  35.9012218  31.3292755  99.3821717
  36.5422810  32.3638791  98.4818855  36.0531989  31.0739284  96.1809014
  36.5819755  30.5631738  95.5679176  36.3160209  30.7581814  97.0454547
  29.4087737  32.1254400  98.9406790  28.7398112  32.6100528  98.4570830
  29.2700607  32.3723621  99.8550168  33.5493006  34.1598144 105.5389448
  34.1011314  34.3229765 106.3038533  33.8899199  34.7502582 104.8669473
  24.7775314  20.3872855  95.7202722  25.0728755  19.4783534  95.6669775
  23.8763350  20.3660595  95.3983724  36.6861393  32.1080119 102.5253130
  36.5612532  31.3069859 102.0164076  37.3440484  32.6026313 102.0367100
  38.7496301  29.9089140 104.1532680  37.8026637  29.7894491 104.0811007
  39.0979074  29.0211638 104.2358942  26.5063156  18.0686953  95.8442047
  26.1775862  17.1884332  95.6617153  26.8602526  18.0134622  96.7318436
  35.7542735  29.7041856 100.3537032  35.6067697  28.7758563 100.5344602
  36.5796228  29.7261946  99.8694108  29.6204979  18.3559923  96.2117525
  29.9601051  18.8845844  95.4896133  30.0677099  18.6940329  96.9876091
  39.3576856  30.5270415 101.4401905  40.2823404  30.3213276 101.3026356
  39.1892160  30.2786816 102.3491247  31.6073126  16.8534544  94.4110817
  32.3281488  17.2315797  93.9074534  30.9838430  17.5723421  94.5145795
  35.7504249  17.5579693  95.3469150  35.9667863  18.4404331  95.0457978
  35.2698316  17.1665907  94.6174792  39.1472173  31.0456082  96.7963997
  39.3209050  30.4802504  96.0437849  39.6401064  31.8456977  96.6143487
  31.7536749  16.3882335  97.2408354  31.8752660  15.4598981  97.4399241
  31.4638791  16.4021021  96.3286669  45.0011564  23.8092505  98.4154296
  45.4442710  23.0599830  98.0173420  44.1238074  23.8002641  98.0328028
  40.1347345  30.3622846  93.8960895  40.8298250  30.9829539  94.1148210
  40.4770495  29.5118198  94.1713273  42.0338768  27.8122552  95.4248226
  42.5590092  28.1509825  94.6997546  41.9461121  26.8769567  95.2411360
  33.7179429  33.8794535  99.7843479  33.2784419  33.3870914 100.4776336
  34.4687546  33.3367503  99.5435554  26.1971768  30.0706076  99.7868107
  27.0229788  29.7709848  99.4066750  25.8465820  29.3013698 100.2357896
  31.1653301  29.4232544 101.8565781  30.5433310  28.7603249 101.5568008
  31.8358168  29.4493676 101.1739428  24.3980373  27.9892402 100.7457041
  23.5612281  27.5614577 100.5641042  24.3704018  28.1824846 101.6827832
  30.7266808  27.9736468  95.3324241  30.8754928  28.6571932  94.6790914
  31.5333251  27.9541558  95.8473697  43.3448746  27.7144863 108.2874174
  43.0533554  28.0774844 109.1237635  42.7320877  27.0011872 108.1087506
  44.5444428  25.2797743 100.8076744  45.3791320  25.7187547 100.9714304
  44.6803557  24.8036396  99.9884990  28.4819441  24.0001645  96.3385310
  28.2365483  23.0963975  96.5365520  28.6515356  24.0018796  95.3964788
  27.7515089  19.7330003  93.8371471  27.0584333  19.8074358  93.1811507
  27.5066840  18.9690346  94.3592988  34.2262214  30.4684598  92.8035988
  33.6536181  31.0874785  92.3506460  34.7995007  31.0183960  93.3375910
  37.4459473  30.7521748  93.9344571  38.3790146  30.6867310  94.1377446
  37.3582686  31.5878015  93.4759103  40.0747490  30.0687619  90.8948518
  39.9961122  29.7347482  91.7884276  40.8957157  30.5609386  90.8939991
  42.7725681  22.9349358 104.1024837  42.7402001  21.9965359 104.2884521
  43.3826305  23.0133395 103.3690662  34.6109012  21.8045411  90.1452041
  35.5568117  21.6751619  90.2140459  34.2323257  21.0660073  90.6221469
  48.5902231  23.9965365 103.2430874  49.3205620  23.7350653 103.8038577
  47.9809177  23.2594087 103.2832942  46.6717528  22.1373227 103.8405325
  45.9450692  22.0029192 103.2321817  46.2564815  22.4450056 104.6462043
  32.7951929  19.7295387  90.0806926  31.8883385  19.4328500  90.1569640
  33.0727910  19.4325205  89.2141212  34.4113995  14.2732277  96.2351168
  33.6014723  13.9279362  96.6106414  35.0998412  13.9639821  96.8238779
  31.5650714  16.5882322  90.2218905  32.4269878  16.9137221  90.4814723
  31.7501058  15.8013818  89.7091971  39.7183350  15.4610849  97.3654128
  39.1382019  16.1195653  96.9832181  39.4519283  14.6388193  96.9541546
  38.5008228  17.6210939  96.4210477  37.6134083  17.9060590  96.2030671
  38.9162217  17.4604703  95.5737754  41.8522764  17.6457460 100.1364816
  42.6283155  18.1353913 100.4089433  41.1270899  18.0715514 100.5936685
  44.2895323  18.3585079 101.1938757  44.8839814  18.1180815 100.4832065
  44.3621907  17.6392210 101.8212293  26.5092479  32.2018690 101.5081921
  26.3746947  31.4419091 100.9419919  26.0924541  32.9259590 101.0410710
  37.6451442  27.3855614  90.5158497  38.3487292  27.5905616  91.1316152
  36.9214091  27.9532376  90.7807580  38.4749252  23.1365475  96.6360767
  38.4184453  23.5934027  95.7968399  39.0277595  22.3756160  96.4583610
  42.2854058  18.9255207  97.4610886  42.0290992  18.5251843  98.2919094
  41.6606926  19.6399001  97.3361025  46.5966396  21.6651280  99.9682178
  46.0365954  21.7344470 100.7413740  45.9909899  21.4892265  99.2481674
  29.6661605  33.0988007 101.7200364  29.5493989  34.0433440 101.6179054
  28.8454051  32.7961569 102.1086163  39.5538139  27.8238143  92.5656957
  40.3883743  27.3919342  92.3834431  39.3922482  27.6520157  93.4933851
  39.2084031  24.3270256  93.9313296  39.1532835  24.1614528  92.9901740
  38.5830087  25.0346289  94.0875486  32.5180157  13.8278365  93.5098614
  32.5058827  14.7720205  93.6666885  33.4103579  13.6448511  93.2158076
  30.6916119  33.7516269 104.9356292  31.5943365  33.7839880 105.2522787
  30.4653489  32.8216720 104.9502628  32.4469721  32.5047256 101.5966371
  31.4965352  32.5049117 101.4830743  32.7502207  31.7579990 101.0802406
  48.1822414  38.3407794 102.6612133  48.8200824  38.2214542 101.9575474
  48.0643257  39.2888638 102.7200086  44.9912121  38.2935222 102.5973658
  44.6530632  38.1776287 101.7094193  45.8601889  37.8926387 102.5774664
  40.8498936  40.1470699  98.5870549  40.2863801  40.0560636  97.8186837
  40.7351331  39.3270603  99.0673042  45.4731904  39.4470074 108.5559864
  45.4620544  39.0522872 107.6840367  45.6352543  38.7136147 109.1493635
  38.3963368  41.6421890 101.4254770  39.1884660  41.3012715 101.0101069
  38.6360018  41.7516865 102.3456923  46.4298495  43.8141666  93.8985014
  45.7786475  44.3995747  93.5119028  47.2242858  44.3447861  93.9580051
  40.3554122  40.9030804  94.2972148  41.1284998  40.3559791  94.1585024
  40.7079521  41.7675053  94.5086610  42.1939165  42.2307186 107.5039048
  41.9029031  43.1352817 107.3885714  42.8296149  42.2723713 108.2183117
  43.1195372  39.6084034 104.0940407  43.7158944  39.3840057 103.3797370
  43.1770343  38.8668780 104.6965855  42.6920400  37.0623470  91.9290598
  42.9445921  36.5404991  91.1674061  41.7544959  36.8989615  92.0317282
  47.7363683  36.0659248  99.7365341  48.5226772  35.6478671  99.3855759
  48.0002387  36.9705340  99.9046990  47.9073760  41.5032098  94.4353998
  47.2719593  41.5766725  95.1474903  47.5771167  42.0925697  93.7573078
  53.1372110  36.0034481 100.6398320  53.8697282  35.4333698 100.8736149
  52.3811466  35.6156082 101.0804826  42.4116689  38.9651576  94.1314973
  42.2952947  38.2896479  94.7996058  42.5218949  38.4783950  93.3147126
  44.7548230  38.4261723  97.8361662  44.3906437  37.8992344  98.5474584
  45.6115346  38.0360192  97.6628148  50.6597530  29.7156055 105.0992929
  50.3280855  30.5851466 104.8754144  50.0643144  29.3992339 105.7786959
  44.3953717  33.4551622  92.8323011  44.5628119  34.3231859  93.1993482
  44.2050886  33.6178904  91.9084300  47.1529050  41.9168601 104.4988841
  46.8529773  42.8193640 104.3904649  46.8080109  41.6500785 105.3509994
  40.6041531  38.3682398 100.5325546  39.6792028  38.2358612 100.7403238
  40.8525944  39.1476617 101.0295488  50.5526194  34.4351142 102.1786279
  49.6443071  34.3666550 101.8845040  50.5013789  34.9123087 103.0068104
  44.3742937  35.9109280  93.8169678  44.2542563  36.3566331  94.6555158
  43.6795526  36.2594598  93.2583216  37.9650342  38.0115672 101.3669335
  38.0942723  38.2650151 102.2808747  37.2847794  38.6043380 101.0473990
  42.1349830  48.6812922  97.4659809  42.0573859  49.6320747  97.5448290
  41.5311473  48.3358794  98.1234735  44.6267059  35.8540787 110.1221176
  43.8500393  36.4134707 110.1124041  45.2657622  36.3397570 110.6436046
  52.4187840  32.6367580 103.9564153  51.7762220  32.9300113 103.3103947
  51.9142768  32.5220500 104.7617349  50.0728004  36.3830753  94.6450012
  50.9845860  36.6158140  94.4697709  49.5637651  36.9667797  94.0825090
  42.8813432  38.6626241 109.6839143  43.6228116  39.2011284 109.4073967
  42.1750417  39.2892529 109.8410695  48.3568771  40.8055381 108.2811304
  48.7652127  40.3637792 107.5365937  47.6346033  40.2308009 108.5345497
  44.7099841  35.7427988 105.6544861  45.5561037  36.1667401 105.7979510
  44.6498479  35.0861612 106.3483424  48.6797586  41.3656572 102.0363593
  48.0506448  41.5302286 101.3339661  48.2923248  41.7798181 102.8074557
  52.5586818  42.3011009  99.3907957  51.8737856  42.6809911  98.8404990
  52.6430667  42.9106336 100.1239905  47.8599287  33.4032356 107.3126035
  47.6160219  34.1574417 106.7760311  48.1359217  33.7817704 108.1473282
  49.8137749  39.9470968 105.9903301  50.0254645  40.5902728 105.3137682
  49.7667498  39.1133285 105.5225231  47.4163978  32.5588789 102.8939873
  46.5548457  32.8570043 103.1856610  47.4426413  32.7759188 101.9620905
  44.2325548  41.1030980  99.3013678  44.6963893  41.3818683  98.5118301
  43.9682346  40.2014424  99.1186769  41.1249629  40.6502461 102.2393442
  41.6950986  41.0789730 101.6010926  41.7157741  40.3685046 102.9377627
  43.1694434  37.2254132  96.1103244  43.8718477  37.6775176  96.5777170
  42.8375062  36.5837951  96.7383137  41.6174795  35.8165889 110.4854453
  40.9873456  36.4982170 110.7189850  41.5110883  35.7048970 109.5407591
  36.9119768  35.4837685 101.4120377  36.1218822  35.7395213 100.9360488
  37.4031015  36.2986023 101.5172418  50.9283577  42.8242924 104.1625658
  51.7501021  42.4223111 103.8808340  50.9245980  42.7211158 105.1141774
  38.8634513  35.8482264  98.3703854  38.0665676  35.9600958  98.8887349
  38.6360105  36.1868916  97.5044744  44.6940181  42.3726967 106.3186368
  44.7584613  42.8347374 107.1544540  43.9851105  41.7424332 106.4468678
  35.1957471  35.7368175 103.8435368  35.4465509  36.6215185 104.1092944
  35.7317019  35.5572777 103.0710460  59.0189570  39.1681672 100.5110629
  58.2653279  38.5989070 100.3554634  59.1537112  39.1344337 101.4581264
  44.4088198  44.0395075  96.1865349  44.2733873  44.8846610  96.6150197
  44.9498011  44.2414352  95.4231283  37.8617596  41.5570513  96.7593274
  38.3742116  42.3513763  96.9098839  38.5140309  40.8596803  96.6926875
  39.6712481  44.6736269  98.8416027  39.8479109  45.5954234  98.6537011
  40.4669314  44.3594688  99.2710407  43.8123499  31.5344534 110.4399961
  44.5533212  32.1351687 110.3604423  44.0441422  30.7922171 109.8818003
  38.9564837  36.7200901 108.7178190  38.8418352  35.8186158 109.0185289
  38.1009355  36.9664598 108.3663007  46.0356675  44.6618641 110.3165691
  45.5920529  43.8755020 109.9986595  46.6973888  44.8497792 109.6509582
  40.7943796  46.1914443 104.8426369  41.3451221  46.0631506 104.0703363
  39.9555272  46.4909332 104.4921262  48.1337913  44.9421441 108.3447092
  48.1156388  45.7630322 107.8527361  49.0557833  44.8175516 108.5697233
  44.5910967  42.4565571 109.1870600  45.1239304  41.6953859 108.9569908
  44.0625048  42.1639222 109.9294755  47.7580662  27.5625637 104.7164242
  47.4144931  28.4527278 104.6403353  48.1259625  27.3727294 103.8533827
  35.8266513  39.8859167  97.5352844  36.6641735  40.2956175  97.3186552
  36.0044780  38.9458609  97.5053038  47.7230945  37.5534248  93.2236677
  47.2077568  38.3238852  93.4625065  47.4508253  36.8799384  93.8469739
  45.3078056  32.3983948  98.2821916  44.4519652  32.0090799  98.1027554
  45.7205008  32.4775909  97.4221701  46.8377202  29.9330292 102.6813475
  46.3341998  29.8960427 101.8681281  47.1307809  30.8423034 102.7410132
  43.0820088  30.0169021 101.6879657  43.9473085  29.8211830 101.3285547
  43.1497597  29.7879373 102.6149014  52.6965219  40.3066602  95.1589851
  51.9194662  39.9677762  94.7145013  53.3756700  40.3119225  94.4844816
  47.5117248  35.4261340  95.0496459  47.2067384  35.7407489  95.9006602
  48.4647690  35.5042760  95.0923792  45.9563680  41.5851563  96.6989412
  45.4285041  40.8504323  96.3862650  45.4551183  42.3626239  96.4529381
  50.9356526  39.7800584 101.8156459  50.2780200  40.4699845 101.9036587
  51.7396925  40.1697016 102.1590445  40.6882407  32.2471229  99.0596024
  41.2626159  32.0246411  98.3269217  41.2753390  32.3159924  99.8124625
  49.7461985  38.1344956  99.8660401  50.2593866  38.7674948 100.3682110
  50.3963208  37.5346152  99.5003761  41.0151995  34.2775690  93.0791909
  40.1789307  34.6150377  93.4001184  40.8756764  34.1424670  92.1419046
  42.9905075  29.1212478  97.7871093  42.3369487  28.8061495  97.1627708
  42.9485549  28.4988219  98.5130916  44.1016280  39.4031773  89.7024386
  43.1943342  39.1721027  89.9015534  44.5987312  38.6069393  89.8898367
  47.0084359  48.1129281  92.6221072  46.3346058  48.4160977  93.2306030
  47.3950181  48.9158361  92.2726529  46.2242815  35.6094412 102.1118741
  45.3065377  35.8309359 101.9540429  46.6402959  35.6840722 101.2530448
  47.0077863  37.0085828  97.2421421  47.7549682  37.5207225  96.9328543
  47.2769453  36.6869880  98.1025815  45.2804513  39.5044368  94.2248376
  44.3715733  39.2203401  94.3220845  45.3099597  39.9243447  93.3651682
  50.5123781  43.1150958  97.9939543  50.0586108  42.2741868  98.0504734
  49.8817748  43.7512356  98.3314323  49.4556700  34.0442944  99.2240211
  48.7179457  33.5320330  99.5550453  49.7083474  33.6043325  98.4123487
  48.9556720  44.9527454  98.9289361  49.2479694  45.5132512  98.2101727
  49.4655341  45.2456015  99.6842520  49.5568328  26.8219196  99.8181980
  49.8627205  25.9616559  99.5307895  50.2820933  27.4136816  99.6180974
  35.8492684  37.2249882  98.2063578  35.6517084  36.6319243  97.4814644
  35.2939348  36.9202093  98.9239517  43.8289407  37.1172989 100.3258171
  43.8838017  36.1646825 100.2500648  43.0180609  37.2732428 100.8099469
  44.9780601  41.0453112  91.5636454  44.5400031  40.3288971  91.1042092
  45.7191042  41.2729227  91.0021546  41.7681767  35.7350049  98.0848550
  40.9549633  36.0344219  98.4913742  42.2640762  35.3405737  98.8023032
  43.9190345  45.7307806 100.0182815  43.8766524  45.9568652  99.0891347
  44.8353044  45.4971180 100.1668616  47.3655979  36.1991873 106.9163444
  47.7205367  36.4263346 107.7757909  48.0128110  36.5310250 106.2940699
  53.0953716  39.3210309  97.6212773  52.9571615  39.5111905  96.6933962
  52.7389935  40.0829692  98.0780824  41.2595842  33.3068404 103.7009785
  41.8995221  33.1657163 103.0032748  40.4273373  33.0202917 103.3248387
  53.1223096  41.3886836 102.6324044  53.5559602  41.2962125 103.4807098
  53.8354676  41.3644336 101.9944060  42.0356146  42.6070835  99.8144777
  42.8296745  42.1121155  99.6127352  41.3247838  42.0788698  99.4512483
  46.8550991  44.9888930 104.1657145  46.9088013  45.5579866 104.9334861
  45.9865772  45.1590815 103.8011182  38.3438910  36.7513916  95.8904530
  37.4136498  36.6898372  96.1074492  38.4396381  36.2289869  95.0941171
  38.2624459  33.2768729  98.4782772  38.5231276  34.1914062  98.3691932
  39.0841631  32.8093172  98.6279384  39.7349384  34.6906486 105.6481596
  40.4072437  34.4823848 104.9994245  38.9079170  34.4928572 105.2086828
  53.9838645  41.4310537 105.1656930  54.1774535  42.3356347 105.4116205
  53.8839263  40.9717956 105.9995515  45.6374956  31.3168427 107.6647257
  44.9902871  32.0158377 107.5711733  46.4075971  31.7504571 108.0323505
  49.0453754  41.5817279 110.7397810  48.8939260  41.3527831 109.8227894
  49.0358433  42.5387881 110.7529155  45.8139090  39.1549192 105.7244077
  46.7431150  39.3060352 105.5513044  45.3930120  39.2433213 104.8692723
  44.6127422  43.1799857 103.4942614  44.4738508  42.8118641 104.3668552
  43.8242018  43.6947496 103.3226572  45.2075574  48.2808953  94.8368151
  45.3827330  47.8096996  95.6513774  44.5208362  48.9074719  95.0649412
  46.1632637  42.5581459 100.8831452  45.8282470  42.5182229 101.7789102
  45.6636583  41.8926175 100.4101862  40.1376881  37.9649089 106.4084033
  39.9996679  37.2329328 107.0095572  41.0481805  37.8757989 106.1268221
  49.0991829  39.9037494  91.1568512  48.4820999  39.1784322  91.0601564
  48.6308317  40.6646854  90.8135586  42.7659182  37.6769049 105.8967713
  43.4758800  37.0362241 105.8554331  42.7228490  37.9281943 106.8193894
  50.7545960  44.6136402 108.8174292  50.6958507  43.9295622 108.1504875
  51.1565479  45.3555392 108.3654918  41.4788116  34.6634266 107.7163352
  40.9425473  34.2125005 108.3684949  40.8904824  34.7980175 106.9733817
  40.8890375  34.1222918  90.2789816  40.0119841  34.0011719  89.9152063
  41.3648128  33.3308996  90.0268705  50.7563368  42.5775986 107.0488272
  49.8690147  42.2401908 107.1714671  51.3261919  41.8459017 107.2857037
  32.4092515  38.9100078 100.3731323  33.0963555  38.5961808  99.7852339
  32.2540644  39.8141442 100.0998575  37.2127237  33.7990274 104.8016347
  37.1285426  33.1915944 104.0666757  36.3909943  34.2899292 104.8025843
  44.2864521  47.2377438 104.0149515  44.2134693  48.0432410 104.5268820
  43.8441914  47.4369404 103.1897536  44.0754301  46.4749208  97.5252337
  43.2921823  47.0170888  97.6190561  44.7747046  46.9923188  97.9246578
  47.3850951  32.2843838 100.1686542  47.8819650  31.5313800  99.8487612
  46.6137932  32.3208154  99.6029751  55.2380708  37.9884203 101.8104833
  55.2270585  38.8708919 101.4398767  54.3698088  37.6355754 101.6159371
  46.7463205  47.1364272 106.1707674  47.4591177  47.7711737 106.0983575
  46.2553233  47.2328138 105.3547676  48.4680732  41.0415525  97.7424965
  47.5337010  41.1616987  97.5729670  48.6457400  40.1387992  97.4784975
  43.9685920  34.4261221  99.8958227  43.5983707  33.8732261 100.5839132
  44.4645012  33.8219354  99.3433227  51.8553283  36.8832844  98.2774999
  52.3213735  37.7160836  98.2035302  52.3060783  36.4177826  98.9820258
  41.7975118  44.8858716 106.9913245  42.4984578  45.5195199 107.1442639
  41.3270233  45.2273447 106.2308884  49.9229514  43.2276665  95.2761152
  50.1989358  43.1133260  96.1855026  49.0534013  42.8294150  95.2373325
  49.8269946  29.2513431 102.3165901  48.9133025  29.4817658 102.4848108
  50.2563047  29.3351875 103.1679933  49.5976404  37.4403323 104.8165795
  48.9447854  37.6879231 104.1618248  49.9756784  36.6267461 104.4828272
  46.5583578  47.4763016  98.9193965  46.7405973  46.6584672  99.3821717
  47.3816564  47.6930709  98.4818855  46.8925744  46.4031201  96.1809014
  47.4213510  45.8923656  95.5679176  47.1553963  46.0873732  97.0454547
  45.6463977  38.1823134 111.3031832  44.9704614  38.0817264 111.9734207
  46.4691611  38.0262348 111.7667829  37.3942836  44.4195071 103.9244347
  37.9796273  43.6738759 104.0572251  37.1967675  44.7299027 104.8081011
  40.2481491  47.4546318  98.9406790  39.5791867  47.9392446  98.4570830
  40.1094361  47.7015539  99.8550168  31.9860491  36.9900671 102.6448790
  32.0244591  36.4564262 103.4385908  31.4800784  36.4635876 102.0259768
  44.3886760  49.4890062 105.5389448  44.9405068  49.6521683 106.3038533
  44.7292954  50.0794499 104.8669473  39.3651253  31.8365211 106.1411333
  39.4292580  32.6980042 105.7288730  39.3018374  31.2239213 105.4083691
  38.8403526  33.9088344 109.7884367  39.4675565  33.5265421 110.4021891
  37.9831445  33.6902546 110.1540059  49.2397634  44.3151319 111.3938102
  49.7837538  44.9281277 110.8993057  48.6584479  44.8730898 111.9105115
  35.6169069  35.7164773  95.7202722  35.9122510  34.8075451  95.6669775
  34.7157104  35.6952513  95.3983724  47.5255147  47.4372037 102.5253130
  47.4006287  46.6361777 102.0164076  48.1834238  47.9318231 102.0367100
  39.1463316  33.7920770 101.7030270  38.4249901  34.4056737 101.5637744
  39.9356571  34.3278534 101.6246916  49.5890056  45.2381057 104.1532680
  48.6420391  45.1186408 104.0811007  49.9372829  44.3503555 104.2358942
  41.9489629  31.1275196 107.9770922  42.4724031  31.3737493 108.7397231
  41.7301962  31.9595231 107.5574059  37.3456910  33.3978871  95.8442047
  37.0169616  32.5176250  95.6617153  37.6996281  33.3426539  96.7318436
  46.5936489  45.0333773 100.3537032  46.4461451  44.1050481 100.5344602
  47.4189983  45.0553864  99.8694108  40.4598733  33.6851841  96.2117525
  40.7994806  34.2137762  95.4896133  40.9070854  34.0232247  96.9876091
  50.1970611  45.8562332 101.4401905  51.1217158  45.6505194 101.3026356
  50.0285914  45.6078733 102.3491247  43.1542174  32.0688891 105.6620593
  42.8138995  31.2696704 106.0641272  42.4481180  32.3690602 105.0897426
  43.8058646  29.1538204 104.1147916  44.6284715  28.6798682 103.9926806
  44.0496710  29.9328687 104.6146602  42.4466880  32.1826462  94.4110817
  43.1675243  32.5607715  93.9074534  41.8232185  32.9015339  94.5145795
  46.5898003  32.8871611  95.3469150  46.8061618  33.7696249  95.0457978
  46.1092070  32.4957825  94.6174792  41.3297225  35.8457324 101.9239894
  41.1841805  36.1597627 102.8164176  40.8522428  36.4642225 101.3710793
  43.1893608  32.8359872 101.9720784  43.1755176  31.9400966 101.6353082
  43.9066036  32.8430536 102.6059070  45.0419738  33.2697213 104.0173911
  44.7837516  34.1914283 104.0158242  44.5104779  32.8727647 104.7074375
  49.9865927  46.3748000  96.7963997  50.1602805  45.8094422  96.0437849
  50.4794818  47.1748895  96.6143487  35.8042887  38.3862669 104.8627555
  35.2596355  39.1622477 104.9947830  36.6822237  38.7333473 104.7046677
  42.5930504  31.7174253  97.2408354  42.7146415  30.7890899  97.4399241
  42.3032546  31.7312939  96.3286669  45.4621694  29.4029163 100.3775074
  45.4843391  29.4668496  99.4227053  45.8789753  28.5633672 100.5715580
  55.8405318  39.1384423  98.4154296  56.2836464  38.3891748  98.0173420
  54.9631829  39.1294559  98.0328028  50.9741100  45.6914764  93.8960895
  51.6692004  46.3121457  94.1148210  51.3164250  44.8410115  94.1713273
  36.5908909  37.5132565 107.7557712  35.8490645  37.6615200 108.3422343
  36.2701653  37.7740831 106.8924462  52.8732523  43.1414470  95.4248226
  53.3983847  43.4801742  94.6997546  52.7854875  42.2061485  95.2411360
  44.5352571  47.0548543 107.5538102  44.8439698  46.8097690 108.4260802
  45.3328053  47.2595182 107.0656973  44.5573183  49.2086453  99.7843479
  44.1178174  48.7162832 100.4776336  45.3081300  48.6659421  99.5435554
  37.0365522  45.3997994  99.7868107  37.8623542  45.1001766  99.4066750
  36.6859574  44.6305616 100.2357896  42.0047056  44.7524462 101.8565781
  41.3827065  44.0895167 101.5568008  42.6751922  44.7785594 101.1739428
  35.2374127  43.3184320 100.7457041  34.4006036  42.8906495 100.5641042
  35.2097773  43.5116764 101.6827832  42.0771583  33.2306250 111.4498287
  42.1259739  34.1068373 111.0676056  42.6194097  32.6883643 110.8769930
  52.5626429  43.7747373 110.7299424  51.7721972  43.7571512 110.1903923
  52.3259783  44.3135667 111.4848460  52.6824304  40.6239840 108.0432152
  52.7322309  40.4589847 108.9847675  52.5738227  39.7567099 107.6530033
  41.5660562  43.3028385  95.3324241  41.7148683  43.9863850  94.6790914
  42.3727006  43.2833475  95.8473697  49.9728066  36.6070768 109.3591459
  50.8737929  36.4677232 109.0675457  50.0476041  36.7725222 110.2989636
  44.3070872  33.9837622 108.2044645  43.4374181  34.2771188 107.9327234
  44.5430352  34.5678067 108.9251909  54.1842501  43.0436781 108.2874174
  53.8927309  43.4066762 109.1237635  53.5714632  42.3303789 108.1087506
  55.3838183  40.6089661 100.8076744  56.2185074  41.0479465 100.9714304
  55.5197312  40.1328314  99.9884990  52.4329689  38.1669396 106.7554232
  52.9083810  38.3597042 105.9473083  51.5095254  38.2228582 106.5097615
  39.3213195  39.3293563  96.3385310  39.0759237  38.4255893  96.5365520
  39.4909110  39.3310713  95.3964788  47.0109905  30.2017239 105.7210066
  47.5291849  30.9378266 105.3956554  46.6565038  30.5081233 106.5556825
  38.5908843  35.0621920  93.8371471  37.8978088  35.1366275  93.1811507
  38.3460595  34.2982264  94.3592988  47.2622500  26.6217522 101.2410962
  47.5424253  25.9540711 101.8671389  48.0473106  26.8146617 100.7285626
  45.0655968  45.7976516  92.8035988  44.4929935  46.4166703  92.3506460
  45.6388762  46.3475877  93.3375910  51.1331358  35.0435156 104.9882537
  52.0848781  35.1433253 105.0094761  50.9634808  34.2513424 105.4980622
  49.1545737  32.1290739 105.1741938  48.5595669  32.4095752 104.4788427
  48.8695434  32.6184640 105.9458679  48.2853228  46.0813666  93.9344571
  49.2183901  46.0159228  94.1377446  48.1976441  46.9169933  93.4759103
  50.9141244  45.3979536  90.8948518  50.8354876  45.0639400  91.7884276
  51.7350911  45.8901304  90.8939991  53.6119436  38.2641276 104.1024837
  53.5795756  37.3257276 104.2884521  54.2220059  38.3425312 103.3690662
  45.4502767  37.1337328  90.1452041  46.3961871  37.0043537  90.2140459
  45.0717011  36.3951990  90.6221469  53.7613924  35.0552319 104.1483120
  53.2452973  34.2710776 103.9613049  54.6453873  34.7271036 104.3129640
  51.4224651  28.7993335 100.1078933  51.2249472  28.4908423 100.9922265
  52.0324357  29.5254973 100.2376863  59.4295986  39.3257282 103.2430874
  60.1599374  39.0642570 103.8038577  58.8202931  38.5886004 103.2832942
  57.5111283  37.4665145 103.8405325  56.7844446  37.3321110 103.2321817
  57.0958570  37.7741974 104.6462043  45.3341459  41.1855075 111.6052698
  46.2544469  41.3633674 111.7992744  45.2991042  40.2411120 111.4532397
  43.6345684  35.0587305  90.0806926  42.7277139  34.7620418  90.1569640
  43.9121665  34.7617123  89.2141212  34.5523624  36.3793668 100.5305973
  34.2326408  35.5258976 100.2380347  34.0057052  36.5942246 101.2863940
  38.3303532  39.0956109 104.2475479  38.5489541  40.0273217 104.2663513
  38.7429305  38.7364084 105.0330283  45.2507749  29.6024195  96.2351168
  44.4408478  29.2571280  96.6106414  45.9392166  29.2931738  96.8238779
  47.1798298  28.6802241  97.8575464  47.7329336  29.0997695  98.5165487
  47.4168384  27.7537990  97.8998420  42.4044468  31.9174240  90.2218905
  43.2663632  32.2429138  90.4814723  42.5894812  31.1305736  89.7091971
  34.4211884  39.9996580 102.4999094  33.7275355  39.5850533 101.9869049
  35.1684875  40.0417116 101.9032513  50.5577105  30.7902767  97.3654128
  49.9775774  31.4487571  96.9832181  50.2913037  29.9680111  96.9541546
  49.0080671  30.1907824  99.5675449  49.5080450  30.3024359  98.7589768
  49.6516279  29.8868877 100.2076257  43.0662667  38.0986454 112.4543290
  42.5829749  38.8986814 112.6607179  43.1523606  38.1094399 111.5010734
  36.3348627  39.9314834 100.3765109  36.3119315  40.0302521  99.4246992
  36.6449263  40.7779984 100.6982275  38.9936004  41.9890989 104.4911723
  39.9479258  41.9574931 104.4241655  38.7948528  41.5281612 105.3061949
  39.5835387  40.5592105 107.0582521  40.4028276  41.0536183 107.0817358
  39.8572194  39.6424073 107.0300089  49.3401983  32.9502857  96.4210477
  48.4527838  33.2352508  96.2030671  49.7555972  32.7896620  95.5737754
  52.6916519  32.9749378 100.1364816  53.4676909  33.4645830 100.4089433
  51.9664653  33.4007432 100.5936685  55.1289078  33.6876997 101.1938757
  55.7233568  33.4472733 100.4832065  55.2015661  32.9684128 101.8212293
  37.3486233  47.5310608 101.5081921  37.2140701  46.7711009 100.9419919
  36.9318296  48.2551508 101.0410710  48.4845196  42.7147532  90.5158497
  49.1881046  42.9197534  91.1316152  47.7607845  43.2824293  90.7807580
  49.3143007  38.4657393  96.6360767  49.2578208  38.9225944  95.7968399
  49.8671349  37.7048077  96.4583610  53.1247812  34.2547125  97.4610886
  52.8684747  33.8543760  98.2919094  52.5000680  34.9690919  97.3361025
  57.4360150  36.9943198  99.9682178  56.8759708  37.0636387 100.7413740
  56.8303654  36.8184183  99.2481674  40.5055359  48.4279925 101.7200364
  40.3887743  49.3725358 101.6179054  39.6847805  48.1253487 102.1086163
  50.3931894  43.1530061  92.5656957  51.2277498  42.7211259  92.3834431
  50.2316237  42.9812074  93.4933851  50.0477786  39.6562174  93.9313296
  49.9926590  39.4906446  92.9901740  49.4223841  40.3638207  94.0875486
  34.8370301  34.8930238 107.7574718  35.4829164  34.3829192 108.2461943
  34.6287452  35.6298920 108.3318143  47.3623693  41.9611086 113.2566859
  48.2314853  42.1351738 112.8953494  46.8830445  42.7805503 113.1342588
  43.3573911  29.1570283  93.5098614  43.3452581  30.1012123  93.6666885
  44.2497333  28.9740429  93.2158076  41.5309873  49.0808187 104.9356292
  42.4337120  49.1131797 105.2522787  41.3047243  48.1508638 104.9502628
  43.2863475  47.8339174 101.5966371  42.3359106  47.8341035 101.4830743
  43.5895961  47.0871908 101.0802406  47.1726031  25.7513060  97.7644551
  46.4058427  25.1971546  97.9101234  47.5836736  25.8234929  98.6258703
  59.0216169  53.6699712 102.6612133  59.6594579  53.5506459 101.9575474
  58.9037012  54.6180556 102.7200086  55.8305875  53.6227140 102.5973658
  55.4924387  53.5068205 101.7094193  56.6995643  53.2218305 102.5774664
  51.6892691  55.4762616  98.5870549  51.1257556  55.3852553  97.8186837
  51.5745086  54.6562521  99.0673042  56.3125658  54.7761992 108.5559864
  56.3014299  54.3814790 107.6840367  56.4746298  54.0428064 109.1493635
  51.1947877  56.2322721  94.2972148  51.9678753  55.6851708  94.1585024
  51.5473275  57.0966971  94.5086610  53.0332919  57.5599104 107.5039048
  52.7422785  58.4644734 107.3885714  53.6689904  57.6015631 108.2183117
  53.9589126  54.9375952 104.0940407  54.5552698  54.7131974 103.3797370
  54.0164098  54.1960698 104.6965855  53.5314154  52.3915387  91.9290598
  53.7839675  51.8696909  91.1674061  52.5938714  52.2281533  92.0317282
  58.5757437  51.3951166  99.7365341  59.3620526  50.9770589  99.3855759
  58.8396142  52.2997258  99.9046990  58.7467515  56.8324016  94.4353998
  58.1113348  56.9058643  95.1474903  58.4164921  57.4217615  93.7573078
  63.9765864  51.3326399 100.6398320  64.7091036  50.7625616 100.8736149
  63.2205220  50.9447999 101.0804826  53.2510443  54.2943493  94.1314973
  53.1346701  53.6188397  94.7996058  53.3612703  53.8075867  93.3147126
  55.5941984  53.7553640  97.8361662  55.2300191  53.2284261  98.5474584
  56.4509100  53.3652110  97.6628148  61.4991285  45.0447973 105.0992929
  61.1674610  45.9143384 104.8754144  60.9036898  44.7284257 105.7786959
  55.2347471  48.7843540  92.8323011  55.4021873  49.6523777  93.1993482
  55.0444640  48.9470822  91.9084300  57.9922804  57.2460519 104.4988841
  57.6923527  58.1485558 104.3904649  57.6473864  56.9792702 105.3509994
  51.4435286  53.6974316 100.5325546  50.5185782  53.5650530 100.7403238
  51.6919699  54.4768535 101.0295488  61.3919948  49.7643059 102.1786279
  60.4836825  49.6958468 101.8845040  61.3407544  50.2415004 103.0068104
  55.2136692  51.2401198  93.8169678  55.0936317  51.6858248  94.6555158
  54.5189280  51.5886515  93.2583216  48.8044097  53.3407589 101.3669335
  48.9336478  53.5942068 102.2808747  48.1241548  53.9335297 101.0473990
  55.4660814  51.1832705 110.1221176  54.6894148  51.7426625 110.1124041
  56.1051377  51.6689488 110.6436046  63.2581594  47.9659498 103.9564153
  62.6155975  48.2592031 103.3103947  62.7536523  47.8512418 104.7617349
  60.9121758  51.7122671  94.6450012  61.8239614  51.9450058  94.4697709
  60.4031405  52.2959715  94.0825090  53.7207186  53.9918158 109.6839143
  54.4621871  54.5303202 109.4073967  53.0144172  54.6184447 109.8410695
  59.1962526  56.1347299 108.2811304  59.6045882  55.6929709 107.5365937
  58.4739787  55.5599926 108.5345497  55.5493596  51.0719905 105.6544861
  56.3954791  51.4959319 105.7979510  55.4892233  50.4153530 106.3483424
  59.5191340  56.6948489 102.0363593  58.8900203  56.8594203 101.3339661
  59.1317003  57.1090099 102.8074557  63.3980572  57.6302927  99.3907957
  62.7131610  58.0101828  98.8404990  63.4824422  58.2398254 100.1239905
  58.6993041  48.7324274 107.3126035  58.4553973  49.4866334 106.7760311
  58.9752972  49.1109621 108.1473282  60.6531504  55.2762886 105.9903301
  60.8648399  55.9194646 105.3137682  60.6061252  54.4425203 105.5225231
  58.2557733  47.8880707 102.8939873  57.3942212  48.1861960 103.1856610
  58.2820168  48.1051106 101.9620905  55.0719302  56.4322897  99.3013678
  55.5357648  56.7110600  98.5118301  54.8076100  55.5306342  99.1186769
  51.9643383  55.9794379 102.2393442  52.5344740  56.4081647 101.6010926
  52.5551495  55.6976964 102.9377627  54.0088188  52.5546050  96.1103244
  54.7112232  53.0067093  96.5777170  53.6768817  51.9129869  96.7383137
  52.4568550  51.1457806 110.4854453  51.8267210  51.8274087 110.7189850
  52.3504638  51.0340888 109.5407591  47.7513522  50.8129602 101.4120377
  46.9612576  51.0687131 100.9360488  48.2424770  51.6277940 101.5172418
  61.7677332  58.1534842 104.1625658  62.5894776  57.7515029 103.8808340
  61.7639735  58.0503076 105.1141774  49.7028268  51.1774182  98.3703854
  48.9059431  51.2892876  98.8887349  49.4753860  51.5160834  97.5044744
  55.5333935  57.7018885 106.3186368  55.5978368  58.1639292 107.1544540
  54.8244859  57.0716250 106.4468678  46.0351225  51.0660093 103.8435368
  46.2859264  51.9507103 104.1092944  46.5710774  50.8864694 103.0710460
  69.8583325  54.4973590 100.5110629  69.1047033  53.9280988 100.3554634
  69.9930866  54.4636255 101.4581264  55.2481953  59.3686992  96.1865349
  55.1127628  60.2138528  96.6150197  55.7891765  59.5706270  95.4231283
  51.7349293  45.4478572 112.8479704  51.3416238  44.8944771 113.5227348
  52.5515433  45.7589151 113.2386222  48.7011350  56.8862430  96.7593274
  49.2135871  57.6805681  96.9098839  49.3534063  56.1888721  96.6926875
  50.5106235  60.0028187  98.8416027  50.6872863  60.9246151  98.6537011
  51.3063069  59.6886606  99.2710407  54.6517254  46.8636451 110.4399961
  55.3926967  47.4643604 110.3604423  54.8835176  46.1214089 109.8818003
  49.7958592  52.0492819 108.7178190  49.6812107  51.1478076 109.0185289
  48.9403109  52.2956515 108.3663007  56.8750429  59.9910559 110.3165691
  56.4314284  59.2046937 109.9986595  57.5367643  60.1789709 109.6509582
  51.6337551  61.5206360 104.8426369  52.1844976  61.3923424 104.0703363
  50.7949026  61.8201249 104.4921262  58.9731667  60.2713359 108.3447092
  58.9550143  61.0922240 107.8527361  59.8951587  60.1467434 108.5697233
  55.4304722  57.7857488 109.1870600  55.9633058  57.0245776 108.9569908
  54.9018803  57.4931140 109.9294755  58.5974417  42.8917554 104.7164242
  58.2538686  43.7819196 104.6403353  58.9653379  42.7019212 103.8533827
  58.5624699  52.8826165  93.2236677  58.0471323  53.6530770  93.4625065
  58.2902008  52.2091302  93.8469739  56.1471810  47.7275866  98.2821916
  55.2913407  47.3382717  98.1027554  56.5598762  47.8067827  97.4221701
  57.6770957  45.2622209 102.6813475  57.1735753  45.2252345 101.8681281
  57.9701564  46.1714952 102.7410132  53.9213843  45.3460939 101.6879657
  54.7866840  45.1503748 101.3285547  53.9891352  45.1171291 102.6149014
  63.5358973  55.6358520  95.1589851  62.7588416  55.2969679  94.7145013
  64.2150454  55.6411143  94.4844816  58.3511002  50.7553257  95.0496459
  58.0461138  51.0699407  95.9006602  59.3041445  50.8334677  95.0923792
  56.7957434  56.9143481  96.6989412  56.2678796  56.1796240  96.3862650
  56.2944937  57.6918157  96.4529381  61.7750280  55.1092501 101.8156459
  61.1173955  55.7991763 101.9036587  62.5790680  55.4988933 102.1590445
  51.5276162  47.5763147  99.0596024  52.1019914  47.3538329  98.3269217
  52.1147144  47.6451842  99.8124625  60.5855739  53.4636874  99.8660401
  61.0987621  54.0966866 100.3682110  61.2356963  52.8638069  99.5003761
  51.8545749  49.6067608  93.0791909  51.0183061  49.9442295  93.4001184
  51.7150519  49.4716588  92.1419046  53.8298830  44.4504396  97.7871093
  53.1763242  44.1353413  97.1627708  53.7879304  43.8280136  98.5130916
  54.9410034  54.7323691  89.7024386  54.0337096  54.5012944  89.9015534
  55.4381066  53.9361310  89.8898367  57.0636570  50.9386329 102.1118741
  56.1459131  51.1601277 101.9540429  57.4796714  51.0132640 101.2530448
  57.8471618  52.3377745  97.2421421  58.5943437  52.8499142  96.9328543
  58.1163207  52.0161798  98.1025815  56.1198268  54.8336286  94.2248376
  55.2109487  54.5495319  94.3220845  56.1493352  55.2535364  93.3651682
  61.3517535  58.4442875  97.9939543  60.8979862  57.6033785  98.0504734
  60.7211502  59.0804274  98.3314323  60.2950455  49.3734861  99.2240211
  59.5573212  48.8612248  99.5550453  60.5477228  48.9335243  98.4123487
  59.7950475  60.2819372  98.9289361  60.0873449  60.8424429  98.2101727
  60.3049095  60.5747933  99.6842520  60.3962082  42.1511113  99.8181980
  60.7020959  41.2908477  99.5307895  61.1214687  42.7428734  99.6180974
  54.6683162  52.4464906 100.3258171  54.7231772  51.4938743 100.2500648
  53.8574364  52.6024346 100.8099469  55.8174356  56.3745030  91.5636454
  55.3793786  55.6580888  91.1042092  56.5584797  56.6021144  91.0021546
  52.6075522  51.0641966  98.0848550  51.7943387  51.3636137  98.4913742
  53.1034516  50.6697655  98.8023032  54.7584100  61.0599723 100.0182815
  54.7160279  61.2860569  99.0891347  55.6746799  60.8263098 100.1668616
  58.2049734  51.5283791 106.9163444  58.5599121  51.7555264 107.7757909
  58.8521865  51.8602168 106.2940699  63.9347470  54.6502227  97.6212773
  63.7965369  54.8403823  96.6933962  63.5783689  55.4121609  98.0780824
  52.0989597  48.6360322 103.7009785  52.7388976  48.4949081 103.0032748
  51.2667127  48.3494835 103.3248387  63.9616850  56.7178754 102.6324044
  64.3953357  56.6254043 103.4807098  64.6748431  56.6936254 101.9944060
  52.8749901  57.9362752  99.8144777  53.6690499  57.4413072  99.6127352
  52.1641593  57.4080615  99.4512483  57.6944745  60.3180848 104.1657145
  57.7481767  60.8871784 104.9334861  56.8259526  60.4882733 103.8011182
  49.1832664  52.0805834  95.8904530  48.2530252  52.0190289  96.1074492
  49.2790136  51.5581787  95.0941171  49.1018213  48.6060647  98.4782772
  49.3625030  49.5205980  98.3691932  49.9235385  48.1385089  98.6279384
  50.5743138  50.0198404 105.6481596  51.2466192  49.8115766 104.9994245
  49.7472925  49.8220490 105.2086828  64.8232400  56.7602454 105.1656930
  65.0168290  57.6648265 105.4116205  64.7233018  56.3009873 105.9995515
  56.4768710  46.6460345 107.6647257  55.8296625  47.3450295 107.5711733
  57.2469726  47.0796489 108.0323505  59.8847508  56.9109197 110.7397810
  59.7333015  56.6819749 109.8227894  59.8752188  57.8679798 110.7529155
  56.6532845  54.4841110 105.7244077  57.5824905  54.6352269 105.5513044
  56.2323875  54.5725131 104.8692723  55.4521177  58.5091774 103.4942614
  55.3132262  58.1410559 104.3668552  54.6635773  59.0239414 103.3226572
  57.0026392  57.8873377 100.8831452  56.6676224  57.8474147 101.7789102
  56.5030337  57.2218093 100.4101862  50.9770636  53.2941007 106.4084033
  50.8390434  52.5621246 107.0095572  51.8875559  53.2049907 106.1268221
  59.9385583  55.2329411  91.1568512  59.3214754  54.5076239  91.0601564
  59.4702072  55.9938771  90.8135586  53.6052936  53.0060966 105.8967713
  54.3152555  52.3654158 105.8554331  53.5622244  53.2573861 106.8193894
  61.5939715  59.9428320 108.8174292  61.5352261  59.2587540 108.1504875
  61.9959233  60.6847310 108.3654918  52.3181870  49.9926184 107.7163352
  51.7819227  49.5416923 108.3684949  51.7298579  50.1272093 106.9733817
  51.7284129  49.4514836  90.2789816  50.8513596  49.3303636  89.9152063
  52.2041882  48.6600914  90.0268705  61.5957122  57.9067904 107.0488272
  60.7083901  57.5693825 107.1714671  62.1655673  57.1750935 107.2857037
  48.0520992  49.1282192 104.8016347  47.9679180  48.5207861 104.0666757
  47.2303698  49.6191210 104.8025843  55.1258276  62.5669356 104.0149515
  55.0528447  63.3724327 104.5268820  54.6835669  62.7661322 103.1897536
  54.9148055  61.8041126  97.5252337  54.1315577  62.3462806  97.6190561
  55.6140800  62.3215106  97.9246578  58.2244705  47.6135755 100.1686542
  58.7213405  46.8605718  99.8487612  57.4531687  47.6500072  99.6029751
  66.0774463  53.3176121 101.8104833  66.0664339  54.2000836 101.4398767
  65.2091842  52.9647672 101.6159371  57.5856959  62.4656190 106.1707674
  58.2984931  63.1003655 106.0983575  57.0946988  62.5620056 105.3547676
  59.3074486  56.3707443  97.7424965  58.3730765  56.4908905  97.5729670
  59.4851155  55.4679909  97.4784975  54.8079674  49.7553138  99.8958227
  54.4377462  49.2024179 100.5839132  55.3038767  49.1511272  99.3433227
  62.6947037  52.2124762  98.2774999  63.1607490  53.0452753  98.2035302
  63.1454538  51.7469743  98.9820258  52.6368873  60.2150633 106.9913245
  53.3378332  60.8487116 107.1442639  52.1663988  60.5565365 106.2308884
  60.7623269  58.5568583  95.2761152  61.0383112  58.4425178  96.1855026
  59.8927767  58.1586068  95.2373325  60.6663700  44.5805349 102.3165901
  59.7526780  44.8109576 102.4848108  61.0956802  44.6643793 103.1679933
  60.4370159  52.7695241 104.8165795  59.7841609  53.0171148 104.1618248
  60.8150539  51.9559379 104.4828272  56.4857732  53.5115052 111.3031832
  55.8098369  53.4109181 111.9734207  57.3085366  53.3554266 111.7667829
  48.2336591  59.7486988 103.9244347  48.8190028  59.0030676 104.0572251
  48.0361429  60.0590945 104.8081011  42.8254245  52.3192589 102.6448790
  42.8638345  51.7856179 103.4385908  42.3194538  51.7927794 102.0259768
  55.2280515  64.8181979 105.5389448  55.7798823  64.9813601 106.3038533
  55.5686708  65.4086417 104.8669473  50.2045008  47.1657129 106.1411333
  50.2686334  48.0271960 105.7288730  50.1412128  46.5531131 105.4083691
  49.6797280  49.2380262 109.7884367  50.3069319  48.8557339 110.4021891
  48.8225199  49.0194464 110.1540059  60.0791389  59.6443237 111.3938102
  60.6231293  60.2573195 110.8993057  59.4978234  60.2022815 111.9105115
  46.4562823  51.0456691  95.7202722  46.7516264  50.1367369  95.6669775
  45.5550859  51.0244430  95.3983724  58.3648902  62.7663955 102.5253130
  58.2400041  61.9653695 102.0164076  59.0227993  63.2610148 102.0367100
  49.9857070  49.1212687 101.7030270  49.2643656  49.7348655 101.5637744
  50.7750326  49.6570452 101.6246916  60.4283810  60.5672975 104.1532680
  59.4814146  60.4478326 104.0811007  60.7766583  59.6795473 104.2358942
  52.7883384  46.4567114 107.9770922  53.3117785  46.7029410 108.7397231
  52.5695717  47.2887149 107.5574059  48.1850665  48.7270788  95.8442047
  47.8563371  47.8468167  95.6617153  48.5390035  48.6718457  96.7318436
  57.4330244  60.3625691 100.3537032  57.2855206  59.4342399 100.5344602
  58.2583737  60.3845782  99.8694108  51.2992488  49.0143758  96.2117525
  51.6388560  49.5429679  95.4896133  51.7464608  49.3524164  96.9876091
  61.0364365  61.1854250 101.4401905  61.9610913  60.9797111 101.3026356
  60.8679669  60.9370651 102.3491247  53.9935929  47.3980809 105.6620593
  53.6532749  46.5988622 106.0641272  53.2874935  47.6982520 105.0897426
  54.6452400  44.4830121 104.1147916  55.4678470  44.0090600 103.9926806
  54.8890464  45.2620605 104.6146602  53.2860635  47.5118380  94.4110817
  54.0068997  47.8899633  93.9074534  52.6625939  48.2307257  94.5145795
  57.4291758  48.2163529  95.3469150  57.6455372  49.0988167  95.0457978
  56.9485825  47.8249742  94.6174792  52.1690979  51.1749242 101.9239894
  52.0235560  51.4889545 102.8164176  51.6916183  51.7934142 101.3710793
  54.0287362  48.1651790 101.9720784  54.0148931  47.2692883 101.6353082
  54.7459790  48.1722454 102.6059070  55.8813493  48.5989130 104.0173911
  55.6231271  49.5206201 104.0158242  55.3498533  48.2019565 104.7074375
  46.6436641  53.7154586 104.8627555  46.0990109  54.4914394 104.9947830
  47.5215991  54.0625391 104.7046677  53.4324258  47.0466170  97.2408354
  53.5540169  46.1182816  97.4399241  53.1426300  47.0604856  96.3286669
  56.3015448  44.7321081 100.3775074  56.3237145  44.7960414  99.4227053
  56.7183507  43.8925589 100.5715580  66.6799073  54.4676340  98.4154296
  67.1230219  53.7183665  98.0173420  65.8025583  54.4586477  98.0328028
  47.4302663  52.8424483 107.7557712  46.6884399  52.9907118 108.3422343
  47.1095408  53.1032748 106.8924462  63.7126277  58.4706387  95.4248226
  64.2377601  58.8093660  94.6997546  63.6248630  57.5353403  95.2411360
  55.3746326  62.3840461 107.5538102  55.6833452  62.1389608 108.4260802
  56.1721808  62.5887099 107.0656973  52.8440810  60.0816380 101.8565781
  52.2220819  59.4187085 101.5568008  53.5145677  60.1077512 101.1739428
  52.9165338  48.5598168 111.4498287  52.9653493  49.4360290 111.0676056
  53.4587852  48.0175561 110.8769930  63.4020183  59.1039291 110.7299424
  62.6115727  59.0863430 110.1903923  63.1653538  59.6427585 111.4848460
  63.5218058  55.9531757 108.0432152  63.5716063  55.7881765 108.9847675
  63.4131982  55.0859016 107.6530033  52.4054317  58.6320303  95.3324241
  52.5542437  59.3155767  94.6790914  53.2120760  58.6125393  95.8473697
  60.8121821  51.9362685 109.3591459  61.7131683  51.7969150 109.0675457
  60.8869795  52.1017140 110.2989636  55.1464626  49.3129540 108.2044645
  54.2767935  49.6063106 107.9327234  55.3824106  49.8969985 108.9251909
  65.0236255  58.3728699 108.2874174  64.7321063  58.7358679 109.1237635
  64.4108386  57.6595707 108.1087506  66.2231937  55.9381579 100.8076744
  67.0578829  56.3771383 100.9714304  66.3591066  55.4620232  99.9884990
  63.2723443  53.4961313 106.7554232  63.7477565  53.6888960 105.9473083
  62.3489009  53.5520499 106.5097615  50.1606950  54.6585481  96.3385310
  49.9152992  53.7547811  96.5365520  50.3302865  54.6602631  95.3964788
  57.8503660  45.5309157 105.7210066  58.3685604  46.2670184 105.3956554
  57.4958793  45.8373150 106.5556825  49.4302598  50.3913838  93.8371471
  48.7371842  50.4658193  93.1811507  49.1854349  49.6274182  94.3592988
  58.1016254  41.9509440 101.2410962  58.3818008  41.2832629 101.8671389
  58.8866861  42.1438535 100.7285626  61.9725112  50.3727073 104.9882537
  62.9242535  50.4725171 105.0094761  61.8028563  49.5805342 105.4980622
  59.9939492  47.4582657 105.1741938  59.3989424  47.7387669 104.4788427
  59.7089189  47.9476558 105.9458679  64.4513190  53.5933193 104.1024837
  64.4189510  52.6549194 104.2884521  65.0613814  53.6717230 103.3690662
  56.2896521  52.4629246  90.1452041  57.2355626  52.3335454  90.2140459
  55.9110766  51.7243908  90.6221469  64.6007679  50.3844237 104.1483120
  64.0846727  49.6002693 103.9613049  65.4847627  50.0562953 104.3129640
  62.2618406  44.1285252 100.1078933  62.0643227  43.8200340 100.9922265
  62.8718111  44.8546891 100.2376863  70.2689740  54.6549200 103.2430874
  70.9993128  54.3934488 103.8038577  69.6596685  53.9177922 103.2832942
  68.3505037  52.7957063 103.8405325  67.6238201  52.6613028 103.2321817
  67.9352324  53.1033891 104.6462043  56.1735214  56.5146992 111.6052698
  57.0938223  56.6925591 111.7992744  56.1384797  55.5703038 111.4532397
  54.4739438  50.3879223  90.0806926  53.5670894  50.0912335  90.1569640
  54.7515419  50.0909041  89.2141212  45.3917379  51.7085586 100.5305973
  45.0720163  50.8550894 100.2380347  44.8450807  51.9234164 101.2863940
  49.1697286  54.4248027 104.2475479  49.3883296  55.3565135 104.2663513
  49.5823060  54.0656001 105.0330283  56.0901504  44.9316112  96.2351168
  55.2802232  44.5863197  96.6106414  56.7785921  44.6223656  96.8238779
  58.0192052  44.0094159  97.8575464  58.5723091  44.4289612  98.5165487
  58.2562139  43.0829907  97.8998420  54.0425151  49.9981233 113.6378228
  53.9421878  50.9475590 113.5690319  53.8246693  49.6699472 112.7654298
  53.2438223  47.2466158  90.2218905  54.1057387  47.5721056  90.4814723
  53.4288567  46.4597654  89.7091971  61.3970859  46.1194684  97.3654128
  60.8169528  46.7779488  96.9832181  61.1306792  45.2972029  96.9541546
  59.8474426  45.5199742  99.5675449  60.3474204  45.6316276  98.7589768
  60.4910034  45.2160795 100.2076257  53.9056421  53.4278372 112.4543290
  53.4223503  54.2278732 112.6607179  53.9917361  53.4386316 111.5010734
  49.8329759  57.3182906 104.4911723  50.7873013  57.2866849 104.4241655
  49.6342283  56.8573530 105.3061949  50.4229141  55.8884022 107.0582521
  51.2422030  56.3828101 107.0817358  50.6965949  54.9715990 107.0300089
  60.1795737  48.2794775  96.4210477  59.2921592  48.5644425  96.2030671
  60.5949726  48.1188538  95.5737754  63.5310273  48.3041296 100.1364816
  64.3070664  48.7937748 100.4089433  62.8058408  48.7299350 100.5936685
  65.9682832  49.0168915 101.1938757  66.5627323  48.7764651 100.4832065
  66.0409416  48.2976045 101.8212293  60.1536761  53.7949311  96.6360767
  60.0971962  54.2517862  95.7968399  60.7065103  53.0339995  96.4583610
  63.9641567  49.5839042  97.4610886  63.7078501  49.1835678  98.2919094
  63.3394435  50.2982836  97.3361025  68.2753905  52.3235116  99.9682178
  67.7153463  52.3928305 100.7413740  67.6697408  52.1476100  99.2481674
  51.3449114  63.7571843 101.7200364  51.2281498  64.7017275 101.6179054
  50.5241560  63.4545404 102.1086163  61.2325648  58.4821978  92.5656957
  62.0671252  58.0503177  92.3834431  61.0709991  58.3103992  93.4933851
  60.8871540  54.9854092  93.9313296  60.8320344  54.8198363  92.9901740
  60.2617596  55.6930125  94.0875486  45.6764055  50.2222156 107.7574718
  46.3222919  49.7121110 108.2461943  45.4681206  50.9590838 108.3318143
  58.2017448  57.2903004 113.2566859  59.0708607  57.4643656 112.8953494
  57.7224199  58.1097420 113.1342588  54.1967666  44.4862201  93.5098614
  54.1846336  45.4304041  93.6666885  55.0891088  44.3032346  93.2158076
  52.3703628  64.4100105 104.9356292  53.2730874  64.4423715 105.2522787
  52.1440998  63.4800556 104.9502628  54.1257230  63.1631091 101.5966371
  53.1752861  63.1632953 101.4830743  54.4289716  62.4163826 101.0802406
  58.0119785  41.0804977  97.7644551  57.2452181  40.5263464  97.9101234
  58.4230490  41.1526846  98.6258703  50.0161546  47.3689773 111.8549732
  50.8793008  47.0126578 112.0653057  49.4426957  47.0303668 112.5425137
  69.8609923  68.9991630 102.6612133  70.4988333  68.8798377 101.9575474
  69.7430766  69.9472474 102.7200086  66.6699630  68.9519058 102.5973658
  66.3318141  68.8360122 101.7094193  67.5389398  68.5510223 102.5774664
  67.1519413  70.1053909 108.5559864  67.1408053  69.7106708 107.6840367
  67.3140052  69.3719982 109.1493635  63.8726674  72.8891021 107.5039048
  63.5816540  73.7936652 107.3885714  64.5083658  72.9307549 108.2183117
  64.7982881  70.2667870 104.0940407  65.3946453  70.0423892 103.3797370
  64.8557852  69.5252615 104.6965855  69.4151192  66.7243083  99.7365341
  70.2014281  66.3062507  99.3855759  69.6789896  67.6289176  99.9046990
  74.8159619  66.6618317 100.6398320  75.5484791  66.0917533 100.8736149
  74.0598975  66.2739917 101.0804826  72.3385039  60.3739891 105.0992929
  72.0068364  61.2435302 104.8754144  71.7430653  60.0576175 105.7786959
  68.8316559  72.5752437 104.4988841  68.5317282  73.4777476 104.3904649
  68.4867618  72.3084620 105.3509994  62.2829040  69.0266234 100.5325546
  61.3579537  68.8942448 100.7403238  62.5313453  69.8060453 101.0295488
  72.2313703  65.0934977 102.1786279  71.3230580  65.0250385 101.8845040
  72.1801298  65.5706922 103.0068104  66.3054568  66.5124623 110.1221176
  65.5287902  67.0718543 110.1124041  66.9445131  66.9981405 110.6436046
  74.0975349  63.2951415 103.9564153  73.4549729  63.5883948 103.3103947
  73.5930277  63.1804336 104.7617349  64.5600941  69.3210076 109.6839143
  65.3015625  69.8595120 109.4073967  63.8537926  69.9476365 109.8410695
  70.0356280  71.4639216 108.2811304  70.4439636  71.0221627 107.5365937
  69.3133542  70.8891844 108.5345497  66.3887350  66.4011823 105.6544861
  67.2348546  66.8251237 105.7979510  66.3285988  65.7445447 106.3483424
  70.3585095  72.0240407 102.0363593  69.7293957  72.1886121 101.3339661
  69.9710757  72.4382017 102.8074557  74.2374327  72.9594845  99.3907957
  73.5525365  73.3393746  98.8404990  74.3218176  73.5690171 100.1239905
  69.5386796  64.0616191 107.3126035  69.2947728  64.8158252 106.7760311
  69.8146726  64.4401539 108.1473282  71.4925258  70.6054804 105.9903301
  71.7042154  71.2486564 105.3137682  71.4455007  69.7717120 105.5225231
  69.0951487  63.2172624 102.8939873  68.2335966  63.5153878 103.1856610
  69.1213922  63.4343023 101.9620905  62.8037138  71.3086297 102.2393442
  63.3738495  71.7373565 101.6010926  63.3945250  71.0268881 102.9377627
  63.2962304  66.4749724 110.4854453  62.6660965  67.1566005 110.7189850
  63.1898392  66.3632806 109.5407591  58.5907277  66.1421520 101.4120377
  57.8006331  66.3979049 100.9360488  59.0818524  66.9569858 101.5172418
  72.6071086  73.4826759 104.1625658  73.4288530  73.0806947 103.8808340
  72.6033489  73.3794993 105.1141774  66.3727690  73.0310803 106.3186368
  66.4372122  73.4931210 107.1544540  65.6638614  72.4008167 106.4468678
  56.8744980  66.3952011 103.8435368  57.1253018  67.2799020 104.1092944
  57.4104528  66.2156612 103.0710460  80.6977079  69.8265508 100.5110629
  79.9440788  69.2572906 100.3554634  80.8324621  69.7928172 101.4581264
  62.5743047  60.7770490 112.8479704  62.1809993  60.2236688 113.5227348
  63.3909187  61.0881068 113.2386222  65.4911008  62.1928369 110.4399961
  66.2320721  62.7935522 110.3604423  65.7228931  61.4506007 109.8818003
  60.6352346  67.3784736 108.7178190  60.5205861  66.4769993 109.0185289
  59.7796864  67.6248433 108.3663007  67.7144184  75.3202477 110.3165691
  67.2708038  74.5338855 109.9986595  68.3761397  75.5081627 109.6509582
  62.4731305  76.8498278 104.8426369  63.0238730  76.7215342 104.0703363
  61.6342781  77.1493167 104.4921262  69.8125422  75.6005276 108.3447092
  69.7943897  76.4214158 107.8527361  70.7345342  75.4759352 108.5697233
  66.2698476  73.1149406 109.1870600  66.8026813  72.3537694 108.9569908
  65.7412557  72.8223058 109.9294755  69.4368171  58.2209472 104.7164242
  69.0932440  59.1111114 104.6403353  69.8047134  58.0311130 103.8533827
  68.5164711  60.5914127 102.6813475  68.0129507  60.5544262 101.8681281
  68.8095318  61.5006870 102.7410132  64.7607597  60.6752857 101.6879657
  65.6260594  60.4795665 101.3285547  64.8285106  60.4463209 102.6149014
  74.3752728  70.9650438  95.1589851  73.5982171  70.6261597  94.7145013
  75.0544209  70.9703061  94.4844816  72.6144035  70.4384419 101.8156459
  71.9567709  71.1283680 101.9036587  73.4184434  70.8280851 102.1590445
  62.3669916  62.9055065  99.0596024  62.9413668  62.6830246  98.3269217
  62.9540899  62.9743759  99.8124625  71.4249494  68.7928792  99.8660401
  71.9381375  69.4258783 100.3682110  72.0750717  68.1929987  99.5003761
  64.6692584  59.7796314  97.7871093  64.0156996  59.4645331  97.1627708
  64.6273058  59.1572054  98.5130916  67.9030324  66.2678247 102.1118741
  66.9852886  66.4893194 101.9540429  68.3190468  66.3424558 101.2530448
  72.1911290  73.7734793  97.9939543  71.7373617  72.9325703  98.0504734
  71.5605257  74.4096191  98.3314323  71.1344209  64.7026779  99.2240211
  70.3966966  64.1904165  99.5550453  71.3870983  64.2627161  98.4123487
  70.6344229  75.6111290  98.9289361  70.9267203  76.1716347  98.2101727
  71.1442850  75.9039851  99.6842520  71.2355837  57.4803031  99.8181980
  71.5414713  56.6200395  99.5307895  71.9608442  58.0720651  99.6180974
  69.0443488  66.8575708 106.9163444  69.3992876  67.0847182 107.7757909
  69.6915619  67.1894085 106.2940699  74.7741225  69.9794144  97.6212773
  74.6359124  70.1695740  96.6933962  74.4177444  70.7413527  98.0780824
  62.9383351  63.9652239 103.7009785  63.5782730  63.8240999 103.0032748
  62.1060882  63.6786753 103.3248387  74.8010605  72.0470671 102.6324044
  75.2347111  71.9545960 103.4807098  75.5142185  72.0228172 101.9944060
  68.5338499  75.6472765 104.1657145  68.5875522  76.2163702 104.9334861
  67.6653281  75.8174650 103.8011182  61.4136893  65.3490322 105.6481596
  62.0859946  65.1407684 104.9994245  60.5866679  65.1512408 105.2086828
  75.6626154  72.0894372 105.1656930  75.8562044  72.9940182 105.4116205
  75.5626772  71.6301791 105.9995515  67.3162465  61.9752263 107.6647257
  66.6690380  62.6742212 107.5711733  68.0863480  62.4088406 108.0323505
  70.7241263  72.2401115 110.7397810  70.5726769  72.0111666 109.8227894
  70.7145942  73.1971716 110.7529155  67.4926599  69.8133027 105.7244077
  68.4218659  69.9644187 105.5513044  67.0717629  69.9017048 104.8692723
  66.2914931  73.8383692 103.4942614  66.1526017  73.4702476 104.3668552
  65.5029527  74.3531331 103.3226572  67.8420146  73.2165295 100.8831452
  67.5069979  73.1766065 101.7789102  67.3424092  72.5510010 100.4101862
  61.8164390  68.6232925 106.4084033  61.6784188  67.8913163 107.0095572
  62.7269314  68.5341825 106.1268221  64.4446691  68.3352884 105.8967713
  65.1546309  67.6946076 105.8554331  64.4015999  68.5865779 106.8193894
  72.4333469  75.2720237 108.8174292  72.3746016  74.5879457 108.1504875
  72.8352988  76.0139227 108.3654918  63.1575625  65.3218102 107.7163352
  62.6212982  64.8708840 108.3684949  62.5692333  65.4564011 106.9733817
  61.4524168  82.0882151 101.6108011  61.6920766  82.7200675 102.2887030
  60.6093365  81.7370191 101.8973370  72.4350877  73.2359821 107.0488272
  71.5477655  72.8985743 107.1714671  73.0049428  72.5042852 107.2857037
  58.8914746  64.4574109 104.8016347  58.8072935  63.8499779 104.0666757
  58.0697452  64.9483128 104.8025843  65.9652030  77.8961274 104.0149515
  65.8922202  78.7016245 104.5268820  65.5229423  78.0953239 103.1897536
  69.0638460  62.9427673 100.1686542  69.5607159  62.1897635  99.8487612
  68.2925441  62.9791990  99.6029751  76.9168217  68.6468039 101.8104833
  76.9058094  69.5292754 101.4398767  76.0485597  68.2939589 101.6159371
  68.4250714  77.7948108 106.1707674  69.1378686  78.4295572 106.0983575
  67.9340742  77.8911974 105.3547676  70.1468241  71.6999360  97.7424965
  69.2124519  71.8200823  97.5729670  70.3244909  70.7971827  97.4784975
  73.5340792  67.5416680  98.2774999  74.0001244  68.3744671  98.2035302
  73.9848292  67.0761661  98.9820258  63.4762627  75.5442551 106.9913245
  64.1772087  76.1779034 107.1442639  63.0057742  75.8857283 106.2308884
  71.6017023  73.8860501  95.2761152  71.8776867  73.7717095  96.1855026
  70.7321522  73.4877986  95.2373325  71.5057455  59.9097267 102.3165901
  70.5920534  60.1401493 102.4848108  71.9350556  59.9935711 103.1679933
  71.2763913  68.0987158 104.8165795  70.6235363  68.3463066 104.1618248
  71.6544293  67.2851297 104.4828272  68.2371087  78.1346852  98.9193965
  68.4193482  77.3168508  99.3821717  69.0604073  78.3514544  98.4818855
  68.5713253  77.0615037  96.1809014  69.1001019  76.5507491  95.5679176
  68.8341472  76.7457567  97.0454547  67.3251486  68.8406970 111.3031832
  66.6492123  68.7401099 111.9734207  68.1479120  68.6846183 111.7667829
  59.0730345  75.0778906 103.9244347  59.6583782  74.3322594 104.0572251
  58.8755184  75.3882863 104.8081011  66.0674269  80.1473897 105.5389448
  66.6192577  80.3105518 106.3038533  66.4080463  80.7378335 104.8669473
  61.0438762  62.4949047 106.1411333  61.1080089  63.3563878 105.7288730
  60.9805883  61.8823048 105.4083691  60.5191035  64.5672179 109.7884367
  61.1463074  64.1849257 110.4021891  59.6618954  64.3486381 110.1540059
  70.9185143  74.9735154 111.3938102  71.4625047  75.5865113 110.8993057
  70.3371988  75.5314733 111.9105115  69.2042656  78.0955873 102.5253130
  69.0793796  77.2945612 102.0164076  69.8621747  78.5902066 102.0367100
  60.8250825  64.4504605 101.7030270  60.1037410  65.0640573 101.5637744
  61.6144080  64.9862370 101.6246916  71.2677565  75.8964893 104.1532680
  70.3207900  75.7770244 104.0811007  71.6160338  75.0087391 104.2358942
  63.6277138  61.7859032 107.9770922  64.1511540  62.0321328 108.7397231
  63.4089471  62.6179066 107.5574059  68.2723998  75.6917609 100.3537032
  68.1248960  74.7634316 100.5344602  69.0977492  75.7137700  99.8694108
  71.8758120  76.5146168 101.4401905  72.8004667  76.3089029 101.3026356
  71.7073423  76.2662569 102.3491247  64.8329683  62.7272727 105.6620593
  64.4926503  61.9280540 106.0641272  64.1268689  63.0274437 105.0897426
  65.4846155  59.8122039 104.1147916  66.3072224  59.3382517 103.9926806
  65.7284218  60.5912523 104.6146602  63.0084734  66.5041160 101.9239894
  62.8629314  66.8181463 102.8164176  62.5309937  67.1226060 101.3710793
  64.8681117  63.4943708 101.9720784  64.8542685  62.5984801 101.6353082
  65.5853545  63.5014371 102.6059070  66.7207247  63.9281048 104.0173911
  66.4625025  64.8498119 104.0158242  66.1892288  63.5311482 104.7074375
  71.6653436  77.0331835  96.7963997  71.8390314  76.4678257  96.0437849
  72.1582327  77.8332730  96.6143487  57.4830396  69.0446504 104.8627555
  56.9383864  69.8206312 104.9947830  58.3609746  69.3917309 104.7046677
  67.1409203  60.0612998 100.3775074  67.1630900  60.1252331  99.4227053
  67.5577262  59.2217507 100.5715580  77.5192827  69.7968258  98.4154296
  77.9623973  69.0475583  98.0173420  76.6419338  69.7878394  98.0328028
  58.2696418  68.1716400 107.7557712  57.5278154  68.3199036 108.3422343
  57.9489162  68.4324666 106.8924462  74.5520032  73.7998305  95.4248226
  75.0771356  74.1385578  94.6997546  74.4642384  72.8645320  95.2411360
  66.2140080  77.7132379 107.5538102  66.5227207  77.4681525 108.4260802
  67.0115562  77.9179017 107.0656973  66.2360692  79.8670288  99.7843479
  65.7965683  79.3746667 100.4776336  66.9868809  79.3243256  99.5435554
  63.6834565  75.4108297 101.8565781  63.0614574  74.7479002 101.5568008
  64.3539431  75.4369429 101.1739428  63.7559092  63.8890085 111.4498287
  63.8047248  64.7652208 111.0676056  64.2981606  63.3467478 110.8769930
  74.2413938  74.4331209 110.7299424  73.4509481  74.4155347 110.1903923
  74.0047292  74.9719502 111.4848460  74.3611813  71.2823675 108.0432152
  74.4109818  71.1173682 108.9847675  74.2525736  70.4150934 107.6530033
  71.6515575  67.2654603 109.3591459  72.5525438  67.1261068 109.0675457
  71.7263550  67.4309058 110.2989636  65.9858381  64.6421458 108.2044645
  65.1161690  64.9355024 107.9327234  66.2217861  65.2261903 108.9251909
  75.8630010  73.7020616 108.2874174  75.5714818  74.0650597 109.1237635
  75.2502141  72.9887625 108.1087506  77.0625692  71.2673496 100.8076744
  77.8972583  71.7063300 100.9714304  77.1984821  70.7912149  99.9884990
  74.1117198  68.8253231 106.7554232  74.5871319  69.0180877 105.9473083
  73.1882763  68.8812417 106.5097615  68.6897414  60.8601075 105.7210066
  69.2079358  61.5962102 105.3956554  68.3352547  61.1665068 106.5556825
  68.9410009  57.2801357 101.2410962  69.2211762  56.6124546 101.8671389
  69.7260615  57.4730453 100.7285626  72.8118867  65.7018991 104.9882537
  73.7636290  65.8017089 105.0094761  72.6422317  64.9097260 105.4980622
  70.8333246  62.7874574 105.1741938  70.2383178  63.0679587 104.4788427
  70.5482943  63.2768475 105.9458679  69.9640737  76.7397501  93.9344571
  70.8971410  76.6743063  94.1377446  69.8763950  77.5753768  93.4759103
  75.2906945  68.9225111 104.1024837  75.2583265  67.9841112 104.2884521
  75.9007568  69.0009148 103.3690662  75.4401433  65.7136154 104.1483120
  74.9240482  64.9294611 103.9613049  76.3241382  65.3854871 104.3129640
  73.1012160  59.4577170 100.1078933  72.9036981  59.1492258 100.9922265
  73.7111866  60.1838809 100.2376863  81.1083494  69.9841118 103.2430874
  81.8386883  69.7226406 103.8038577  80.4990440  69.2469840 103.2832942
  79.1898792  68.1248980 103.8405325  78.4631955  67.9904945 103.2321817
  78.7746078  68.4325809 104.6462043  67.0128968  71.8438910 111.6052698
  67.9331978  72.0217509 111.7992744  66.9778551  70.8994955 111.4532397
  60.0091041  69.7539945 104.2475479  60.2277050  70.6857052 104.2663513
  60.4216814  69.3947919 105.0330283  66.9295258  60.2608030  96.2351168
  66.1195987  59.9155115  96.6106414  67.6179675  59.9515574  96.8238779
  68.8585807  59.3386077  97.8575464  69.4116845  59.7581530  98.5165487
  69.0955893  58.4121825  97.8998420  64.8818906  65.3273150 113.6378228
  64.7815633  66.2767507 113.5690319  64.6640448  64.9991389 112.7654298
  72.2364614  61.4486602  97.3654128  71.6563283  62.1071406  96.9832181
  71.9700546  60.6263946  96.9541546  70.6868180  60.8491660  99.5675449
  71.1867958  60.9608194  98.7589768  71.3303788  60.5452712 100.2076257
  64.7450176  68.7570289 112.4543290  64.2617258  69.5570649 112.6607179
  64.8311115  68.7678234 111.5010734  60.6723513  72.6474824 104.4911723
  61.6266767  72.6158766 104.4241655  60.4736037  72.1865448 105.3061949
  61.2622896  71.2175940 107.0582521  62.0815785  71.7120019 107.0817358
  61.5359703  70.3007908 107.0300089  71.0189492  63.6086692  96.4210477
  70.1315347  63.8936343  96.2030671  71.4343481  63.4480456  95.5737754
  74.3704028  63.6333213 100.1364816  75.1464418  64.1229666 100.4089433
  73.6452162  64.0591267 100.5936685  76.8076587  64.3460832 101.1938757
  77.4021077  64.1056568 100.4832065  76.8803170  63.6267963 101.8212293
  59.0273742  78.1894443 101.5081921  58.8928210  77.4294844 100.9419919
  58.6105805  78.9135343 101.0410710  74.8035321  64.9130960  97.4610886
  74.5472256  64.5127596  98.2919094  74.1788189  65.6274754  97.3361025
  79.1147659  67.6527033  99.9682178  78.5547217  67.7220223 100.7413740
  78.5091163  67.4768018  99.2481674  62.1842868  79.0863760 101.7200364
  62.0675252  80.0309193 101.6179054  61.3635314  78.7837322 102.1086163
  56.5157810  65.5514074 107.7574718  57.1616673  65.0413028 108.2461943
  56.3074961  66.2882755 108.3318143  69.0411202  72.6194921 113.2566859
  69.9102362  72.7935574 112.8953494  68.5617953  73.4389338 113.1342588
  65.0361420  59.8154118  93.5098614  65.0240090  60.7595958  93.6666885
  65.9284842  59.6324264  93.2158076  63.2097382  79.7392022 104.9356292
  64.1124629  79.7715633 105.2522787  62.9834752  78.8092473 104.9502628
  64.9650984  78.4923009 101.5966371  64.0146615  78.4924870 101.4830743
  65.2683470  77.7455743 101.0802406  68.8513540  56.4096895  97.7644551
  68.0845936  55.8555382  97.9101234  69.2624245  56.4818764  98.6258703
  60.8555301  62.6981691 111.8549732  61.7186762  62.3418496 112.0653057
  60.2820711  62.3595586 112.5425137  80.7003678  84.3283547 102.6612133
  81.3382088  84.2090295 101.9575474  80.5824521  85.2764391 102.7200086
  77.5093384  84.2810975 102.5973658  77.1711896  84.1652040 101.7094193
  78.3783152  83.8802140 102.5774664  73.3680200  86.1346452  98.5870549
  72.8045065  86.0436389  97.8186837  73.2532595  85.3146356  99.0673042
  77.9913167  85.4345827 108.5559864  77.9801808  85.0398625 107.6840367
  78.1533806  84.7011900 109.1493635  70.9144632  87.6297643 101.4254770
  71.7065924  87.2888468 101.0101069  71.1541282  87.7392618 102.3456923
  78.9479758  89.8017419  93.8985014  78.2967738  90.3871500  93.5119028
  79.7424121  90.3323614  93.9580051  72.8735386  86.8906557  94.2972148
  73.6466262  86.3435544  94.1585024  73.2260784  87.7550806  94.5086610
  74.7120428  88.2182939 107.5039048  74.4210294  89.1228570 107.3885714
  75.3477413  88.2599467 108.2183117  75.6376635  85.5959787 104.0940407
  76.2340207  85.3715810 103.3797370  75.6951607  84.8544533 104.6965855
  75.2101663  83.0499223  91.9290598  75.4627184  82.5280744  91.1674061
  74.2726223  82.8865368  92.0317282  80.2544946  82.0535001  99.7365341
  81.0408035  81.6354424  99.3855759  80.5183651  82.9581093  99.9046990
  80.4255024  87.4907851  94.4353998  79.7900857  87.5642478  95.1474903
  80.0952430  88.0801450  93.7573078  85.6553373  81.9910234 100.6398320
  86.3878545  81.4209451 100.8736149  84.8992729  81.6031835 101.0804826
  74.9297952  84.9527329  94.1314973  74.8134210  84.2772232  94.7996058
  75.0400212  84.4659703  93.3147126  77.2729493  84.4137476  97.8361662
  76.9087700  83.8868097  98.5474584  78.1296609  84.0235945  97.6628148
  83.1778794  75.7031808 105.0992929  82.8462118  76.5727219 104.8754144
  82.5824407  75.3868092 105.7786959  76.9134980  79.4427376  92.8323011
  77.0809382  80.3107612  93.1993482  76.7232149  79.6054657  91.9084300
  79.6710313  87.9044354 104.4988841  79.3711036  88.8069393 104.3904649
  79.3261373  87.6376538 105.3509994  73.1222795  84.3558151 100.5325546
  72.1973291  84.2234365 100.7403238  73.3707208  85.1352371 101.0295488
  83.0707457  80.4226895 102.1786279  82.1624334  80.3542303 101.8845040
  83.0195053  80.8998840 103.0068104  76.8924201  81.8985033  93.8169678
  76.7723826  82.3442084  94.6555158  76.1976789  82.2470351  93.2583216
  70.4831606  83.9991425 101.3669335  70.6123987  84.2525904 102.2808747
  69.8029057  84.5919133 101.0473990  74.6531093  94.6688675  97.4659809
  74.5755123  95.6196500  97.5448290  74.0492737  94.3234547  98.1234735
  77.1448323  81.8416540 110.1221176  76.3681657  82.4010460 110.1124041
  77.7838886  82.3273323 110.6436046  84.9369103  78.6243333 103.9564153
  84.2943484  78.9175866 103.3103947  84.4324032  78.5096253 104.7617349
  82.5909267  82.3706506  94.6450012  83.5027123  82.6033893  94.4697709
  82.0818914  82.9543550  94.0825090  75.3994695  84.6501994 109.6839143
  76.1409379  85.1887038 109.4073967  74.6931681  85.2768282 109.8410695
  80.8750035  86.7931134 108.2811304  81.2833391  86.3513545 107.5365937
  80.1527296  86.2183762 108.5345497  77.2281105  81.7303741 105.6544861
  78.0742300  82.1543154 105.7979510  77.1679742  81.0737365 106.3483424
  81.1978849  87.3532325 102.0363593  80.5687712  87.5178039 101.3339661
  80.8104511  87.7673934 102.8074557  85.0768081  88.2886762  99.3907957
  84.3919119  88.6685664  98.8404990  85.1611931  88.8982089 100.1239905
  80.3780550  79.3908109 107.3126035  80.1341482  80.1450170 106.7760311
  80.6540481  79.7693457 108.1473282  82.3319013  85.9346722 105.9903301
  82.5435908  86.5778481 105.3137682  82.2848761  85.1009038 105.5225231
  79.9345242  78.5464542 102.8939873  79.0729721  78.8445796 103.1856610
  79.9607677  78.7634941 101.9620905  76.7506811  87.0906733  99.3013678
  77.2145157  87.3694436  98.5118301  76.4863609  86.1890177  99.1186769
  73.6430892  86.6378214 102.2393442  74.2132249  87.0665483 101.6010926
  74.2339004  86.3560799 102.9377627  75.6875697  83.2129885  96.1103244
  76.3899741  83.6650929  96.5777170  75.3556326  82.5713704  96.7383137
  74.1356059  81.8041642 110.4854453  73.5054719  82.4857923 110.7189850
  74.0292147  81.6924723 109.5407591  69.4301031  81.4713438 101.4120377
  68.6400085  81.7270966 100.9360488  69.9212279  82.2861776 101.5172418
  83.4464841  88.8118677 104.1625658  84.2682285  88.4098864 103.8808340
  83.4427244  88.7086911 105.1141774  71.3815777  81.8358017  98.3703854
  70.5846940  81.9476711  98.8887349  71.1541369  82.1744669  97.5044744
  77.2121444  88.3602720 106.3186368  77.2765877  88.8223127 107.1544540
  76.5032368  87.7300085 106.4468678  67.7138734  81.7243928 103.8435368
  67.9646773  82.6090938 104.1092944  68.2498283  81.5448530 103.0710460
  91.5370834  85.1557425 100.5110629  90.7834542  84.5864823 100.3554634
  91.6718375  85.1220090 101.4581264  76.9269462  90.0270828  96.1865349
  76.7915137  90.8722363  96.6150197  77.4679274  90.2290105  95.4231283
  73.4136802  76.1062408 112.8479704  73.0203747  75.5528606 113.5227348
  74.2302942  76.4172986 113.2386222  70.3798859  87.5446266  96.7593274
  70.8923380  88.3389516  96.9098839  71.0321572  86.8472556  96.6926875
  72.1893744  90.6612022  98.8416027  72.3660372  91.5829987  98.6537011
  72.9850578  90.3470441  99.2710407  76.3304763  77.5220287 110.4399961
  77.0714476  78.1227440 110.3604423  76.5622685  76.7797924 109.8818003
  71.4746101  82.7076654 108.7178190  71.3599616  81.8061911 109.0185289
  70.6190618  82.9540351 108.3663007  78.5537938  90.6494394 110.3165691
  78.1101793  89.8630773 109.9986595  79.2155152  90.8373545 109.6509582
  73.3125060  92.1790196 104.8426369  73.8632485  92.0507259 104.0703363
  72.4736535  92.4785085 104.4921262  80.6519176  90.9297194 108.3447092
  80.6337652  91.7506075 107.8527361  81.5739096  90.8051269 108.5697233
  77.1092231  88.4441324 109.1870600  77.6420567  87.6829612 108.9569908
  76.5806312  88.1514975 109.9294755  80.2761926  73.5501390 104.7164242
  79.9326195  74.4403031 104.6403353  80.6440888  73.3603047 103.8533827
  68.3447776  85.8734920  97.5352844  69.1822998  86.2831928  97.3186552
  68.5226044  84.9334362  97.5053038  80.2412208  83.5410001  93.2236677
  79.7258832  84.3114605  93.4625065  79.9689517  82.8675137  93.8469739
  77.8259319  78.3859701  98.2821916  76.9700916  77.9966552  98.1027554
  78.2386271  78.4651662  97.4221701  79.3558466  75.9206045 102.6813475
  78.8523262  75.8836180 101.8681281  79.6489073  76.8298787 102.7410132
  75.6001352  76.0044774 101.6879657  76.4654349  75.8087583 101.3285547
  75.6678861  75.7755126 102.6149014  85.2146482  86.2942355  95.1589851
  84.4375925  85.9553515  94.7145013  85.8937963  86.2994979  94.4844816
  80.0298511  81.4137093  95.0496459  79.7248647  81.7283242  95.9006602
  80.9828954  81.4918513  95.0923792  78.4744943  87.5727316  96.6989412
  77.9466305  86.8380076  96.3862650  77.9732446  88.3501992  96.4529381
  83.4537789  85.7676337 101.8156459  82.7961464  86.4575598 101.9036587
  84.2578188  86.1572769 102.1590445  73.2063671  78.2346982  99.0596024
  73.7807423  78.0122164  98.3269217  73.7934653  78.3035677  99.8124625
  82.2643248  84.1220709  99.8660401  82.7775130  84.7550701 100.3682110
  82.9144472  83.5221905  99.5003761  73.5333258  80.2651443  93.0791909
  72.6970570  80.6026130  93.4001184  73.3938028  80.1300423  92.1419046
  75.5086339  75.1088231  97.7871093  74.8550751  74.7937248  97.1627708
  75.4666813  74.4863972  98.5130916  76.6197543  85.3907526  89.7024386
  75.7124605  85.1596780  89.9015534  77.1168575  84.5945146  89.8898367
  79.5265622  94.1005034  92.6221072  78.8527321  94.4036730  93.2306030
  79.9131444  94.9034114  92.2726529  78.7424079  81.5970165 102.1118741
  77.8246640  81.8185112 101.9540429  79.1584223  81.6716475 101.2530448
  79.5259127  82.9961581  97.2421421  80.2730946  83.5082978  96.9328543
  79.7950716  82.6745633  98.1025815  77.7985777  85.4920121  94.2248376
  76.8896996  85.2079154  94.3220845  77.8280861  85.9119200  93.3651682
  83.0305044  89.1026711  97.9939543  82.5767371  88.2617621  98.0504734
  82.3999011  89.7388109  98.3314323  81.9737964  80.0318697  99.2240211
  81.2360721  79.5196083  99.5550453  82.2264737  79.5919078  98.4123487
  81.4737984  90.9403207  98.9289361  81.7660958  91.5008265  98.2101727
  81.9836604  91.2331768  99.6842520  82.0749591  72.8094949  99.8181980
  82.3808468  71.9492312  99.5307895  82.8002196  73.4012569  99.6180974
  68.3673947  83.2125635  98.2063578  68.1698347  82.6194996  97.4814644
  67.8120611  82.9077846  98.9239517  76.3470671  83.1048742 100.3258171
  76.4019281  82.1522578 100.2500648  75.5361873  83.2608181 100.8099469
  77.4961865  87.0328865  91.5636454  77.0581295  86.3164724  91.1042092
  78.2372306  87.2604980  91.0021546  74.2863031  81.7225802  98.0848550
  73.4730896  82.0219972  98.4913742  74.7822025  81.3281490  98.8023032
  76.4371609  91.7183559 100.0182815  76.3947788  91.9444405  99.0891347
  77.3534308  91.4846933 100.1668616  79.8837243  82.1867626 106.9163444
  80.2386630  82.4139099 107.7757909  80.5309374  82.5186003 106.2940699
  85.6134979  85.3086062  97.6212773  85.4752878  85.4987658  96.6933962
  85.2571198  86.0705445  98.0780824  73.7777106  79.2944157 103.7009785
  74.4176485  79.1532916 103.0032748  72.9454636  79.0078671 103.3248387
  85.6404359  87.3762589 102.6324044  86.0740866  87.2837878 103.4807098
  86.3535940  87.3520089 101.9944060  74.5537410  88.5946588  99.8144777
  75.3478008  88.0996908  99.6127352  73.8429102  88.0664451  99.4512483
  79.3732254  90.9764683 104.1657145  79.4269276  91.5455619 104.9334861
  78.5047035  91.1466568 103.8011182  70.8620173  82.7389669  95.8904530
  69.9317761  82.6774125  96.1074492  70.9577645  82.2165622  95.0941171
  70.7805722  79.2644482  98.4782772  71.0412539  80.1789815  98.3691932
  71.6022894  78.7968925  98.6279384  72.2530647  80.6782239 105.6481596
  72.9253701  80.4699601 104.9994245  71.4260434  80.4804325 105.2086828
  86.5019909  87.4186290 105.1656930  86.6955799  88.3232100 105.4116205
  86.4020527  86.9593709 105.9995515  78.1556219  77.3044180 107.6647257
  77.5084134  78.0034130 107.5711733  78.9257235  77.7380324 108.0323505
  81.5635017  87.5693032 110.7397810  81.4120524  87.3403584 109.8227894
  81.5539697  88.5263634 110.7529155  78.3320354  85.1424945 105.7244077
  79.2612414  85.2936105 105.5513044  77.9111384  85.2308966 104.8692723
  77.1308686  89.1675610 103.4942614  76.9919771  88.7994394 104.3668552
  76.3423282  89.6823249 103.3226572  77.7256837  94.2684706  94.8368151
  77.9008593  93.7972749  95.6513774  77.0389625  94.8950472  95.0649412
  78.6813901  88.5457212 100.8831452  78.3463733  88.5057982 101.7789102
  78.1817846  87.8801928 100.4101862  72.6558145  83.9524842 106.4084033
  72.5177943  83.2205081 107.0095572  73.5663068  83.8633742 106.1268221
  81.6173092  85.8913247  91.1568512  81.0002263  85.1660075  91.0601564
  81.1489581  86.6522607  90.8135586  75.2840445  83.6644802 105.8967713
  75.9940064  83.0237994 105.8554331  75.2409753  83.9157696 106.8193894
  83.2727224  90.6012155 108.8174292  83.2139770  89.9171375 108.1504875
  83.6746742  91.3431145 108.3654918  73.9969379  80.6510019 107.7163352
  73.4606736  80.2000758 108.3684949  73.4086088  80.7855928 106.9733817
  72.2917923  97.4174069 101.6108011  72.5314521  98.0492593 102.2887030
  71.4487119  97.0662109 101.8973370  73.4071638  80.1098671  90.2789816
  72.5301105  79.9887472  89.9152063  73.8829391  79.3184749  90.0268705
  83.2744631  88.5651739 107.0488272  82.3871410  88.2277661 107.1714671
  83.8443182  87.8334770 107.2857037  64.9273778  84.8975831 100.3731323
  65.6144818  84.5837561  99.7852339  64.7721907  85.8017195 100.0998575
  69.7308500  79.7866027 104.8016347  69.6466689  79.1791697 104.0666757
  68.9091207  80.2775045 104.8025843  76.8045785  93.2253191 104.0149515
  76.7315956  94.0308163 104.5268820  76.3623178  93.4245157 103.1897536
  76.5935564  92.4624961  97.5252337  75.8103086  93.0046641  97.6190561
  77.2928309  92.9798941  97.9246578  79.9032214  78.2719591 100.1686542
  80.4000914  77.5189553  99.8487612  79.1319196  78.3083907  99.6029751
  87.7561972  83.9759956 101.8104833  87.7451848  84.8584672 101.4398767
  86.8879351  83.6231507 101.6159371  79.2644468  93.1240025 106.1707674
  79.9772440  93.7587490 106.0983575  78.7734497  93.2203891 105.3547676
  80.9861995  87.0291278  97.7424965  80.0518274  87.1492740  97.5729670
  81.1638664  86.1263745  97.4784975  76.4867183  80.4136974  99.8958227
  76.1164971  79.8608014 100.5839132  76.9826276  79.8095107  99.3433227
  84.3734546  82.8708597  98.2774999  84.8394999  83.7036589  98.2035302
  84.8242047  82.4053579  98.9820258  74.3156382  90.8734469 106.9913245
  75.0165841  91.5070952 107.1442639  73.8451497  91.2149200 106.2308884
  82.4410778  89.2152418  95.2761152  82.7170621  89.1009013  96.1855026
  81.5715276  88.8169903  95.2373325  82.3451209  75.2389184 102.3165901
  81.4314289  75.4693411 102.4848108  82.7744311  75.3227628 103.1679933
  82.1157668  83.4279076 104.8165795  81.4629118  83.6754984 104.1618248
  82.4938048  82.6143214 104.4828272  79.0764842  93.4638769  98.9193965
  79.2587236  92.6460425  99.3821717  79.8997828  93.6806462  98.4818855
  79.4107007  92.3906954  96.1809014  79.9394773  91.8799409  95.5679176
  79.6735227  92.0749485  97.0454547  78.1645241  84.1698887 111.3031832
  77.4885878  84.0693017 111.9734207  78.9872875  84.0138101 111.7667829
  69.9124100  90.4070824 103.9244347  70.4977537  89.6614512 104.0572251
  69.7148938  90.7174780 104.8081011  72.7662755  93.4422071  98.9406790
  72.0973130  93.9268199  98.4570830  72.6275625  93.6891292  99.8550168
  64.5041754  82.9776424 102.6448790  64.5425854  82.4440015 103.4385908
  63.9982047  82.4511629 102.0259768  76.9068024  95.4765815 105.5389448
  77.4586332  95.6397436 106.3038533  77.2474217  96.0670252 104.8669473
  71.8832517  77.8240964 106.1411333  71.9473843  78.6855795 105.7288730
  71.8199637  77.2114966 105.4083691  71.3584789  79.8964097 109.7884367
  71.9856828  79.5141174 110.4021891  70.5012708  79.6778299 110.1540059
  68.1350332  81.7040526  95.7202722  68.4303773  80.7951205  95.6669775
  67.2338368  81.6828266  95.3983724  80.0436411  93.4247790 102.5253130
  79.9187550  92.6237530 102.0164076  80.7015502  93.9193984 102.0367100
  71.6644579  79.7796523 101.7030270  70.9431165  80.3932490 101.5637744
  72.4537835  80.3154288 101.6246916  82.1071319  91.2256810 104.1532680
  81.1601655  91.1062161 104.0811007  82.4554092  90.3379308 104.2358942
  74.4670893  77.1150949 107.9770922  74.9905294  77.3613246 108.7397231
  74.2483226  77.9470984 107.5574059  69.8638174  79.3854624  95.8442047
  69.5350880  78.5052003  95.6617153  70.2177544  79.3302292  96.7318436
  79.1117753  91.0209526 100.3537032  78.9642715  90.0926234 100.5344602
  79.9371246  91.0429617  99.8694108  72.9779997  79.6727594  96.2117525
  73.3176069  80.2013515  95.4896133  73.4252117  80.0108000  96.9876091
  82.7151874  91.8438085 101.4401905  83.6398422  91.6380947 101.3026356
  82.5467178  91.5954486 102.3491247  75.6723438  78.0564644 105.6620593
  75.3320258  77.2572457 106.0641272  74.9662444  78.3566355 105.0897426
  76.3239909  75.1413957 104.1147916  77.1465979  74.6674435 103.9926806
  76.5677973  75.9204440 104.6146602  74.9648144  78.1702215  94.4110817
  75.6856506  78.5483468  93.9074534  74.3413448  78.8891092  94.5145795
  79.1079267  78.8747364  95.3469150  79.3242881  79.7572002  95.0457978
  78.6273334  78.4833578  94.6174792  73.8478488  81.8333077 101.9239894
  73.7023069  82.1473380 102.8164176  73.3703692  82.4517978 101.3710793
  75.7074871  78.8235625 101.9720784  75.6936440  77.9276719 101.6353082
  76.4247299  78.8306289 102.6059070  77.5601002  79.2572966 104.0173911
  77.3018780  80.1790036 104.0158242  77.0286042  78.8603400 104.7074375
  82.5047191  92.3623753  96.7963997  82.6784068  91.7970175  96.0437849
  82.9976082  93.1624648  96.6143487  68.3224150  84.3738422 104.8627555
  67.7777618  85.1498230 104.9947830  69.2003500  84.7209226 104.7046677
  75.1111767  77.7050006  97.2408354  75.2327678  76.7766652  97.4399241
  74.8213809  77.7188692  96.3286669  77.9802957  75.3904916 100.3775074
  78.0024654  75.4544249  99.4227053  78.3971016  74.5509425 100.5715580
  88.3586582  85.1260176  98.4154296  88.8017728  84.3767501  98.0173420
  87.4813092  85.1170312  98.0328028  83.4922363  91.6790517  93.8960895
  84.1873268  92.2997210  94.1148210  83.8345513  90.8285868  94.1713273
  69.1090172  83.5008318 107.7557712  68.3671908  83.6490953 108.3422343
  68.7882917  83.7616584 106.8924462  85.3913786  89.1290223  95.4248226
  85.9165110  89.4677495  94.6997546  85.3036139  88.1937238  95.2411360
  77.0533835  93.0424296 107.5538102  77.3620961  92.7973443 108.4260802
  77.8509317  93.2470935 107.0656973  77.0754447  95.1962206  99.7843479
  76.6359437  94.7038585 100.4776336  77.8262564  94.6535174  99.5435554
  69.5546786  91.3873747  99.7868107  70.3804806  91.0877519  99.4066750
  69.2040838  90.6181369 100.2357896  74.5228319  90.7400215 101.8565781
  73.9008328  90.0770920 101.5568008  75.1933186  90.7661347 101.1739428
  67.7555391  89.3060073 100.7457041  66.9187299  88.8782248 100.5641042
  67.7279036  89.4992517 101.6827832  74.5952847  79.2182003 111.4498287
  74.6441002  80.0944126 111.0676056  75.1375361  78.6759396 110.8769930
  85.2005567  86.6115593 108.0432152  85.2503572  86.4465600 108.9847675
  85.0919491  85.7442852 107.6530033  74.0841826  89.2904138  95.3324241
  74.2329946  89.9739603  94.6790914  74.8908269  89.2709228  95.8473697
  82.4909330  82.5946521 109.3591459  83.3919192  82.4552985 109.0675457
  82.5657304  82.7600975 110.2989636  76.8252135  79.9713375 108.2044645
  75.9555444  80.2646941 107.9327234  77.0611615  80.5553820 108.9251909
  86.7023764  89.0312534 108.2874174  86.4108572  89.3942515 109.1237635
  86.0895895  88.3179542 108.1087506  87.9019446  86.5965414 100.8076744
  88.7366338  87.0355218 100.9714304  88.0378575  86.1204067  99.9884990
  84.9510952  84.1545149 106.7554232  85.4265074  84.3472795 105.9473083
  84.0276518  84.2104335 106.5097615  71.8394459  85.3169316  96.3385310
  71.5940501  84.4131646  96.5365520  72.0090373  85.3186466  95.3964788
  79.5291169  76.1892992 105.7210066  80.0473113  76.9254019 105.3956554
  79.1746302  76.4956986 106.5556825  71.1090106  81.0497674  93.8371471
  70.4159351  81.1242029  93.1811507  70.8641858  80.2858017  94.3592988
  79.7803763  72.6093275 101.2410962  80.0605517  71.9416464 101.8671389
  80.5654370  72.8022370 100.7285626  77.5837231  91.7852269  92.8035988
  77.0111199  92.4042456  92.3506460  78.1570025  92.3351630  93.3375910
  83.6512621  81.0310909 104.9882537  84.6030044  81.1309007 105.0094761
  83.4816072  80.2389177 105.4980622  81.6727001  78.1166492 105.1741938
  81.0776933  78.3971505 104.4788427  81.3876698  78.6060393 105.9458679
  80.8034491  92.0689419  93.9344571  81.7365164  92.0034981  94.1377446
  80.7157704  92.9045686  93.4759103  83.4322508  91.3855289  90.8948518
  83.3536139  91.0515153  91.7884276  84.2532175  91.8777057  90.8939991
  86.1300699  84.2517029 104.1024837  86.0977019  83.3133029 104.2884521
  86.7401323  84.3301065 103.3690662  77.9684030  83.1213082  90.1452041
  78.9143135  82.9919290  90.2140459  77.5898275  82.3827743  90.6221469
  86.2795188  81.0428072 104.1483120  85.7634236  80.2586529 103.9613049
  87.1635136  80.7146789 104.3129640  83.9405915  74.7869088 100.1078933
  83.7430736  74.4784176 100.9922265  84.5505620  75.5130726 100.2376863
  91.9477249  85.3133035 103.2430874  92.6780637  85.0518324 103.8038577
  91.3384194  84.5761757 103.2832942  90.0292546  83.4540898 103.8405325
  89.3025710  83.3196863 103.2321817  89.6139833  83.7617727 104.6462043
  77.8522723  87.1730828 111.6052698  78.7725732  87.3509427 111.7992744
  77.8172306  86.2286873 111.4532397  76.1526947  81.0463058  90.0806926
  75.2458403  80.7496171  90.1569640  76.4302928  80.7492876  89.2141212
  67.0704888  82.3669421 100.5305973  66.7507672  81.5134730 100.2380347
  66.5238316  82.5817999 101.2863940  70.8484795  85.0831862 104.2475479
  71.0670805  86.0148970 104.2663513  71.2610569  84.7239837 105.0330283
  77.7689013  75.5899948  96.2351168  76.9589741  75.2447033  96.6106414
  78.4573430  75.2807491  96.8238779  79.6979561  74.6677994  97.8575464
  80.2510600  75.0873448  98.5165487  79.9349648  73.7413743  97.8998420
  75.7212660  80.6565068 113.6378228  75.6209387  81.6059425 113.5690319
  75.5034202  80.3283307 112.7654298  66.9393148  85.9872333 102.4999094
  66.2456619  85.5726286 101.9869049  67.6866139  86.0292869 101.9032513
  83.0758368  76.7778520  97.3654128  82.4957037  77.4363324  96.9832181
  82.8094301  75.9555864  96.9541546  81.5261935  76.1783577  99.5675449
  82.0261713  76.2900112  98.7589768  82.1697543  75.8744630 100.2076257
  75.5843930  84.0862207 112.4543290  75.1011012  84.8862567 112.6607179
  75.6704869  84.0970152 111.5010734  68.8529890  85.9190587 100.3765109
  68.8300578  86.0178274  99.4246992  69.1630527  86.7655737 100.6982275
  71.5117268  87.9766742 104.4911723  72.4660521  87.9450684 104.4241655
  71.3129792  87.5157365 105.3061949  72.1016650  86.5467858 107.0582521
  72.9209539  87.0411936 107.0817358  72.3753458  85.6299826 107.0300089
  81.8583246  78.9378610  96.4210477  80.9709101  79.2228261  96.2030671
  82.2737235  78.7772373  95.5737754  85.2097782  78.9625131 100.1364816
  85.9858173  79.4521583 100.4089433  84.4845917  79.3883185 100.5936685
  87.6470341  79.6752750 101.1938757  88.2414832  79.4348486 100.4832065
  87.7196925  78.9559881 101.8212293  69.8667497  93.5186361 101.5081921
  69.7321965  92.7586762 100.9419919  69.4499559  94.2427261 101.0410710
  81.0026460  88.7023285  90.5158497  81.7062310  88.9073287  91.1316152
  80.2789109  89.2700047  90.7807580  81.8324270  84.4533146  96.6360767
  81.7759471  84.9101697  95.7968399  82.3852612  83.6923830  96.4583610
  85.6429076  80.2422878  97.4610886  85.3866010  79.8419513  98.2919094
  85.0181944  80.9566672  97.3361025  89.9541414  82.9818951  99.9682178
  89.3940972  83.0512140 100.7413740  89.3484917  82.8059936  99.2481674
  73.0236623  94.4155678 101.7200364  72.9069007  95.3601111 101.6179054
  72.2029069  94.1129240 102.1086163  82.9113157  89.1405814  92.5656957
  83.7458761  88.7087012  92.3834431  82.7497500  88.9687828  93.4933851
  82.5659049  85.6437927  93.9313296  82.5107853  85.4782199  92.9901740
  81.9405105  86.3513960  94.0875486  67.3551564  80.8805992 107.7574718
  68.0010428  80.3704945 108.2461943  67.1468715  81.6174673 108.3318143
  75.8755175  75.1446036  93.5098614  75.8633845  76.0887876  93.6666885
  76.7678597  74.9616182  93.2158076  74.0491137  95.0683940 104.9356292
  74.9518383  95.1007550 105.2522787  73.8228507  94.1384391 104.9502628
  75.8044739  93.8214927 101.5966371  74.8540370  93.8216788 101.4830743
  76.1077225  93.0747661 101.0802406  79.6907294  71.7388813  97.7644551
  78.9239690  71.1847299  97.9101234  80.1017999  71.8110682  98.6258703
  71.6949055  78.0273609 111.8549732  72.5580517  77.6710413 112.0653057
  71.1214466  77.6887503 112.5425137  88.3487139  99.6102893 102.5973658
  88.0105650  99.4943958 101.7094193  89.2176907  99.2094058 102.5774664
  84.2073954 101.4638369  98.5870549  83.6438819 101.3728306  97.8186837
  84.0926349 100.6438274  99.0673042  81.7538386 102.9589561 101.4254770
  82.5459678 102.6180386 101.0101069  81.9935036 103.0684536 102.3456923
  89.7873513 105.1309337  93.8985014  89.1361493 105.7163418  93.5119028
  90.5817876 105.6615532  93.9580051  83.7129140 102.2198474  94.2972148
  84.4860016 101.6727461  94.1585024  84.0654539 103.0842724  94.5086610
  86.0495418  98.3791140  91.9290598  86.3020939  97.8572662  91.1674061
  85.1119977  98.2157286  92.0317282  91.0938701  97.3826919  99.7365341
  91.8801790  96.9646342  99.3855759  91.3577405  98.2873011  99.9046990
  91.2648778 102.8199769  94.4353998  90.6294611 102.8934396  95.1474903
  90.9346184 103.4093368  93.7573078  96.4947128  97.3202152 100.6398320
  97.2272300  96.7501369 100.8736149  95.7386484  96.9323752 101.0804826
  85.7691707 100.2819246  94.1314973  85.6527965  99.6064150  94.7996058
  85.8793967  99.7951620  93.3147126  88.1123248  99.7429393  97.8361662
  87.7481455  99.2160014  98.5474584  88.9690363  99.3527863  97.6628148
  94.0172548  91.0323726 105.0992929  93.6855873  91.9019137 104.8754144
  93.4218162  90.7160010 105.7786959  87.7528735  94.7719293  92.8323011
  87.9203137  95.6399530  93.1993482  87.5625904  94.9346575  91.9084300
  83.9616549  99.6850069 100.5325546  83.0367046  99.5526283 100.7403238
  84.2100962 100.4644288 101.0295488  87.7317955  97.2276951  93.8169678
  87.6117581  97.6734001  94.6555158  87.0370544  97.5762268  93.2583216
  81.3225360  99.3283342 101.3669335  81.4517741  99.5817821 102.2808747
  80.6422812  99.9211050 101.0473990  85.4924848 109.9980592  97.4659809
  85.4148877 110.9488418  97.5448290  84.8886491 109.6526465  98.1234735
  93.4303022  97.6998424  94.6450012  94.3420878  97.9325811  94.4697709
  92.9212669  98.2835468  94.0825090  90.7738996  93.8756460 102.8939873
  89.9123475  94.1737713 103.1856610  90.8001431  94.0926859 101.9620905
  87.5900566 102.4198650  99.3013678  88.0538911 102.6986353  98.5118301
  87.3257364 101.5182095  99.1186769  84.4824647 101.9670132 102.2393442
  85.0526004 102.3957400 101.6010926  85.0732759 101.6852717 102.9377627
  86.5269452  98.5421803  96.1103244  87.2293495  98.9942846  96.5777170
  86.1950080  97.9005622  96.7383137  80.2694786  96.8005355 101.4120377
  79.4793840  97.0562884 100.9360488  80.7606033  97.6153693 101.5172418
  82.2209531  97.1649935  98.3703854  81.4240694  97.2768629  98.8887349
  81.9935123  97.5036587  97.5044744  78.5532489  97.0535846 103.8435368
  78.8040527  97.9382856 104.1092944  79.0892037  96.8740447 103.0710460
  87.7663216 105.3562745  96.1865349  87.6308891 106.2014281  96.6150197
  88.3073029 105.5582023  95.4231283  81.2192614 102.8738183  96.7593274
  81.7317134 103.6681434  96.9098839  81.8715327 102.1764474  96.6926875
  83.0287499 105.9903940  98.8416027  83.2054127 106.9121904  98.6537011
  83.8244332 105.6762359  99.2710407  91.1155680  88.8793307 104.7164242
  90.7719949  89.7694949 104.6403353  91.4834643  88.6894965 103.8533827
  79.1841531 101.2026838  97.5352844  80.0216753 101.6123846  97.3186552
  79.3619798 100.2626280  97.5053038  91.0805963  98.8701918  93.2236677
  90.5652586  99.6406523  93.4625065  90.8083271  98.1967055  93.8469739
  88.6653074  93.7151619  98.2821916  87.8094670  93.3258470  98.1027554
  89.0780026  93.7943580  97.4221701  90.1952220  91.2497962 102.6813475
  89.6917016  91.2128098 101.8681281  90.4882827  92.1590705 102.7410132
  86.4395106  91.3336692 101.6879657  87.3048103  91.1379501 101.3285547
  86.5072615  91.1047044 102.6149014  96.0540237 101.6234273  95.1589851
  95.2769680 101.2845433  94.7145013  96.7331718 101.6286896  94.4844816
  90.8692266  96.7429010  95.0496459  90.5642401  97.0575160  95.9006602
  91.8222708  96.8210430  95.0923792  89.3138698 102.9019234  96.6989412
  88.7860059 102.1671993  96.3862650  88.8126200 103.6793910  96.4529381
  84.0457425  93.5638900  99.0596024  84.6201177  93.3414082  98.3269217
  84.6328408  93.6327595  99.8124625  93.1037003  99.4512627  99.8660401
  93.6168884 100.0842619 100.3682110  93.7538226  98.8513822  99.5003761
  84.3727012  95.5943361  93.0791909  83.5364325  95.9318048  93.4001184
  84.2331782  95.4592341  92.1419046  86.3480093  90.4380149  97.7871093
  85.6944505  90.1229166  97.1627708  86.3060567  89.8155889  98.5130916
  87.4591298 100.7199444  89.7024386  86.5518360 100.4888698  89.9015534
  87.9562330  99.9237063  89.8898367  90.3659377 109.4296951  92.6221072
  89.6921076 109.7328648  93.2306030  90.7525199 110.2326032  92.2726529
  89.5817833  96.9262083 102.1118741  88.6640395  97.1477030 101.9540429
  89.9977977  97.0008393 101.2530448  90.3652881  98.3253498  97.2421421
  91.1124700  98.8374895  96.9328543  90.6344471  98.0037551  98.1025815
  88.6379531 100.8212039  94.2248376  87.7290751 100.5371072  94.3220845
  88.6674615 101.2411117  93.3651682  92.8131718  95.3610614  99.2240211
  92.0754475  94.8488001  99.5550453  93.0658492  94.9210996  98.4123487
  92.9143346  88.1386866  99.8181980  93.2202222  87.2784230  99.5307895
  93.6395950  88.7304487  99.6180974  79.2067702  98.5417553  98.2063578
  79.0092102  97.9486914  97.4814644  78.6514366  98.2369763  98.9239517
  87.1864425  98.4340660 100.3258171  87.2413035  97.4814496 100.2500648
  86.3755627  98.5900099 100.8099469  88.3355619 102.3620783  91.5636454
  87.8975049 101.6456642  91.1042092  89.0766060 102.5896897  91.0021546
  85.1256785  97.0517719  98.0848550  84.3124651  97.3511890  98.4913742
  85.6215780  96.6573408  98.8023032  96.4528734 100.6377980  97.6212773
  96.3146633 100.8279576  96.6933962  96.0964953 101.3997362  98.0780824
  84.6170860  94.6236075 103.7009785  85.2570239  94.4824834 103.0032748
  83.7848391  94.3370588 103.3248387  85.3931164 103.9238505  99.8144777
  86.1871762 103.4288825  99.6127352  84.6822856 103.3956368  99.4512483
  81.7013927  98.0681587  95.8904530  80.7711516  98.0066042  96.1074492
  81.7971399  97.5457540  95.0941171  81.6199477  94.5936400  98.4782772
  81.8806294  95.5081733  98.3691932  82.4416649  94.1260842  98.6279384
  83.0924402  96.0074157 105.6481596  83.7647455  95.7991519 104.9994245
  82.2654188  95.8096243 105.2086828  88.5650592 109.5976624  94.8368151
  88.7402348 109.1264667  95.6513774  87.8783380 110.2242390  95.0649412
  92.4566847 101.2205164  91.1568512  91.8396017 100.4951992  91.0601564
  91.9883335 101.9814525  90.8135586  84.2465393  95.4390589  90.2789816
  83.3694859  95.3179389  89.9152063  84.7223146  94.6476667  90.0268705
  75.7667533 100.2267748 100.3731323  76.4538573  99.9129478  99.7852339
  75.6115662 101.1309113 100.0998575  80.5702255  95.1157945 104.8016347
  80.4860444  94.5083614 104.0666757  79.7484961  95.6066963 104.8025843
  87.4329319 107.7916879  97.5252337  86.6496841 108.3338559  97.6190561
  88.1322064 108.3090859  97.9246578  90.7425969  93.6011508 100.1686542
  91.2394668  92.8481471  99.8487612  89.9712950  93.6375825  99.6029751
  91.8255750 102.3583196  97.7424965  90.8912028 102.4784658  97.5729670
  92.0032418 101.4555662  97.4784975  87.3260938  95.7428891  99.8958227
  86.9558725  95.1899932 100.5839132  87.8220030  95.1387025  99.3433227
  95.2128301  98.2000515  98.2774999  95.6788753  99.0328506  98.2035302
  95.6635801  97.7345496  98.9820258  93.2804532 104.5444336  95.2761152
  93.5564376 104.4300931  96.1855026  92.4109031 104.1461821  95.2373325
  93.1844964  90.5681102 102.3165901  92.2708043  90.7985329 102.4848108
  93.6138065  90.6519546 103.1679933  90.2500762 107.7198872  96.1809014
  90.7788528 107.2091327  95.5679176  90.5128981 107.4041402  97.0454547
  75.3435509  98.3068342 102.6448790  75.3819608  97.7731932 103.4385908
  74.8375802  97.7803547 102.0259768  82.7226271  93.1532882 106.1411333
  82.7867598  94.0147713 105.7288730  82.6593392  92.5406884 105.4083691
  78.9744087  97.0332444  95.7202722  79.2697528  96.1243122  95.6669775
  78.0732122  97.0120183  95.3983724  82.5038334  95.1088440 101.7030270
  81.7824919  95.7224408 101.5637744  83.2931589  95.6446205 101.6246916
  80.7031928  94.7146541  95.8442047  80.3744634  93.8343920  95.6617153
  81.0571299  94.6594210  96.7318436  83.8173751  95.0019511  96.2117525
  84.1569824  95.5305432  95.4896133  84.2645872  95.3399917  96.9876091
  86.5117192  93.3856562 105.6620593  86.1714012  92.5864375 106.0641272
  85.8056198  93.6858273 105.0897426  87.1633664  90.4705874 104.1147916
  87.9859733  89.9966353 103.9926806  87.4071727  91.2496358 104.6146602
  85.8041898  93.4994133  94.4110817  86.5250261  93.8775386  93.9074534
  85.1807203  94.2183010  94.5145795  89.9473021  94.2039282  95.3469150
  90.1636636  95.0863920  95.0457978  89.4667088  93.8125495  94.6174792
  84.6872243  97.1624995 101.9239894  84.5416823  97.4765298 102.8164176
  84.2097446  97.7809895 101.3710793  86.5468626  94.1527543 101.9720784
  86.5330194  93.2568636 101.6353082  87.2641054  94.1598207 102.6059070
  88.3994756  94.5864883 104.0173911  88.1412534  95.5081954 104.0158242
  87.8679797  94.1895318 104.7074375  79.1617905  99.7030339 104.8627555
  78.6171373 100.4790147 104.9947830  80.0397255 100.0501144 104.7046677
  85.9505522  93.0341923  97.2408354  86.0721433  92.1058569  97.4399241
  85.6607564  93.0480609  96.3286669  88.8196712  90.7196834 100.3775074
  88.8418409  90.7836167  99.4227053  89.2364771  89.8801342 100.5715580
  94.3316118 107.0082435  93.8960895  95.0267022 107.6289127  94.1148210
  94.6739268 106.1577786  94.1713273  96.2307541 104.4582140  95.4248226
  96.7558865 104.7969413  94.6997546  96.1429893 103.5229156  95.2411360
  80.3940540 106.7165664  99.7868107  81.2198560 106.4169436  99.4066750
  80.0434592 105.9473287 100.2357896  78.5949145 104.6351991 100.7457041
  77.7581054 104.2074165 100.5641042  78.5672791 104.8284434 101.6827832
  84.9235580 104.6196056  95.3324241  85.0723701 105.3031520  94.6790914
  85.7302024 104.6001146  95.8473697  82.6788213 100.6461234  96.3385310
  82.4334255  99.7423564  96.5365520  82.8484128 100.6478384  95.3964788
  90.3684923  91.5184910 105.7210066  90.8866867  92.2545937 105.3956554
  90.0140056  91.8248903 106.5556825  81.9483861  96.3789591  93.8371471
  81.2553106  96.4533946  93.1811507  81.7035613  95.6149935  94.3592988
  90.6197517  87.9385193 101.2410962  90.8999271  87.2708382 101.8671389
  91.4048124  88.1314288 100.7285626  88.4230986 107.1144186  92.8035988
  87.8504953 107.7334374  92.3506460  88.9963780 107.6643548  93.3375910
  91.6428246 107.3981337  93.9344571  92.5758919 107.3326898  94.1377446
  91.5551459 108.2337603  93.4759103  94.2716262 106.7147207  90.8948518
  94.1929894 106.3807071  91.7884276  95.0925929 107.2068975  90.8939991
  88.8077784  98.4504999  90.1452041  89.7536889  98.3211207  90.2140459
  88.4292029  97.7119661  90.6221469  94.7799669  90.1161005 100.1078933
  94.5824490  89.8076093 100.9922265  95.3899375  90.8422644 100.2376863
  86.9920702  96.3754976  90.0806926  86.0852157  96.0788088  90.1569640
  87.2696683  96.0784794  89.2141212  77.9098642  97.6961339 100.5305973
  77.5901426  96.8426647 100.2380347  77.3632070  97.9109917 101.2863940
  81.6878550 100.4123780 104.2475479  81.9064559 101.3440888 104.2663513
  82.1004323 100.0531754 105.0330283  88.6082767  90.9191865  96.2351168
  87.7983496  90.5738950  96.6106414  89.2967184  90.6099409  96.8238779
  90.5373316  89.9969912  97.8575464  91.0904354  90.4165366  98.5165487
  90.7743402  89.0705660  97.8998420  85.7619486  93.2341911  90.2218905
  86.6238650  93.5596809  90.4814723  85.9469830  92.4473407  89.7091971
  77.7786902 101.3164250 102.4999094  77.0850373 100.9018203 101.9869049
  78.5259893 101.3584787 101.9032513  93.9152123  92.1070437  97.3654128
  93.3350792  92.7655241  96.9832181  93.6488055  91.2847782  96.9541546
  92.3655689  91.5075495  99.5675449  92.8655467  91.6192029  98.7589768
  93.0091297  91.2036548 100.2076257  79.6923645 101.2482504 100.3765109
  79.6694333 101.3470192  99.4246992  80.0024281 102.0947655 100.6982275
  92.6977001  94.2670528  96.4210477  91.8102856  94.5520178  96.2030671
  93.1130990  94.1064291  95.5737754  96.0491537  94.2917049 100.1364816
  96.8251927  94.7813501 100.4089433  95.3239671  94.7175103 100.5936685
  98.4864096  95.0044668 101.1938757  99.0808586  94.7640404 100.4832065
  98.5590679  94.2851798 101.8212293  91.8420214 104.0315202  90.5158497
  92.5456064 104.2365205  91.1316152  91.1182863 104.5991964  90.7807580
  92.6718025  99.7825064  96.6360767  92.6153226 100.2393615  95.7968399
  93.2246367  99.0215748  96.4583610  96.4822830  95.5714795  97.4610886
  96.2259765  95.1711431  98.2919094  95.8575698  96.2858589  97.3361025
  93.7506912 104.4697732  92.5656957  94.5852516 104.0378930  92.3834431
  93.5891255 104.2979745  93.4933851  93.4052804 100.9729845  93.9313296
  93.3501608 100.8074116  92.9901740  92.7798859 101.6805878  94.0875486
  78.1945319  96.2097909 107.7574718  78.8404182  95.6996863 108.2461943
  77.9862470  96.9466591 108.3318143  86.7148929  90.4737954  93.5098614
  86.7027599  91.4179794  93.6666885  87.6072351  90.2908099  93.2158076
  90.5301049  87.0680730  97.7644551  89.7633445  86.5139217  97.9101234
  90.9411754  87.1402599  98.6258703  95.2120767 110.9235279  93.0791909
  94.3758079 111.2609965  93.4001184  95.0725537 110.7884259  92.1419046
  95.0859147 110.7682506  90.2789816  94.2088614 110.6471307  89.9152063
  95.5616900 109.9768585  90.0268705  92.7877615 111.7081509  93.8371471
  92.0946860 111.7825864  93.1811507  92.5429367 110.9441853  94.3592988
  97.8314456 111.7046893  90.0806926  96.9245912 111.4080006  90.1569640
  98.1090437 111.4076711  89.2141212  96.6013241 108.5633828  90.2218905
  97.4632405 108.8888727  90.4814723  96.7863585 107.7765324  89.7091971
  97.5542684 105.8029872  93.5098614  97.5421354 106.7471711  93.6666885
  98.4466106 105.6200017  93.2158076  37.3428661   0.0177999  89.3857440
  37.9807071  -0.1015253  88.6820780  37.2249504   0.9658843  89.4445392
  34.1518367  -0.0294573  89.3218965  33.8136879  -0.1453508  88.4339500
  35.0208136  -0.4303408  89.3019971  30.0105183   1.8240904  85.3115856
  29.4470048   1.7330841  84.5432143  29.8957578   1.0040808  85.7918348
  35.5904742   5.4911871  80.6230321  34.9392721   6.0765952  80.2364334
  36.3849105   6.0218066  80.6825358  29.5160369   2.5801009  81.0217455
  30.2891245   2.0329996  80.8830331  29.8685768   3.4445258  81.2331916
  31.8526647  -1.2606325  78.6535905  32.1052167  -1.7824804  77.8919368
  30.9151206  -1.4240180  78.7562588  36.8969930  -2.2570547  86.4610648
  37.6833019  -2.6751124  86.1101065  37.1608634  -1.3524455  86.6292297
  37.0680007   3.1802303  81.1599305  36.4325840   3.2536930  81.8720210
  36.7377413   3.7695902  80.4818384  42.2978357  -2.3195314  87.3643627
  43.0303529  -2.8896097  87.5981456  41.5417712  -2.7073713  87.8050132
  31.5722935   0.6421781  80.8560280  31.4559194  -0.0333316  81.5241364
  31.6825195   0.1554155  80.0392433  33.9154476   0.1031928  84.5606969
  33.5512684  -0.4237451  85.2719891  34.7721592  -0.2869603  84.3873454
  33.5559963  -4.8678173  79.5568318  33.7234366  -3.9997936  79.9238789
  33.3657132  -4.7050891  78.6329607  36.3135297   3.5938806  91.2234148
  36.0136020   4.4963845  91.1149955  35.9686356   3.3270990  92.0755301
  39.7132440  -3.8878653  88.9031585  38.8049318  -3.9563245  88.6090346
  39.6620036  -3.4106709  89.7313411  33.5349184  -2.4120515  80.5414984
  33.4148809  -1.9663464  81.3800465  32.8401773  -2.0635197  79.9828523
  31.2956076  10.3583127  84.1905116  31.2180106  11.3090952  84.2693596
  30.6917720  10.0128999  84.8480042  39.2334250  -1.9399042  81.3695318
  40.1452107  -1.7071655  81.1943016  38.7243897  -1.3561998  80.8070397
  37.8403833   3.0426777  88.7608900  37.2112695   3.2072491  88.0584968
  37.4529495   3.4568386  89.5319864  41.7193065   3.9781214  86.1153264
  41.0344103   4.3580116  85.5650297  41.8036914   4.5876541  86.8485211
  33.3931795   2.7801185  86.0258985  33.8570140   3.0588888  85.2363608
  33.1288593   1.8784629  85.8432076  32.3300681  -1.0975663  82.8348550
  33.0324724  -0.6454619  83.3022477  31.9981309  -1.7391844  83.4628443
  40.0889824   4.5013129  90.8870965  40.9107268   4.0993316  90.6053646
  40.0852227   4.3981363  91.8387080  48.1795817   0.8451877  87.2355936
  47.4259526   0.2759275  87.0799940  48.3143358   0.8114542  88.1826571
  33.5694445   5.7165280  82.9110655  33.4340120   6.5616815  83.3395503
  34.1104258   5.9184557  82.1476589  27.0223843   3.2340718  83.4838580
  27.5348363   4.0283968  83.6344145  27.6746555   2.5367008  83.4172182
  28.8318727   6.3506474  85.5661334  29.0085356   7.2724439  85.3782318
  29.6275561   6.0364893  85.9955713  29.9550043   7.8684648  91.5671676
  30.5057468   7.7401711  90.7948670  29.1161519   8.1679537  91.2166569
  36.8837192  -0.7695547  79.9481984  36.3683815   0.0009057  80.1870371
  36.6114500  -1.4430411  80.5715045  41.8571466   1.9836807  81.8835157
  41.0800908   1.6447967  81.4390320  42.5362947   1.9889430  81.2090122
  36.6723495  -2.8968455  81.7741765  36.3673630  -2.5822306  82.6251908
  37.6253937  -2.8187035  81.8169098  35.1169927   3.2621768  83.4234719
  34.5891288   2.5274528  83.1107957  34.6157429   4.0396444  83.1774687
  40.0962773   1.4570789  88.5401765  39.4386447   2.1470050  88.6281894
  40.9003172   1.8467220  88.8835752  38.9068231  -0.1884839  86.5905707
  39.4200113   0.4445153  87.0927417  39.5569455  -0.7883643  86.2249067
  33.2622527   1.0801978  76.4269692  32.3549588   0.8491232  76.6260841
  33.7593559   0.2839598  76.6143674  36.1690606   9.7899485  79.3466378
  35.4952304  10.0931182  79.9551336  36.5556428  10.5928566  78.9971835
  36.1684110  -1.3143968  83.9666728  36.9155929  -0.8022570  83.6573850
  36.4375700  -1.6359915  84.8271122  34.4410760   1.1814573  80.9493682
  33.5321979   0.8973606  81.0466152  34.4705844   1.6013652  80.0896989
  39.6730028   4.7921163  84.7184850  39.2192355   3.9512073  84.7750040
  39.0423994   5.4282561  85.0559630  38.6162947  -4.2786851  85.9485517
  37.8785704  -4.7909465  86.2795760  38.8689721  -4.7186470  85.1368794
  38.1162967   6.6297659  85.6534668  38.4085941   7.1902716  84.9347034
  38.6261587   6.9226220  86.4087827  32.9895654  -1.2056806  87.0503478
  33.0444264  -2.1582970  86.9745954  32.1786856  -1.0497367  87.5344776
  34.1386848   2.7223317  78.2881761  33.7006278   2.0059176  77.8287398
  34.8797289   2.9499432  77.7266852  30.9288014  -2.5879747  84.8093856
  30.1155880  -2.2885576  85.2159049  31.4247008  -2.9824058  85.5268339
  33.0796592   7.4078010  86.7428121  33.0372771   7.6338857  85.8136653
  33.9959291   7.1741385  86.8913922  42.2559963   0.9980514  84.3458079
  42.1177861   1.1882110  83.4179269  41.8996182   1.7599897  84.8026131
  42.2829342   3.0657041  89.3569351  42.7165849   2.9732330  90.2052405
  42.9960923   3.0414541  88.7189367  31.1962393   4.2841039  86.5390084
  31.9902991   3.7891360  86.3372659  30.4854085   3.7558903  86.1757789
  36.0157237   6.6659135  90.8902452  36.0694260   7.2350071  91.6580167
  35.1472019   6.8361020  90.5256489  43.1444892   3.1080742  91.8902236
  43.3380782   4.0126552  92.1361511  43.0445510   2.6488161  92.7240821
  33.7733669   4.8570061  90.2187921  33.6344754   4.4888846  91.0913859
  32.9848265   5.3717701  90.0471879  34.3681821   9.9579158  81.5613458
  34.5433576   9.4867201  82.3759080  33.6814609  10.5844924  81.7894718
  35.3238884   4.2351664  87.6076759  34.9888717   4.1952434  88.5034409
  34.8242830   3.5696380  87.1347169  38.2598076   1.5807698  77.8813818
  37.6427246   0.8554527  77.7846871  37.7914564   2.3417059  77.5380893
  28.9342906  13.1068521  88.3353318  29.1739504  13.7387045  89.0132336
  28.0912103  12.7556561  88.6218677  33.4470768   8.9147643  90.7394822
  33.3740939   9.7202615  91.2514126  33.0048161   9.1139609  89.9142843
  33.2360548   8.1519413  84.2497643  32.4528069   8.6941093  84.3435868
  33.9353293   8.6693393  84.6491884  36.5457198  -6.0385957  86.8931849
  37.0425897  -6.7915995  86.5732919  35.7744179  -6.0021641  86.3275058
  44.3986955  -0.3345592  88.5350140  44.3876831   0.5479124  88.1644073
  43.5304334  -0.6874041  88.3404677  35.9069451   8.8134477  92.8952980
  36.6197424   9.4481942  92.8228882  35.4159480   8.9098343  92.0792982
  37.6286978   2.7185730  84.4670272  36.6943257   2.8387192  84.2974976
  37.8063647   1.8158197  84.2030282  41.0159530  -1.4396951  85.0020306
  41.4819982  -0.6068959  84.9280609  41.4667030  -1.9051969  85.7065565
  39.0835761   4.9046870  82.0006458  39.3595605   4.7903465  82.9100332
  38.2140260   4.5064355  81.9618631  35.7189825   9.1533221  85.6439272
  35.9012219   8.3354877  86.1067024  36.5422811   9.3700913  85.2064162
  36.0531990   8.0801406  82.9054320  36.5819757   7.5693861  82.2924482
  36.3160210   7.7643937  83.7699853  29.4087738   9.1316523  85.6652096
  28.7398114   9.6162651  85.1816136  29.2700608   9.3785743  86.5795475
  33.5493007  11.1660267  92.2634755  34.1011315  11.3291888  93.0283840
  33.8899200  11.7564704  91.5914779  36.6861394   9.1142242  89.2498437
  36.5612534   8.3131982  88.7409382  37.3440485   9.6088435  88.7612407
  38.7496303   6.9151262  90.8777987  37.8026638   6.7956613  90.8056314
  39.0979076   6.0273760  90.9604248  35.7542736   6.7103978  87.0782339
  35.6067698   5.7820686  87.2589909  36.5796229   6.7324069  86.5939414
  39.3576858   7.5332537  88.1647212  40.2823405   7.3275398  88.0271663
  39.1892161   7.2848938  89.0736553  35.7504250  -5.4358184  82.0714456
  35.9667865  -4.5533546  81.7703284  35.2698317  -5.8271971  81.3420098
  39.1472174   8.0518205  83.5209303  39.3209051   7.4864627  82.7683156
  39.6401065   8.8519099  83.3388793  45.0011565   0.8154628  85.1399603
  45.4442711   0.0661953  84.7418726  44.1238075   0.8064764  84.7573335
  40.1347346   7.3684969  80.6206202  40.8298251   7.9891662  80.8393516
  40.4770496   6.5180320  80.8958579  42.0338769   4.8184674  82.1493532
  42.5590094   5.1571947  81.4242852  41.9461122   3.8831690  81.9656667
  33.7179430  10.8856658  86.5088785  33.2784421  10.3933036  87.2021642
  34.4687547  10.3429625  86.2680861  26.1971769   7.0768199  86.5113414
  27.0229789   6.7771971  86.1312057  25.8465821   6.3075821  86.9603202
  31.1653302   6.4294667  88.5811087  30.5433312   5.7665372  88.2813315
  31.8358169   6.4555799  87.8984735  24.3980374   4.9954525  87.4702347
  23.5612283   4.5676699  87.2886348  24.3704020   5.1886968  88.4073138
  30.7266809   4.9798590  82.0569548  30.8754930   5.6634055  81.4036220
  31.5333253   4.9603680  82.5719003  43.3448747   4.7206986  95.0119480
  43.0533556   5.0836967  95.8482941  42.7320879   4.0073994  94.8332812
  44.5444430   2.2859866  87.5322051  45.3791321   2.7249670  87.6959611
  44.6803559   1.8098519  86.7130296  28.4819442   1.0063768  83.0630617
  28.2365484   0.1026098  83.2610827  28.6515357   1.0080918  82.1210095
  34.2262215   7.4746721  79.5281295  33.6536182   8.0936908  79.0751767
  34.7995008   8.0246082  80.0621217  37.4459475   7.7583871  80.6589877
  38.3790148   7.6929432  80.8622753  37.3582687   8.5940138  80.2004410
  40.0747491   7.0749741  77.6193825  39.9961123   6.7409605  78.5129583
  40.8957158   7.5671509  77.6185297  42.7725682  -0.0588520  90.8270144
  42.7402003  -0.9972519  91.0129827  43.3826306   0.0195517  90.0935968
  34.6109013  -1.1892467  76.8697348  35.5568118  -1.3186258  76.9385766
  34.2323258  -1.9277805  77.3466776  48.5902232   1.0027487  89.9676180
  49.3205621   0.7412775  90.5283884  47.9809178   0.2656209  90.0078248
  46.6717529  -0.8564650  90.5650632  45.9450693  -0.9908685  89.9567123
  46.2564816  -0.5487822  91.3707350  32.7951930  -3.2642490  76.8052233
  31.8883386  -3.5609377  76.8814946  33.0727911  -3.5612672  75.9386519
  39.7183352  -7.5327029  84.0899435  39.1382021  -6.8742224  83.7077487
  39.4519284  -8.3549684  83.6786853  38.5008230  -5.3726938  83.1455783
  37.6134085  -5.0877288  82.9275978  38.9162219  -5.5333175  82.2983060
  41.8522766  -5.3480417  86.8610123  42.6283156  -4.8583965  87.1334739
  41.1270900  -4.9222363  87.3181992  44.2895324  -4.6352798  87.9184063
  44.8839815  -4.8757062  87.2077371  44.3621908  -5.3545667  88.5457599
  26.5092480   9.2080813  88.2327228  26.3746948   8.4481214  87.6665226
  26.0924542   9.9321713  87.7656017  37.6451443   4.3917737  77.2403803
  38.3487293   4.5967739  77.8561459  36.9214092   4.9594498  77.5052887
  38.4749253   0.1427598  83.3606073  38.4184455   0.5996149  82.5213706
  39.0277596  -0.6181718  83.1828916  42.2854059  -4.0682670  84.1856193
  42.0290993  -4.4686035  85.0164401  41.6606927  -3.3538876  84.0606332
  46.5966397  -1.3286597  86.6927484  46.0365955  -1.2593408  87.4659046
  45.9909900  -1.5045612  85.9726981  29.6661606  10.1050130  88.4445671
  29.5493990  11.0495562  88.3424361  28.8454052   9.8023692  88.8331470
  39.5538140   4.8300266  79.2902263  40.3883744   4.3981464  79.1079738
  39.3922483   4.6582279  80.2179158  39.2084033   1.3332379  80.6558603
  39.1532836   1.1676650  79.7147047  38.5830088   2.0408412  80.8120792
  30.6916120  10.7578392  91.6601599  31.5943367  10.7902002  91.9768094
  30.4653490   9.8278843  91.6747935  32.4469722   9.5109378  88.3211678
  31.4965353   9.5111240  88.2076050  32.7502208   8.7642113  87.8047712
  48.1822416  15.3469917  89.3857440  48.8200825  15.2276664  88.6820780
  48.0643258  16.2950761  89.4445392  44.9912122  15.2997345  89.3218965
  44.6530633  15.1838410  88.4339500  45.8601890  14.8988510  89.3019971
  40.8498938  17.1532821  85.3115856  40.2863803  17.0622758  84.5432143
  40.7351333  16.3332726  85.7918348  45.4731905  16.4532197  95.2805170
  45.4620546  16.0584995  94.4085674  45.6352544  15.7198269  95.8738942
  38.3963369  18.6484013  88.1500076  39.1884661  18.3074838  87.7346375
  38.6360020  18.7578988  89.0702229  46.4298496  20.8203789  80.6230321
  45.7786476  21.4057869  80.2364334  47.2242859  21.3509984  80.6825358
  40.3554123  17.9092926  81.0217455  41.1284999  17.3621913  80.8830331
  40.7079522  18.7737176  81.2331916  42.1939166  19.2369308  94.2284354
  41.9029032  20.1414939  94.1131021  42.8296150  19.2785836  94.9428424
  43.1195373  16.6146157  90.8185714  43.7158945  16.3902179  90.1042677
  43.1770344  15.8730902  91.4211162  42.6920401  14.0685592  78.6535905
  42.9445922  13.5467114  77.8919368  41.7544960  13.9051738  78.7562588
  47.7363684  13.0721371  86.4610648  48.5226773  12.6540794  86.1101065
  48.0002388  13.9767463  86.6292297  47.9073761  18.5094221  81.1599305
  47.2719594  18.5828848  81.8720210  47.5771168  19.0987820  80.4818384
  53.1372111  13.0096604  87.3643627  53.8697283  12.4395821  87.5981456
  52.3811467  12.6218204  87.8050132  42.4116690  15.9713698  80.8560280
  42.2952948  15.2958602  81.5241364  42.5218950  15.4846072  80.0392433
  44.7548231  15.4323845  84.5606969  44.3906438  14.9054466  85.2719891
  45.6115347  15.0422314  84.3873454  50.6597531   6.7218178  91.8238235
  50.3280856   7.5913589  91.5999450  50.0643145   6.4054462  92.5032266
  44.3953718  10.4613745  79.5568318  44.5628120  11.3293981  79.9238789
  44.2050887  10.6241027  78.6329607  47.1529051  18.9230724  91.2234148
  46.8529774  19.8255763  91.1149955  46.8080111  18.6562907  92.0755301
  40.6041532  15.3744521  87.2570852  39.6792029  15.2420735  87.4648544
  40.8525946  16.1538740  87.7540795  50.5526195  11.4413264  88.9031585
  49.6443072  11.3728673  88.6090346  50.5013791  11.9185209  89.7313411
  44.3742939  12.9171403  80.5414984  44.2542564  13.3628453  81.3800465
  43.6795527  13.2656720  79.9828523  37.9650344  15.0177794  88.0914641
  38.0942725  15.2712273  89.0054053  37.2847795  15.6105502  87.7719297
  42.1349831  25.6875044  84.1905116  42.0573861  26.6382869  84.2693596
  41.5311474  25.3420917  84.8480042  44.6267061  12.8602910  96.8466483
  43.8500395  13.4196830  96.8369347  45.2657624  13.3459693  97.3681353
  52.4187841   9.6429703  90.6809459  51.7762221   9.9362236  90.0349254
  51.9142770   9.5282623  91.4862656  50.0728005  13.3892876  81.3695318
  50.9845861  13.6220263  81.1943016  49.5637652  13.9729920  80.8070397
  42.8813433  15.6688363  96.4084450  43.6228117  16.2073407  96.1319273
  42.1750418  16.2954652  96.5656001  48.3568773  17.8117504  95.0056611
  48.7652129  17.3699914  94.2611243  47.6346034  17.2370131  95.2590804
  44.7099843  12.7490110  92.3790168  45.5561038  13.1729524  92.5224817
  44.6498480  12.0923735  93.0728731  48.6797587  18.3718694  88.7608900
  48.0506450  18.5364408  88.0584968  48.2923249  18.7860304  89.5319864
  52.5586819  19.3073132  86.1153264  51.8737857  19.6872033  85.5650297
  52.6430668  19.9168459  86.8485211  47.8599288  10.4094479  94.0371342
  47.6160220  11.1636539  93.5005617  48.1359218  10.7879826  94.8718589
  49.8137751  16.9533091  92.7148607  50.0254646  17.5964851  92.0382988
  49.7667499  16.1195408  92.2470537  47.4163980   9.5650912  89.6185179
  46.5548459   9.8632165  89.9101917  47.4426414   9.7821311  88.6866212
  44.2325549  18.1093102  86.0258985  44.6963895  18.3880805  85.2363608
  43.9682347  17.2076547  85.8432076  41.1249630  17.6564584  88.9638748
  41.6950987  18.0851852  88.3256233  41.7157742  17.3747169  89.6622934
  43.1694435  14.2316255  82.8348550  43.8718478  14.6837298  83.3022477
  42.8375064  13.5900074  83.4628443  41.6174797  12.8228011  97.2099760
  40.9873457  13.5044292  97.4435156  41.5110885  12.7111093  96.2652898
  36.9119769  12.4899807  88.1365684  36.1218823  12.7457336  87.6605794
  37.4031016  13.3048145  88.2417724  50.9283579  19.8305047  90.8870965
  51.7501022  19.4285234  90.6053646  50.9245982  19.7273281  91.8387080
  38.8634514  12.8544387  85.0949160  38.0665678  12.9663081  85.6132656
  38.6360107  13.1931039  84.2290051  44.6940182  19.3789090  93.0431675
  44.7584615  19.8409497  93.8789847  43.9851106  18.7486455  93.1713985
  35.1957472  12.7430298  90.5680675  35.4465510  13.6277308  90.8338250
  35.7317020  12.5634899  89.7955766  59.0189572  16.1743795  87.2355936
  58.2653280  15.6051193  87.0799940  59.1537113  16.1406459  88.1826571
  44.4088200  21.0457197  82.9110655  44.2733875  21.8908733  83.3395503
  44.9498012  21.2476475  82.1476589  37.8617597  18.5632635  83.4838580
  38.3742118  19.3575886  83.6344145  38.5140310  17.8658926  83.4172182
  39.6712482  21.6798392  85.5661334  39.8479110  22.6016356  85.3782318
  40.4669315  21.3656811  85.9955713  43.8123500   8.5406656  97.1645267
  44.5533214   9.1413809  97.0849730  44.0441423   7.7984294  96.6063310
  38.9564838  13.7263023  95.4423497  38.8418354  12.8248281  95.7430596
  38.1009356  13.9726720  95.0908313  46.0356676  21.6680764  97.0410997
  45.5920530  20.8817142  96.7231902  46.6973890  21.8559914  96.3754888
  40.7943797  23.1976565  91.5671676  41.3451222  23.0693629  90.7948670
  39.9555273  23.4971454  91.2166569  48.1337914  21.9483564  95.0692399
  48.1156390  22.7692445  94.5772668  49.0557834  21.8237639  95.2942540
  44.5910968  19.4627693  95.9115907  45.1239305  18.7015981  95.6815215
  44.0625049  19.1701345  96.6540062  47.7580663   4.5687759  91.4409549
  47.4144933   5.4589401  91.3648659  48.1259626   4.3789417  90.5779134
  35.8266514  16.8921290  84.2598151  36.6641736  17.3018298  84.0431859
  36.0044782  15.9520732  84.2298345  47.7230946  14.5596370  79.9481984
  47.2077569  15.3300975  80.1870371  47.4508254  13.8861506  80.5715045
  45.3078057   9.4046071  85.0067222  44.4519653   9.0152921  84.8272861
  45.7205009   9.4838032  84.1467008  46.8377204   6.9392414  89.4058782
  46.3341999   6.9022549  88.5926587  47.1307811   7.8485157  89.4655439
  43.0820090   7.0231144  88.4124964  43.9473086   6.8273953  88.0530853
  43.1497598   6.7941496  89.3394321  52.6965220  17.3128725  81.8835157
  51.9194663  16.9739884  81.4390320  53.3756701  17.3181348  81.2090122
  47.5117249  12.4323462  81.7741765  47.2067385  12.7469612  82.6251908
  48.4647691  12.5104882  81.8169098  45.9563681  18.5913686  83.4234719
  45.4285043  17.8566445  83.1107957  45.4551184  19.3688362  83.1774687
  50.9356527  16.7862706  88.5401765  50.2780202  17.4761968  88.6281894
  51.7396926  17.1759138  88.8835752  40.6882409   9.2533352  85.7841331
  41.2626161   9.0308533  85.0514524  41.2753391   9.3222046  86.5369932
  49.7461986  15.1407079  86.5905707  50.2593868  15.7737071  87.0927417
  50.3963210  14.5408274  86.2249067  41.0151996  11.2837813  79.8037216
  40.1789308  11.6212500  80.1246491  40.8756765  11.1486793  78.8664353
  42.9905076   6.1274601  84.5116400  42.3369489   5.8123618  83.8873015
  42.9485551   5.5050341  85.2376223  44.1016281  16.4093896  76.4269692
  43.1943343  16.1783149  76.6260841  44.5987313  15.6131515  76.6143674
  47.0084360  25.1191403  79.3466378  46.3346059  25.4223100  79.9551336
  47.3950182  25.9220483  78.9971835  46.2242817  12.6156534  88.8364048
  45.3065378  12.8371481  88.6785736  46.6402960  12.6902845  87.9775755
  47.0077864  14.0147950  83.9666728  47.7549683  14.5269347  83.6573850
  47.2769454  13.6932003  84.8271122  45.2804515  16.5106491  80.9493682
  44.3715734  16.2265524  81.0466152  45.3099598  16.9305569  80.0896989
  50.5123782  20.1213080  84.7184850  50.0586109  19.2803990  84.7750040
  49.8817749  20.7574479  85.0559630  49.4556702  11.0505066  85.9485517
  48.7179458  10.5382453  86.2795760  49.7083475  10.6105448  85.1368794
  48.9556721  21.9589577  85.6534668  49.2479696  22.5194634  84.9347034
  49.4655342  22.2518138  86.4087827  49.5568329   3.8281318  86.5427287
  49.8627206   2.9678682  86.2553202  50.2820934   4.4198939  86.3426280
  35.8492685  14.2312005  84.9308884  35.6517085  13.6381366  84.2059951
  35.2939349  13.9264215  85.6484823  43.8289409  14.1235111  87.0503478
  43.8838018  13.1708948  86.9745954  43.0180611  14.2794551  87.5344776
  44.9780602  18.0515234  78.2881761  44.5400032  17.3351093  77.8287398
  45.7191043  18.2791349  77.7266852  41.7681769  12.7412171  84.8093856
  40.9549634  13.0406342  85.2159049  42.2640763  12.3467860  85.5268339
  43.9190347  22.7369928  86.7428121  43.8766525  22.9630774  85.8136653
  44.8353045  22.5033303  86.8913922  47.3655980  13.2053996  93.6408750
  47.7205368  13.4325469  94.5003216  48.0128112  13.5372372  93.0186006
  53.0953717  16.3272432  84.3458079  52.9571616  16.5174028  83.4179269
  52.7389936  17.0891814  84.8026131  41.2595843  10.3130527  90.4255091
  41.8995223  10.1719286  89.7278055  40.4273374  10.0265040  90.0493693
  53.1223097  18.3948959  89.3569351  53.5559604  18.3024248  90.2052405
  53.8354678  18.3706459  88.7189367  42.0356147  19.6132957  86.5390084
  42.8296746  19.1183277  86.3372659  41.3247840  19.0850820  86.1757789
  46.8550992  21.9951053  90.8902452  46.9088014  22.5641989  91.6580167
  45.9865773  22.1652938  90.5256489  38.3438911  13.7576039  82.6149837
  37.4136499  13.6960494  82.8319799  38.4396383  13.2351992  81.8186478
  38.2624460  10.2830852  85.2028078  38.5231277  11.1976185  85.0937239
  39.0841632   9.8155294  85.3524691  39.7349385  11.6968609  92.3726903
  40.4072439  11.4885971  91.7239552  38.9079172  11.4990695  91.9332135
  53.9838646  18.4372659  91.8902236  54.1774537  19.3418470  92.1361511
  53.8839265  17.9780078  92.7240821  45.6374957   8.3230550  94.3892564
  44.9902872   9.0220499  94.2957040  46.4075973   8.7566694  94.7568812
  49.0453755  18.5879402  97.4643117  48.8939262  18.3589954  96.5473201
  49.0358435  19.5450003  97.4774462  45.8139092  16.1611315  92.4489383
  46.7431152  16.3122474  92.2758351  45.3930122  16.2495335  91.5938030
  44.6127423  20.1861979  90.2187921  44.4738509  19.8180763  91.0913859
  43.8242020  20.7009619  90.0471879  45.2075575  25.2871076  81.5613458
  45.3827331  24.8159119  82.3759080  44.5208363  25.9136842  81.7894718
  46.1632638  19.5643582  87.6076759  45.8282471  19.5244352  88.5034409
  45.6636584  18.8988298  87.1347169  40.1376882  14.9711212  93.1329340
  39.9996680  14.2391451  93.7340879  41.0481806  14.8820112  92.8513528
  49.0991830  16.9099616  77.8813818  48.4821001  16.1846444  77.7846871
  48.6308319  17.6708976  77.5380893  42.7659183  14.6831171  92.6213020
  43.4758802  14.0424363  92.5799638  42.7228491  14.9344066  93.5439200
  50.7545962  21.6198524  95.5419599  50.6958508  20.9357745  94.8750182
  51.1565480  22.3617514  95.0900225  41.4788117  11.6696389  94.4408659
  40.9425474  11.2187127  95.0930255  40.8904825  11.8042298  93.6979123
  39.7736661  28.4360438  88.3353318  40.0133259  29.0678962  89.0132336
  38.9305857  28.0848478  88.6218677  40.8890376  11.1285040  77.0035123
  40.0119842  11.0073841  76.6397369  41.3648129  10.3371119  76.7514011
  50.7563369  19.5838108  93.7733578  49.8690148  19.2464030  93.8959977
  51.3261920  18.8521140  94.0102344  32.4092516  15.9162200  87.0976630
  33.0963556  15.6023930  86.5097645  32.2540645  16.8203565  86.8243881
  37.2127238  10.8052397  91.5261654  37.1285427  10.1978066  90.7912063
  36.3909945  11.2961415  91.5271150  44.2864522  24.2439561  90.7394822
  44.2134694  25.0494532  91.2514126  43.8441916  24.4431527  89.9142843
  44.0754302  23.4811331  84.2497643  43.2921824  24.0233011  84.3435868
  44.7747047  23.9985310  84.6491884  47.3850952   9.2905960  86.8931849
  47.8819652   8.5375923  86.5732919  46.6137934   9.3270277  86.3275058
  55.2380710  14.9946326  88.5350140  55.2270586  15.8771041  88.1644073
  54.3698089  14.6417877  88.3404677  46.7463206  24.1426395  92.8952980
  47.4591178  24.7773860  92.8228882  46.2553235  24.2390261  92.0792982
  48.4680733  18.0477647  84.4670272  47.5337012  18.1679110  84.2974976
  48.6457401  17.1450114  84.2030282  43.9685921  11.4323343  86.6203533
  43.5983708  10.8794384  87.3084439  44.4645013  10.8281477  86.0678533
  51.8553284  13.8894967  85.0020306  52.3213736  14.7222958  84.9280609
  52.3060785  13.4239948  85.7065565  41.7975119  21.8920838  93.7158551
  42.4984579  22.5257321  93.8687945  41.3270234  22.2335570  92.9554190
  49.9229515  20.2338788  82.0006458  50.1989359  20.1195383  82.9100332
  49.0534014  19.8356273  81.9618631  49.8269947   6.2575554  89.0411207
  48.9133027   6.4879781  89.2093414  50.2563048   6.3413998  89.8925240
  49.5976405  14.4465446  91.5411101  48.9447856  14.6941353  90.8863554
  49.9756785  13.6329584  91.2073579  46.5583579  24.4825139  85.6439272
  46.7405974  23.6646795  86.1067024  47.3816565  24.6992831  85.2064162
  46.8925745  23.4093324  82.9054320  47.4213511  22.8985779  82.2924482
  47.1553964  23.0935854  83.7699853  45.6463978  15.1885257  98.0277139
  44.9704615  15.0879386  98.6979514  46.4691612  15.0324471  98.4913136
  37.3942838  21.4257193  90.6489654  37.9796274  20.6800881  90.7817558
  37.1967676  21.7361150  91.5326318  40.2481493  24.4608441  85.6652096
  39.5791868  24.9454568  85.1816136  40.1094362  24.7077661  86.5795475
  31.9860492  13.9962794  89.3694097  32.0244592  13.4626384  90.1631215
  31.4800785  13.4697999  88.7505074  44.3886761  26.4952184  92.2634755
  44.9405069  26.6583806  93.0283840  44.7292955  27.0856622  91.5914779
  39.3651255   8.8427334  92.8656639  39.4292581   9.7042165  92.4534037
  39.3018375   8.2301336  92.1328998  38.8403527  10.9150467  96.5129674
  39.4675566  10.5327544  97.1267198  37.9831446  10.6964669  96.8785366
  49.2397636  21.3213442  98.1183409  49.7837540  21.9343400  97.6238364
  48.6584481  21.8793020  98.6350422  35.6169070  12.7226896  82.4448028
  35.9122511  11.8137574  82.3915082  34.7157106  12.7014635  82.1229031
  47.5255149  24.4434160  89.2498437  47.4006288  23.6423900  88.7409382
  48.1834240  24.9380353  88.7612407  39.1463317  10.7982892  88.4275577
  38.4249903  11.4118860  88.2883050  39.9356573  11.3340657  88.3492223
  49.5890057  22.2443180  90.8777987  48.6420393  22.1248531  90.8056314
  49.9372830  21.3565678  90.9604248  41.9489630   8.1337319  94.7016229
  42.4724032   8.3799615  95.4642538  41.7301964   8.9657354  94.2819366
  37.3456911  10.4040993  82.5687354  37.0169618   9.5238372  82.3862459
  37.6996282  10.3488662  83.4563743  46.5936490  22.0395896  87.0782339
  46.4461453  21.1112603  87.2589909  47.4189984  22.0615987  86.5939414
  40.4598735  10.6913963  82.9362831  40.7994807  11.2199884  82.2141440
  40.9070855  11.0294369  83.7121398  50.1970612  22.8624455  88.1647212
  51.1217160  22.6567316  88.0271663  50.0285916  22.6140856  89.0736553
  43.1542175   9.0751014  92.3865899  42.8138996   8.2758827  92.7886579
  42.4481182   9.3752725  91.8142732  43.8058647   6.1600326  90.8393222
  44.6284717   5.6860804  90.7172113  44.0496711   6.9390810  91.3391909
  42.4466882   9.1888585  81.1356124  43.1675244   9.5669838  80.6319841
  41.8232186   9.9077462  81.2391102  46.5898005   9.8933734  82.0714456
  46.8061619  10.7758372  81.7703284  46.1092072   9.5019947  81.3420098
  41.3297226  12.8519447  88.6485201  41.1841807  13.1659750  89.5409482
  40.8522430  13.4704347  88.0956100  43.1893609   9.8421995  88.6966090
  43.1755178   8.9463088  88.3598388  43.9066037   9.8492659  89.3304376
  45.0419740  10.2759335  90.7419218  44.7837517  11.1976406  90.7403548
  44.5104780   9.8789770  91.4319682  49.9865928  23.3810122  83.5209303
  50.1602806  22.8156545  82.7683156  50.4794820  24.1811017  83.3388793
  35.8042888  15.3924791  91.5872862  35.2596356  16.1684599  91.7193136
  36.6822238  15.7395596  91.4291983  42.5930505   8.7236375  83.9653661
  42.7146416   7.7953021  84.1644548  42.3032547   8.7375061  83.0531976
  45.4621695   6.4091286  87.1020380  45.4843392   6.4730619  86.1472360
  45.8789754   5.5695794  87.2960887  55.8405320  16.1446545  85.1399603
  56.2836466  15.3953870  84.7418726  54.9631830  16.1356682  84.7573335
  50.9741101  22.6976887  80.6206202  51.6692005  23.3183579  80.8393516
  51.3164251  21.8472238  80.8958579  36.5908910  14.5194688  94.4803019
  35.8490646  14.6677323  95.0667649  36.2701654  14.7802953  93.6169768
  52.8732524  20.1476592  82.1493532  53.3983848  20.4863865  81.4242852
  52.7854877  19.2123607  81.9656667  44.5352573  24.0610666  94.2783409
  44.8439699  23.8159813  95.1506109  45.3328055  24.2657304  93.7902279
  44.5573185  26.2148575  86.5088785  44.1178175  25.7224954  87.2021642
  45.3081302  25.6721543  86.2680861  37.0365524  22.4060116  86.5113414
  37.8623544  22.1063888  86.1312057  36.6859576  21.6367739  86.9603202
  42.0047057  21.7586585  88.5811087  41.3827066  21.0957290  88.2813315
  42.6751924  21.7847716  87.8984735  35.2374129  20.3246443  87.4702347
  34.4006037  19.8968617  87.2886348  35.2097774  20.5178886  88.4073138
  42.0771584  10.2368373  98.1743593  42.1259740  11.1130495  97.7921363
  42.6194099   9.6945766  97.6015236  52.5626430  20.7809496  97.4544730
  51.7721974  20.7633635  96.9149230  52.3259785  21.3197790  98.2093767
  52.6824305  17.6301962  94.7677459  52.7322310  17.4651970  95.7092982
  52.5738228  16.7629221  94.3775340  41.5660564  20.3090508  82.0569548
  41.7148684  20.9925972  81.4036220  42.3727007  20.2895598  82.5719003
  49.9728067  13.6132890  96.0836766  50.8737930  13.4739355  95.7920763
  50.0476042  13.7787345  97.0234943  44.3070873  10.9899745  94.9289952
  43.4374182  11.2833311  94.6572540  44.5430353  11.5740190  95.6497215
  54.1842502  20.0498904  95.0119480  53.8927310  20.4128884  95.8482941
  53.5714633  19.3365912  94.8332812  55.3838184  17.6151783  87.5322051
  56.2185076  18.0541588  87.6959611  55.5197313  17.1390437  86.7130296
  52.4329690  15.1731518  93.4799538  52.9083812  15.3659165  92.6718390
  51.5095256  15.2290704  93.2342922  39.3213197  16.3355686  83.0630617
  39.0759239  15.4318016  83.2610827  39.4909111  16.3372836  82.1210095
  47.0109907   7.2079362  92.4455372  47.5291850   7.9440389  92.1201861
  46.6565039   7.5143355  93.2802131  38.5908844  12.0684043  80.5616778
  37.8978089  12.1428398  79.9056814  38.3460596  11.3044387  81.0838295
  47.2622501   3.6279644  87.9656269  47.5424255   2.9602833  88.5916695
  48.0473108   3.8208740  87.4530933  45.0655969  22.8038638  79.5281295
  44.4929936  23.4228825  79.0751767  45.6388763  23.3538000  80.0621217
  51.1331359  12.0497278  91.7127844  52.0848782  12.1495376  91.7340068
  50.9634810  11.2575547  92.2225928  49.1545739   9.1352862  91.8987245
  48.5595671   9.4157874  91.2033733  48.8695435   9.6246763  92.6703986
  48.2853229  23.0875788  80.6589877  49.2183902  23.0221350  80.8622753
  48.1976442  23.9232055  80.2004410  50.9141246  22.4041659  77.6193825
  50.8354877  22.0701522  78.5129583  51.7350913  22.8963427  77.6185297
  53.6119437  15.2703398  90.8270144  53.5795757  14.3319399  91.0129827
  54.2220061  15.3487435  90.0935968  45.4502768  14.1399451  76.8697348
  46.3961873  14.0105659  76.9385766  45.0717013  13.4014113  77.3466776
  53.7613925  12.0614442  90.8728427  53.2452974  11.2772898  90.6858356
  54.6453874  11.7333158  91.0374946  51.4224652   5.8055457  86.8324239
  51.2249473   5.4970545  87.7167571  52.0324358   6.5317096  86.9622169
  59.4295987  16.3319405  89.9676180  60.1599375  16.0704693  90.5283884
  58.8202932  15.5948127  90.0078248  57.5111284  14.4727268  90.5650632
  56.7844447  14.3383232  89.9567123  57.0958571  14.7804096  91.3707350
  45.3341460  18.1917197  98.3298005  46.2544470  18.3695796  98.5238051
  45.2991043  17.2473243  98.1777704  43.6345685  12.0649427  76.8052233
  42.7277140  11.7682540  76.8814946  43.9121666  11.7679246  75.9386519
  34.5523625  13.3855791  87.2551279  34.2326410  12.5321099  86.9625653
  34.0057054  13.6004369  88.0109247  38.3303533  16.1018232  90.9720786
  38.5489543  17.0335340  90.9908820  38.7429307  15.7426206  91.7575590
  45.2507751   6.6086317  82.9596474  44.4408479   6.2633402  83.3351720
  45.9392168   6.2993861  83.5484086  47.1798299   5.6864364  84.5820771
  47.7329338   6.1059817  85.2410794  47.4168385   4.7600112  84.6243727
  42.4044470   8.9236363  76.9464212  43.2663634   9.2491261  77.2060029
  42.5894814   8.1367859  76.4337278  34.4211885  17.0058702  89.2244401
  33.7275357  16.5912655  88.7114355  35.1684876  17.0479239  88.6277820
  50.5577106   7.7964889  84.0899435  49.9775775   8.4549693  83.7077487
  50.2913039   6.9742234  83.6786853  49.0080672   7.1969947  86.2920755
  49.5080451   7.3086481  85.4835074  49.6516280   6.8931000  86.9321564
  43.0662668  15.1048576  99.1788596  42.5829750  15.9048937  99.3852485
  43.1523607  15.1156521  98.2256040  36.3348628  16.9376956  87.1010416
  36.3119316  17.0364643  86.1492299  36.6449264  17.7842107  87.4227582
  38.9936006  18.9953111  91.2157030  39.9479259  18.9637054  91.1486962
  38.7948529  18.5343735  92.0307256  39.5835388  17.5654227  93.7827828
  40.4028277  18.0598306  93.8062665  39.8572196  16.6486195  93.7545395
  49.3401984   9.9564980  83.1455783  48.4527839  10.2414630  82.9275978
  49.7555973   9.7958743  82.2983060  52.6916520   9.9811501  86.8610123
  53.4676910  10.4707953  87.1334739  51.9664654  10.4069555  87.3181992
  55.1289079  10.6939120  87.9184063  55.7233570  10.4534856  87.2077371
  55.2015663   9.9746250  88.5457599  37.3486235  24.5372731  88.2327228
  37.2140702  23.7773132  87.6665226  36.9318297  25.2613631  87.7656017
  48.4845198  19.7209654  77.2403803  49.1881048  19.9259657  77.8561459
  47.7607846  20.2886416  77.5052887  49.3143008  15.4719515  83.3606073
  49.2578209  15.9288067  82.5213706  49.8671350  14.7110200  83.1828916
  53.1247814  11.2609247  84.1856193  52.8684748  10.8605883  85.0164401
  52.5000682  11.9753041  84.0606332  57.4360152  14.0005321  86.6927484
  56.8759710  14.0698510  87.4659046  56.8303655  13.8246305  85.9726981
  40.5055360  25.4342048  88.4445671  40.3887745  26.3787480  88.3424361
  39.6847807  25.1315609  88.8331470  50.3931895  20.1592183  79.2902263
  51.2277499  19.7273382  79.1079738  50.2316238  19.9874197  80.2179158
  50.0477787  16.6624297  80.6558603  49.9926591  16.4968568  79.7147047
  49.4223842  17.3700330  80.8120792  34.8370302  11.8992361  94.4820025
  35.4829166  11.3891315  94.9707250  34.6287453  12.6361043  95.0563450
  47.3623694  18.9673209  99.9812165  48.2314854  19.1413861  99.6198800
  46.8830446  19.7867625  99.8587895  43.3573913   6.1632406  80.2343921
  43.3452582   7.1074246  80.3912192  44.2497334   5.9802551  79.9403382
  41.5309875  26.0870310  91.6601599  42.4337121  26.1193920  91.9768094
  41.3047245  25.1570761  91.6747935  43.2863477  24.8401296  88.3211678
  42.3359108  24.8403158  88.2076050  43.5895963  24.0934031  87.8047712
  47.1726032   2.7575182  84.4889858  46.4058428   2.2033669  84.6346540
  47.5836737   2.8297051  85.3504009  59.0216170  30.6761835  89.3857440
  59.6594580  30.5568582  88.6820780  58.9037013  31.6242678  89.4445392
  55.8305876  30.6289263  89.3218965  55.4924388  30.5130327  88.4339500
  56.6995644  30.2280428  89.3019971  51.6892692  32.4824739  85.3115856
  51.1257557  32.3914676  84.5432143  51.5745087  31.6624643  85.7918348
  56.3125659  31.7824114  95.2805170  56.3014300  31.3876913  94.4085674
  56.4746299  31.0490187  95.8738942  49.2357124  33.9775931  88.1500076
  50.0278416  33.6366755  87.7346375  49.4753774  34.0870906  89.0702229
  57.2692251  36.1495707  80.6230321  56.6180230  36.7349787  80.2364334
  58.0636614  36.6801902  80.6825358  51.1947878  33.2384844  81.0217455
  51.9678754  32.6913831  80.8830331  51.5473277  34.1029093  81.2331916
  53.0332920  34.5661226  94.2284354  52.7422786  35.4706857  94.1131021
  53.6689905  34.6077754  94.9428424  53.9589127  31.9438075  90.8185714
  54.5552700  31.7194097  90.1042677  54.0164099  31.2022820  91.4211162
  53.5314156  29.3977510  78.6535905  53.7839676  28.8759031  77.8919368
  52.5938715  29.2343655  78.7562588  58.5757439  28.4013288  86.4610648
  59.3620528  27.9832712  86.1101065  58.8396143  29.3059381  86.6292297
  58.7467516  33.8386139  81.1599305  58.1113349  33.9120765  81.8720210
  58.4164922  34.4279738  80.4818384  63.9765866  28.3388522  87.3643627
  64.7091038  27.7687738  87.5981456  63.2205221  27.9510122  87.8050132
  53.2510444  31.3005616  80.8560280  53.1346703  30.6250519  81.5241364
  53.3612704  30.8137990  80.0392433  55.5941985  30.7615763  84.5606969
  55.2300193  30.2346384  85.2719891  56.4509101  30.3714232  84.3873454
  61.4991286  22.0510096  91.8238235  61.1674611  22.9205507  91.5999450
  60.9036899  21.7346380  92.5032266  55.2347472  25.7905663  79.5568318
  55.4021875  26.6585899  79.9238789  55.0444641  25.9532944  78.6329607
  57.9922806  34.2522642  91.2234148  57.6923529  35.1547680  91.1149955
  57.6473865  33.9854825  92.0755301  51.4435287  30.7036439  87.2570852
  50.5185783  30.5712653  87.4648544  51.6919700  31.4830658  87.7540795
  61.3919949  26.7705182  88.9031585  60.4836827  26.7020590  88.6090346
  61.3407545  27.2477127  89.7313411  55.2136693  28.2463320  80.5414984
  55.0936318  28.6920371  81.3800465  54.5189282  28.5948638  79.9828523
  48.8044098  30.3469712  88.0914641  48.9336479  30.6004191  89.0054053
  48.1241549  30.9397420  87.7719297  52.9743585  41.0166962  84.1905116
  52.8967615  41.9674787  84.2693596  52.3705229  40.6712835  84.8480042
  55.4660815  28.1894827  96.8466483  54.6894149  28.7488748  96.8369347
  56.1051378  28.6751610  97.3681353  63.2581596  24.9721620  90.6809459
  62.6155976  25.2654153  90.0349254  62.7536524  24.8574541  91.4862656
  60.9121759  28.7184793  81.3695318  61.8239615  28.9512180  81.1943016
  60.4031406  29.3021838  80.8070397  53.7207187  30.9980281  96.4084450
  54.4621872  31.5365325  96.1319273  53.0144173  31.6246570  96.5656001
  59.1962527  33.1409421  95.0056611  59.6045883  32.6991832  94.2611243
  58.4739789  32.5662049  95.2590804  55.5493597  28.0782028  92.3790168
  56.3954792  28.5021442  92.5224817  55.4892235  27.4215652  93.0728731
  59.5191342  33.7010612  88.7608900  58.8900204  33.8656326  88.0584968
  59.1317004  34.1152221  89.5319864  63.3980574  34.6365050  86.1153264
  62.7131612  35.0163951  85.5650297  63.4824423  35.2460376  86.8485211
  58.6993042  25.7386396  94.0371342  58.4553974  26.4928457  93.5005617
  58.9752973  26.1171744  94.8718589  60.6531505  32.2825009  92.7148607
  60.8648400  32.9256769  92.0382988  60.6061253  31.4487325  92.2470537
  58.2557734  24.8942829  89.6185179  57.3942213  25.1924083  89.9101917
  58.2820169  25.1113228  88.6866212  55.0719304  33.4385020  86.0258985
  55.5357649  33.7172723  85.2363608  54.8076102  32.5368465  85.8432076
  51.9643385  32.9856502  88.9638748  52.5344742  33.4143770  88.3256233
  52.5551496  32.7039086  89.6622934  54.0088190  29.5608172  82.8348550
  54.7112233  30.0129216  83.3022477  53.6768818  28.9191991  83.4628443
  52.4568551  28.1519929  97.2099760  51.8267212  28.8336210  97.4435156
  52.3504639  28.0403011  96.2652898  47.7513524  27.8191725  88.1365684
  46.9612578  28.0749254  87.6605794  48.2424771  28.6340063  88.2417724
  61.7677333  35.1596964  90.8870965  62.5894777  34.7577151  90.6053646
  61.7639736  35.0565198  91.8387080  49.7028269  28.1836304  85.0949160
  48.9059432  28.2954999  85.6132656  49.4753861  28.5222956  84.2290051
  55.5333937  34.7081007  93.0431675  55.5978369  35.1701415  93.8789847
  54.8244860  34.0778372  93.1713985  46.0351227  28.0722215  90.5680675
  46.2859265  28.9569225  90.8338250  46.5710775  27.8926817  89.7955766
  69.8583326  31.5035713  87.2355936  69.1047035  30.9343111  87.0799940
  69.9930867  31.4698377  88.1826571  55.2481954  36.3749115  82.9110655
  55.1127629  37.2200651  83.3395503  55.7891767  36.5768393  82.1476589
  51.7349294  22.4540695  99.5725011  51.3416239  21.9006893 100.2472655
  52.5515434  22.7651273  99.9631528  48.7011352  33.8924553  83.4838580
  49.2135872  34.6867803  83.6344145  49.3534064  33.1950843  83.4172182
  50.5106236  37.0090309  85.5661334  50.6872865  37.9308274  85.3782318
  51.3063070  36.6948728  85.9955713  54.6517255  23.8698574  97.1645267
  55.3926968  24.4705727  97.0849730  54.8835178  23.1276212  96.6063310
  49.7958593  29.0554941  95.4423497  49.6812108  28.1540198  95.7430596
  48.9403111  29.3018638  95.0908313  56.8750431  36.9972681  97.0410997
  56.4314285  36.2109060  96.7231902  57.5367644  37.1851832  96.3754888
  51.6337552  38.5268483  91.5671676  52.1844977  38.3985546  90.7948670
  50.7949028  38.8263372  91.2166569  58.9731669  37.2775481  95.0692399
  58.9550144  38.0984362  94.5772668  59.8951589  37.1529557  95.2942540
  55.4304723  34.7919611  95.9115907  55.9633060  34.0307899  95.6815215
  54.9018804  34.4993263  96.6540062  58.5974418  19.8979677  91.4409549
  58.2538687  20.7881319  91.3648659  58.9653380  19.7081334  90.5779134
  46.6660268  32.2213207  84.2598151  47.5035490  32.6310216  84.0431859
  46.8438536  31.2812649  84.2298345  58.5624701  29.8888288  79.9481984
  58.0471324  30.6592893  80.1870371  58.2902009  29.2153424  80.5715045
  56.1471812  24.7337989  85.0067222  55.2913408  24.3444839  84.8272861
  56.5598763  24.8129950  84.1467008  57.6770958  22.2684332  89.4058782
  57.1735754  22.2314467  88.5926587  57.9701565  23.1777075  89.4655439
  53.9213844  22.3523062  88.4124964  54.7866841  22.1565870  88.0530853
  53.9891353  22.1233413  89.3394321  63.5358975  32.6420643  81.8835157
  62.7588417  32.3031802  81.4390320  64.2150456  32.6473266  81.2090122
  58.3511004  27.7615380  81.7741765  58.0461139  28.0761529  82.6251908
  59.3041446  27.8396800  81.8169098  56.7957436  33.9205603  83.4234719
  56.2678797  33.1858363  83.1107957  56.2944938  34.6980280  83.1774687
  61.7750282  32.1154624  88.5401765  61.1173956  32.8053885  88.6281894
  62.5790681  32.5051056  88.8835752  51.5276163  24.5825270  85.7841331
  52.1019915  24.3600451  85.0514524  52.1147146  24.6513964  86.5369932
  60.5855740  30.4698997  86.5905707  61.0987622  31.1028988  87.0927417
  61.2356964  29.8700192  86.2249067  51.8545750  26.6129731  79.8037216
  51.0183063  26.9504417  80.1246491  51.7150520  26.4778710  78.8664353
  53.8298831  21.4566519  84.5116400  53.1763243  21.1415536  83.8873015
  53.7879305  20.8342259  85.2376223  54.9410036  31.7385814  76.4269692
  54.0337097  31.5075067  76.6260841  55.4381068  30.9423433  76.6143674
  57.8478115  40.4483321  79.3466378  57.1739813  40.7515018  79.9551336
  58.2343937  41.2512401  78.9971835  57.0636571  27.9448452  88.8364048
  56.1459133  28.1663399  88.6785736  57.4796715  28.0194763  87.9775755
  57.8471619  29.3439868  83.9666728  58.5943438  29.8561265  83.6573850
  58.1163209  29.0223921  84.8271122  56.1198269  31.8398409  80.9493682
  55.2109488  31.5557441  81.0466152  56.1493353  32.2597487  80.0896989
  61.3517537  35.4504998  84.7184850  60.8979864  34.6095908  84.7750040
  60.7211503  36.0866396  85.0559630  60.2950456  26.3796984  85.9485517
  59.5573213  25.8674370  86.2795760  60.5477230  25.9397366  85.1368794
  59.7950476  37.2881495  85.6534668  60.0873450  37.8486552  84.9347034
  60.3049096  37.5810056  86.4087827  60.3962083  19.1573236  86.5427287
  60.7020960  18.2970599  86.2553202  61.1214688  19.7490856  86.3426280
  46.6886440  29.5603923  84.9308884  46.4910839  28.9673283  84.2059951
  46.1333104  29.2556133  85.6484823  54.6683163  29.4527029  87.0503478
  54.7231773  28.5000866  86.9745954  53.8574365  29.6086468  87.5344776
  55.8174357  33.3807152  78.2881761  55.3793787  32.6643011  77.8287398
  56.5584798  33.6083267  77.7266852  52.6075523  28.0704089  84.8093856
  51.7943389  28.3698259  85.2159049  53.1034517  27.6759778  85.5268339
  54.7584101  38.0661846  86.7428121  54.7160280  38.2922692  85.8136653
  55.6746800  37.8325220  86.8913922  58.2049735  28.5345913  93.6408750
  58.5599123  28.7617386  94.5003216  58.8521866  28.8664290  93.0186006
  63.9347472  31.6564349  84.3458079  63.7965370  31.8465945  83.4179269
  63.5783691  32.4183732  84.8026131  52.0989598  25.6422444  90.4255091
  52.7388977  25.5011203  89.7278055  51.2667128  25.3556958  90.0493693
  63.9616851  33.7240876  89.3569351  64.3953358  33.6316165  90.2052405
  64.6748432  33.6998377  88.7189367  52.8749902  34.9424875  86.5390084
  53.6690500  34.4475195  86.3372659  52.1641594  34.4142738  86.1757789
  57.6944746  37.3242970  90.8902452  57.7481769  37.8933907  91.6580167
  56.8259528  37.4944855  90.5256489  49.1832665  29.0867957  82.6149837
  48.2530253  29.0252412  82.8319799  49.2790137  28.5643909  81.8186478
  49.1018214  25.6122769  85.2028078  49.3625032  26.5268103  85.0937239
  49.9235387  25.1447212  85.3524691  50.5743140  27.0260527  92.3726903
  51.2466193  26.8177889  91.7239552  49.7472926  26.8282613  91.9332135
  64.8232401  33.7664577  91.8902236  65.0168291  34.6710387  92.1361511
  64.7233019  33.3071996  92.7240821  56.4768712  23.6522467  94.3892564
  55.8296627  24.3512417  94.2957040  57.2469727  24.0858611  94.7568812
  59.8847510  33.9171320  97.4643117  59.7333016  33.6881871  96.5473201
  59.8752189  34.8741921  97.4774462  56.6532846  31.4903232  92.4489383
  57.5824906  31.6414392  92.2758351  56.2323876  31.5787253  91.5938030
  55.4521178  35.5153897  90.2187921  55.3132263  35.1472681  91.0913859
  54.6635774  36.0301536  90.0471879  56.0469330  40.6162993  81.5613458
  56.2221085  40.1451036  82.3759080  55.3602118  41.2428759  81.7894718
  57.0026393  34.8935499  87.6076759  56.6676226  34.8536269  88.5034409
  56.5030339  34.2280215  87.1347169  50.9770637  30.3003129  93.1329340
  50.8390435  29.5683368  93.7340879  51.8875560  30.2112030  92.8513528
  59.9385585  32.2391534  77.8813818  59.3214755  31.5138362  77.7846871
  59.4702073  33.0000894  77.5380893  53.6052938  30.0123089  92.6213020
  54.3152556  29.3716281  92.5799638  53.5622246  30.2635984  93.5439200
  61.5939716  36.9490442  95.5419599  61.5352262  36.2649662  94.8750182
  61.9959235  37.6909432  95.0900225  52.3181872  26.9988307  94.4408659
  51.7819229  26.5479045  95.0930255  51.7298580  27.1334216  93.6979123
  50.6130415  43.7652356  88.3353318  50.8527013  44.3970880  89.0132336
  49.7699612  43.4140396  88.6218677  51.7284130  26.4576958  77.0035123
  50.8513597  26.3365759  76.6397369  52.2041884  25.6663036  76.7514011
  61.5957124  34.9130026  93.7733578  60.7083902  34.5755948  93.8959977
  62.1655675  34.1813057  94.0102344  43.2486271  31.2454118  87.0976630
  43.9357310  30.9315848  86.5097645  43.0934399  32.1495482  86.8243881
  48.0520993  26.1344314  91.5261654  47.9679181  25.5269984  90.7912063
  47.2303699  26.6253333  91.5271150  55.1258277  39.5731478  90.7394822
  55.0528448  40.3786450  91.2514126  54.6835670  39.7723444  89.9142843
  54.9148057  38.8103248  84.2497643  54.1315578  39.3524929  84.3435868
  55.6140802  39.3277228  84.6491884  58.2244707  24.6197878  86.8931849
  58.7213406  23.8667840  86.5732919  57.4531688  24.6562195  86.3275058
  66.0774464  30.3238243  88.5350140  66.0664340  31.2062959  88.1644073
  65.2091843  29.9709794  88.3404677  57.5856960  39.4718312  92.8952980
  58.2984933  40.1065777  92.8228882  57.0946989  39.5682178  92.0792982
  59.3074487  33.3769565  84.4670272  58.3730766  33.4971028  84.2974976
  59.4851156  32.4742032  84.2030282  54.8079675  26.7615261  86.6203533
  54.4377463  26.2086301  87.3084439  55.3038768  26.1573394  86.0678533
  62.6947039  29.2186884  85.0020306  63.1607491  30.0514876  84.9280609
  63.1454539  28.7531866  85.7065565  52.6368874  37.2212756  93.7158551
  53.3378333  37.8549239  93.8687945  52.1663989  37.5627487  92.9554190
  60.7623270  35.5630706  82.0006458  61.0383114  35.4487300  82.9100332
  59.8927769  35.1648191  81.9618631  60.6663701  21.5867471  89.0411207
  59.7526781  21.8171698  89.2093414  61.0956803  21.6705915  89.8925240
  60.4370160  29.7757363  91.5411101  59.7841610  30.0233271  90.8863554
  60.8150540  28.9621502  91.2073579  57.3977334  39.8117057  85.6439272
  57.5799728  38.9938713  86.1067024  58.2210320  40.0284749  85.2064162
  57.7319499  38.7385242  82.9054320  58.2607266  38.2277696  82.2924482
  57.9947719  38.4227772  83.7699853  56.4857733  30.5177174  98.0277139
  55.8098370  30.4171304  98.6979514  57.3085367  30.3616388  98.4913136
  48.2336592  36.7549111  90.6489654  48.8190029  36.0092799  90.7817558
  48.0361430  37.0653068  91.5326318  51.0875247  39.7900358  85.6652096
  50.4185622  40.2746486  85.1816136  50.9488117  40.0369579  86.5795475
  42.8254247  29.3254711  89.3694097  42.8638346  28.7918302  90.1631215
  42.3194540  28.7989917  88.7505074  55.2280516  41.8244102  92.2634755
  55.7798824  41.9875723  93.0283840  55.5686709  42.4148540  91.5914779
  50.2045009  24.1719252  92.8656639  50.2686336  25.0334083  92.4534037
  50.1412129  23.5593253  92.1328998  49.6797282  26.2442384  96.5129674
  50.3069320  25.8619462  97.1267198  48.8225200  26.0256586  96.8785366
  60.0791390  36.6505359  98.1183409  60.6231294  37.2635318  97.6238364
  59.4978235  37.2084938  98.6350422  46.4562824  28.0518813  82.4448028
  46.7516265  27.1429492  82.3915082  45.5550860  28.0306553  82.1229031
  58.3648903  39.7726077  89.2498437  58.2400043  38.9715817  88.7409382
  59.0227994  40.2672271  88.7612407  49.9857071  26.1274810  88.4275577
  49.2643657  26.7410778  88.2883050  50.7750327  26.6632575  88.3492223
  60.4283811  37.5735098  90.8777987  59.4814147  37.4540449  90.8056314
  60.7766585  36.6857596  90.9604248  52.7883385  23.4629236  94.7016229
  53.3117787  23.7091533  95.4642538  52.5695718  24.2949271  94.2819366
  48.1850666  25.7332911  82.5687354  47.8563372  24.8530290  82.3862459
  48.5390037  25.6780580  83.4563743  57.4330245  37.3687814  87.0782339
  57.2855207  36.4404521  87.2589909  58.2583738  37.3907904  86.5939414
  51.2992489  26.0205881  82.9362831  51.6388562  26.5491802  82.2141440
  51.7464610  26.3586287  83.7121398  61.0364367  38.1916372  88.1647212
  61.9610914  37.9859234  88.0271663  60.8679670  37.9432774  89.0736553
  53.9935930  24.4042932  92.3865899  53.6532750  23.6050745  92.7886579
  53.2874936  24.7044642  91.8142732  54.6452402  21.4892244  90.8393222
  55.4678471  21.0152722  90.7172113  54.8890465  22.2682728  91.3391909
  53.2860636  24.5180502  81.1356124  54.0068999  24.8961755  80.6319841
  52.6625940  25.2369379  81.2391102  57.4291759  25.2225651  82.0714456
  57.6455373  26.1050289  81.7703284  56.9485826  24.8311865  81.3420098
  52.1690980  28.1811365  88.6485201  52.0235561  28.4951668  89.5409482
  51.6916184  28.7996265  88.0956100  54.0287363  25.1713913  88.6966090
  54.0148932  24.2755006  88.3598388  54.7459791  25.1784576  89.3304376
  55.8813494  25.6051253  90.7419218  55.6231272  26.5268323  90.7403548
  55.3498534  25.2081687  91.4319682  60.8259683  38.7102040  83.5209303
  60.9996560  38.1448462  82.7683156  61.3188574  39.5102935  83.3388793
  46.6436643  30.7216709  91.5872862  46.0990111  31.4976517  91.7193136
  47.5215993  31.0687513  91.4291983  53.4324259  24.0528293  83.9653661
  53.5540170  23.1244939  84.1644548  53.1426302  24.0666979  83.0531976
  56.3015450  21.7383203  87.1020380  56.3237147  21.8022536  86.1472360
  56.7183509  20.8987712  87.2960887  66.6799074  31.4738463  85.1399603
  67.1230220  30.7245788  84.7418726  65.8025584  31.4648599  84.7573335
  61.8134855  38.0268804  80.6206202  62.5085760  38.6475497  80.8393516
  62.1558005  37.1764156  80.8958579  47.4302665  29.8486605  94.4803019
  46.6884401  29.9969241  95.0667649  47.1095409  30.1094871  93.6169768
  63.7126278  35.4768510  82.1493532  64.2377603  35.8155783  81.4242852
  63.6248631  34.5415525  81.9656667  55.3746327  39.3902583  94.2783409
  55.6833454  39.1451730  95.1506109  56.1721809  39.5949222  93.7902279
  55.3966939  41.5440493  86.5088785  54.9571929  41.0516872  87.2021642
  56.1475056  41.0013461  86.2680861  47.8759278  37.7352034  86.5113414
  48.7017298  37.4355806  86.1312057  47.5253330  36.9659656  86.9603202
  52.8440811  37.0878502  88.5811087  52.2220821  36.4249207  88.2813315
  53.5145678  37.1139634  87.8984735  46.0767883  35.6538360  87.4702347
  45.2399792  35.2260535  87.2886348  46.0491529  35.8470804  88.4073138
  52.9165339  25.5660290  98.1743593  52.9653494  26.4422413  97.7921363
  53.4587853  25.0237683  97.6015236  63.4020185  36.1101413  97.4544730
  62.6115728  36.0925552  96.9149230  63.1653539  36.6489707  98.2093767
  63.5218060  32.9593880  94.7677459  63.5716064  32.7943887  95.7092982
  63.4131983  32.0921139  94.3775340  52.4054318  35.6382426  82.0569548
  52.5542439  36.3217890  81.4036220  53.2120762  35.6187516  82.5719003
  60.8121822  28.9424808  96.0836766  61.7131685  28.8031273  95.7920763
  60.8869796  29.1079263  97.0234943  55.1464627  26.3191663  94.9289952
  54.2767937  26.6125229  94.6572540  55.3824108  26.9032108  95.6497215
  65.0236256  35.3790821  95.0119480  64.7321065  35.7420802  95.8482941
  64.4108388  34.6657830  94.8332812  66.2231939  32.9443701  87.5322051
  67.0578830  33.3833505  87.6959611  66.3591068  32.4682354  86.7130296
  63.2723445  30.5023436  93.4799538  63.7477566  30.6951082  92.6718390
  62.3489010  30.5582622  93.2342922  50.1606951  31.6647603  83.0630617
  49.9152993  30.7609933  83.2610827  50.3302866  31.6664754  82.1210095
  57.8503661  22.5371280  92.4455372  58.3685605  23.2732306  92.1201861
  57.4958794  22.8435273  93.2802131  49.4302599  27.3975961  80.5616778
  48.7371844  27.4720316  79.9056814  49.1854351  26.6336304  81.0838295
  58.1016255  18.9571562  87.9656269  58.3818009  18.2894751  88.5916695
  58.8866862  19.1500658  87.4530933  55.9049724  38.1330556  79.5281295
  55.3323691  38.7520743  79.0751767  56.4782517  38.6829918  80.0621217
  61.9725114  27.3789196  91.7127844  62.9242537  27.4787294  91.7340068
  61.8028564  26.5867465  92.2225928  59.9939493  24.4644779  91.8987245
  59.3989425  24.7449792  91.2033733  59.7089190  24.9538680  92.6703986
  59.1246984  38.4167706  80.6589877  60.0577657  38.3513268  80.8622753
  59.0370196  39.2523973  80.2004410  61.7535000  37.7333576  77.6193825
  61.6748632  37.3993440  78.5129583  62.5744667  38.2255344  77.6185297
  64.4513191  30.5995316  90.8270144  64.4189512  29.6611317  91.0129827
  65.0613815  30.6779352  90.0935968  56.2896522  29.4691369  76.8697348
  57.2355627  29.3397577  76.9385766  55.9110767  28.7306031  77.3466776
  64.6007680  27.3906359  90.8728427  64.0846729  26.6064816  90.6858356
  65.4847628  27.0625076  91.0374946  62.2618407  21.1347375  86.8324239
  62.0643228  20.8262463  87.7167571  62.8718112  21.8609014  86.9622169
  70.2689741  31.6611323  89.9676180  70.9993130  31.3996611  90.5283884
  69.6596687  30.9240045  90.0078248  68.3505038  29.8019185  90.5650632
  67.6238202  29.6675150  89.9567123  67.9352325  30.1096014  91.3707350
  56.1735215  33.5209115  98.3298005  57.0938224  33.6987714  98.5238051
  56.1384798  32.5765160  98.1777704  54.4739439  27.3941345  76.8052233
  53.5670895  27.0974458  76.8814946  54.7515420  27.0971163  75.9386519
  45.3917380  28.7147709  87.2551279  45.0720164  27.8613017  86.9625653
  44.8450808  28.9296287  88.0109247  49.1697287  31.4310150  90.9720786
  49.3883297  32.3627257  90.9908820  49.5823061  31.0718124  91.7575590
  56.0901505  21.9378235  82.9596474  55.2802233  21.5925320  83.3351720
  56.7785922  21.6285779  83.5484086  58.0192053  21.0156282  84.5820771
  58.5723092  21.4351735  85.2410794  58.2562140  20.0892030  84.6243727
  54.0425153  27.0043355 100.3623535  53.9421880  27.9537712 100.2935626
  53.8246695  26.6761594  99.4899605  53.2438224  24.2528280  76.9464212
  54.1057388  24.5783179  77.2060029  53.4288568  23.4659776  76.4337278
  45.2605640  32.3350620  89.2244401  44.5669111  31.9204573  88.7114355
  46.0078631  32.3771157  88.6277820  61.3970861  23.1256807  84.0899435
  60.8169530  23.7841611  83.7077487  61.1306793  22.3034151  83.6786853
  59.8474427  22.5261865  86.2920755  60.3474205  22.6378399  85.4835074
  60.4910035  22.2222917  86.9321564  53.9056423  30.4340494  99.1788596
  53.4223504  31.2340854  99.3852485  53.9917362  30.4448439  98.2256040
  47.1742382  32.2668874  87.1010416  47.1513070  32.3656561  86.1492299
  47.4843019  33.1134025  87.4227582  49.8329760  34.3245029  91.2157030
  50.7873014  34.2928971  91.1486962  49.6342284  33.8635653  92.0307256
  50.4229142  32.8946145  93.7827828  51.2422031  33.3890224  93.8062665
  50.6965950  31.9778113  93.7545395  60.1795739  25.2856897  83.1455783
  59.2921594  25.5706548  82.9275978  60.5949728  25.1250661  82.2983060
  63.5310275  25.3103418  86.8610123  64.3070665  25.7999871  87.1334739
  62.8058409  25.7361472  87.3181992  65.9682833  26.0231037  87.9184063
  66.5627324  25.7826773  87.2077371  66.0409417  25.3038168  88.5457599
  48.1879989  39.8664648  88.2327228  48.0534457  39.1065049  87.6665226
  47.7712051  40.5905548  87.7656017  59.3238952  35.0501572  77.2403803
  60.0274802  35.2551574  77.8561459  58.6001601  35.6178334  77.5052887
  60.1536762  30.8011433  83.3606073  60.0971964  31.2579985  82.5213706
  60.7065105  30.0402118  83.1828916  63.9641568  26.5901165  84.1856193
  63.7078502  26.1897801  85.0164401  63.3394436  27.3044959  84.0606332
  68.2753906  29.3297238  86.6927484  67.7153464  29.3990428  87.4659046
  67.6697409  29.1538223  85.9726981  51.3449115  40.7633965  88.4445671
  51.2281499  41.7079398  88.3424361  50.5241561  40.4607527  88.8331470
  61.2325649  35.4884101  79.2902263  62.0671253  35.0565300  79.1079738
  61.0709992  35.3166115  80.2179158  60.8871542  31.9916214  80.6558603
  60.8320345  31.8260486  79.7147047  60.2617597  32.6992247  80.8120792
  45.6764057  27.2284279  94.4820025  46.3222920  26.7183233  94.9707250
  45.4681208  27.9652960  95.0563450  58.2017449  34.2965126  99.9812165
  59.0708608  34.4705779  99.6198800  57.7224200  35.1159543  99.8587895
  54.1967667  21.4924323  80.2343921  54.1846337  22.4366163  80.3912192
  55.0891089  21.3094469  79.9403382  52.3703629  41.4162227  91.6601599
  53.2730876  41.4485838  91.9768094  52.1440999  40.4862678  91.6747935
  54.1257231  40.1693214  88.3211678  53.1752862  40.1695075  88.2076050
  54.4289717  39.4225948  87.8047712  58.0119787  18.0867100  84.4889858
  57.2452182  17.5325587  84.6346540  58.4230491  18.1588969  85.3504009
  50.0161548  24.3751896  98.5795039  50.8793009  24.0188701  98.7898364
  49.4426958  24.0365791  99.2670443  69.8609925  46.0053752  89.3857440
  70.4988334  45.8860500  88.6820780  69.7430767  46.9534596  89.4445392
  66.6699631  45.9581180  89.3218965  66.3318142  45.8422245  88.4339500
  67.5389399  45.5572345  89.3019971  62.5286446  47.8116657  85.3115856
  61.9651312  47.7206594  84.5432143  62.4138842  46.9916561  85.7918348
  67.1519414  47.1116032  95.2805170  67.1408055  46.7168830  94.4085674
  67.3140053  46.3782105  95.8738942  60.0750878  49.3067848  88.1500076
  60.8672170  48.9658673  87.7346375  60.3147529  49.4162823  89.0702229
  63.8726675  49.8953144  94.2284354  63.5816541  50.7998775  94.1131021
  64.5083659  49.9369671  94.9428424  64.7982882  47.2729992  90.8185714
  65.3946454  47.0486015  90.1042677  64.8557853  46.5314738  91.4211162
  64.3707910  44.7269428  78.6535905  64.6233431  44.2050949  77.8919368
  63.4332469  44.5635573  78.7562588  69.4151193  43.7305206  86.4610648
  70.2014282  43.3124629  86.1101065  69.6789897  44.6351298  86.6292297
  69.5861270  49.1678056  81.1599305  68.9507103  49.2412683  81.8720210
  69.2558677  49.7571655  80.4818384  74.8159620  43.6680439  87.3643627
  75.5484792  43.0979656  87.5981456  74.0598976  43.2802040  87.8050132
  66.4335740  46.0907681  84.5606969  66.0693947  45.5638302  85.2719891
  67.2902856  45.7006150  84.3873454  72.3385040  37.3802013  91.8238235
  72.0068365  38.2497424  91.5999450  71.7430654  37.0638297  92.5032266
  66.0741227  41.1197580  79.5568318  66.2415629  41.9877817  79.9238789
  65.8838396  41.2824862  78.6329607  68.8316560  49.5814559  91.2234148
  68.5317283  50.4839598  91.1149955  68.4867620  49.3146743  92.0755301
  62.2829041  46.0328356  87.2570852  61.3579538  45.9004570  87.4648544
  62.5313455  46.8122575  87.7540795  72.2313704  42.0997100  88.9031585
  71.3230581  42.0312508  88.6090346  72.1801300  42.5769044  89.7313411
  66.0530448  43.5755238  80.5414984  65.9330073  44.0212289  81.3800465
  65.3583036  43.9240556  79.9828523  59.6437853  45.6761630  88.0914641
  59.7730234  45.9296109  89.0054053  58.9635304  46.2689338  87.7719297
  63.8137340  56.3458880  84.1905116  63.7361370  57.2966705  84.2693596
  63.2098983  56.0004752  84.8480042  66.3054570  43.5186745  96.8466483
  65.5287904  44.0780665  96.8369347  66.9445133  44.0043528  97.3681353
  74.0975350  40.3013538  90.6809459  73.4549730  40.5946071  90.0349254
  73.5930279  40.1866458  91.4862656  71.7515514  44.0476711  81.3695318
  72.6633370  44.2804098  81.1943016  71.2425161  44.6313755  80.8070397
  64.5600942  46.3272198  96.4084450  65.3015626  46.8657242  96.1319273
  63.8537927  46.9538487  96.5656001  70.0356282  48.4701339  95.0056611
  70.4439638  48.0283749  94.2611243  69.3133543  47.8953966  95.2590804
  66.3887352  43.4073946  92.3790168  67.2348547  43.8313359  92.5224817
  66.3285989  42.7507570  93.0728731  70.3585096  49.0302530  88.7608900
  69.7293959  49.1948244  88.0584968  69.9710758  49.4444139  89.5319864
  74.2374328  49.9656967  86.1153264  73.5525366  50.3455869  85.5650297
  74.3218177  50.5752294  86.8485211  69.5386797  41.0678314  94.0371342
  69.2947729  41.8220375  93.5005617  69.8146727  41.4463662  94.8718589
  71.4925260  47.6116926  92.7148607  71.7042155  48.2548686  92.0382988
  71.4455008  46.7779243  92.2470537  69.0951489  40.2234747  89.6185179
  68.2335968  40.5216001  89.9101917  69.1213923  40.4405146  88.6866212
  65.9113058  48.7676938  86.0258985  66.3751404  49.0464641  85.2363608
  65.6469856  47.8660382  85.8432076  62.8037139  48.3148419  88.9638748
  63.3738496  48.7435688  88.3256233  63.3945251  48.0331004  89.6622934
  64.8481944  44.8900090  82.8348550  65.5505987  45.3421134  83.3022477
  64.5162573  44.2483909  83.4628443  63.2962306  43.4811847  97.2099760
  62.6660966  44.1628128  97.4435156  63.1898394  43.3694928  96.2652898
  58.5907278  43.1483643  88.1365684  57.8006332  43.4041171  87.6605794
  59.0818525  43.9631981  88.2417724  72.6071088  50.4888882  90.8870965
  73.4288531  50.0869069  90.6053646  72.6033490  50.3857116  91.8387080
  60.5422023  43.5128222  85.0949160  59.7453187  43.6246916  85.6132656
  60.3147616  43.8514874  84.2290051  66.3727691  50.0372925  93.0431675
  66.4372124  50.4993332  93.8789847  65.6638615  49.4070290  93.1713985
  56.8744981  43.4014133  90.5680675  57.1253019  44.2861143  90.8338250
  57.4104529  43.2218735  89.7955766  80.6977081  46.8327630  87.2355936
  79.9440789  46.2635028  87.0799940  80.8324622  46.7990295  88.1826571
  66.0875709  51.7041033  82.9110655  65.9521384  52.5492568  83.3395503
  66.6285521  51.9060310  82.1476589  62.5743048  37.7832612  99.5725011
  62.1809994  37.2298811 100.2472655  63.3909189  38.0943191  99.9631528
  59.5405106  49.2216471  83.4838580  60.0529627  50.0159721  83.6344145
  60.1927819  48.5242761  83.4172182  61.3499991  52.3382227  85.5661334
  61.5266619  53.2600192  85.3782318  62.1456824  52.0240646  85.9955713
  65.4911009  39.1990492  97.1645267  66.2320723  39.7997645  97.0849730
  65.7228932  38.4568129  96.6063310  60.6352347  44.3846859  95.4423497
  60.5205862  43.4832116  95.7430596  59.7796865  44.6310556  95.0908313
  67.7144185  52.3264599  97.0410997  67.2708039  51.5400978  96.7231902
  68.3761399  52.5143750  96.3754888  62.4731306  53.8560401  91.5671676
  63.0238731  53.7277464  90.7948670  61.6342782  54.1555290  91.2166569
  69.8125423  52.6067399  95.0692399  69.7943899  53.4276280  94.5772668
  70.7345343  52.4821474  95.2942540  66.2698477  50.1211529  95.9115907
  66.8026814  49.3599817  95.6815215  65.7412558  49.8285180  96.6540062
  69.4368172  35.2271595  91.4409549  69.0932442  36.1173236  91.3648659
  69.8047135  35.0373252  90.5779134  69.4018455  45.2180206  79.9481984
  68.8865078  45.9884810  80.1870371  69.1295763  44.5445342  80.5715045
  66.9865566  40.0629906  85.0067222  66.1307162  39.6736757  84.8272861
  67.3992518  40.1421867  84.1467008  68.5164713  37.5976250  89.4058782
  68.0129508  37.5606385  88.5926587  68.8095320  38.5068992  89.4655439
  64.7607599  37.6814979  88.4124964  65.6260595  37.4857788  88.0530853
  64.8285107  37.4525331  89.3394321  74.3752729  47.9712560  81.8835157
  73.5982172  47.6323720  81.4390320  75.0544210  47.9765183  81.2090122
  69.1904758  43.0907298  81.7741765  68.8854894  43.4053447  82.6251908
  70.1435200  43.1688718  81.8169098  67.6351190  49.2497521  83.4234719
  67.1072552  48.5150281  83.1107957  67.1338693  50.0272197  83.1774687
  72.6144036  47.4446542  88.5401765  71.9567710  48.1345803  88.6281894
  73.4184435  47.8342973  88.8835752  62.3669918  39.9117187  85.7841331
  62.9413670  39.6892369  85.0514524  62.9540900  39.9805882  86.5369932
  71.4249495  45.7990914  86.5905707  71.9381377  46.4320906  87.0927417
  72.0750719  45.1992110  86.2249067  62.6939505  41.9421648  79.8037216
  61.8576817  42.2796335  80.1246491  62.5544274  41.8070628  78.8664353
  64.6692585  36.7858436  84.5116400  64.0156998  36.4707453  83.8873015
  64.6273059  36.1634177  85.2376223  67.9030326  43.2740370  88.8364048
  66.9852887  43.4955317  88.6785736  68.3190469  43.3486680  87.9775755
  68.6865373  44.6731785  83.9666728  69.4337192  45.1853183  83.6573850
  68.9556963  44.3515838  84.8271122  66.9592024  47.1690326  80.9493682
  66.0503243  46.8849359  81.0466152  66.9887107  47.5889405  80.0896989
  72.1911291  50.7796916  84.7184850  71.7373618  49.9387826  84.7750040
  71.5605258  51.4158314  85.0559630  71.1344211  41.7088902  85.9485517
  70.3966967  41.1966288  86.2795760  71.3870984  41.2689283  85.1368794
  70.6344230  52.6173412  85.6534668  70.9267205  53.1778469  84.9347034
  71.1442851  52.9101973  86.4087827  71.2355838  34.4865154  86.5427287
  71.5414715  33.6262517  86.2553202  71.9608443  35.0782774  86.3426280
  57.5280194  44.8895840  84.9308884  57.3304594  44.2965201  84.2059951
  56.9726858  44.5848050  85.6484823  65.5076918  44.7818947  87.0503478
  65.5625527  43.8292783  86.9745954  64.6968120  44.9378386  87.5344776
  63.4469278  43.3996007  84.8093856  62.6337143  43.6990177  85.2159049
  63.9428272  43.0051695  85.5268339  65.5977855  53.3953763  86.7428121
  65.5554034  53.6214610  85.8136653  66.5140554  53.1617138  86.8913922
  69.0443489  43.8637831  93.6408750  69.3992877  44.0909304  94.5003216
  69.6915621  44.1956208  93.0186006  74.7741226  46.9856267  84.3458079
  74.6359125  47.1757863  83.4179269  74.4177445  47.7475650  84.8026131
  62.9383352  40.9714362  90.4255091  63.5782732  40.8303121  89.7278055
  62.1060883  40.6848875  90.0493693  74.8010606  49.0532794  89.3569351
  75.2347113  48.9608083  90.2052405  75.5142187  49.0290294  88.7189367
  63.7143656  50.2716792  86.5390084  64.5084255  49.7767113  86.3372659
  63.0035349  49.7434656  86.1757789  68.5338501  52.6534888  90.8902452
  68.5875523  53.2225824  91.6580167  67.6653282  52.8236773  90.5256489
  60.0226420  44.4159874  82.6149837  59.0924008  44.3544330  82.8319799
  60.1183892  43.8935827  81.8186478  59.9411969  40.9414687  85.2028078
  60.2018786  41.8560020  85.0937239  60.7629141  40.4739130  85.3524691
  61.4136894  42.3552444  92.3726903  62.0859948  42.1469806  91.7239552
  60.5866681  42.1574530  91.9332135  75.6626155  49.0956495  91.8902236
  75.8562045  50.0002305  92.1361511  75.5626774  48.6363914  92.7240821
  67.3162466  38.9814385  94.3892564  66.6690381  39.6804335  94.2957040
  68.0863482  39.4150529  94.7568812  70.7241264  49.2463237  97.4643117
  70.5726770  49.0173789  96.5473201  70.7145944  50.2033839  97.4774462
  67.4926600  46.8195150  92.4489383  68.4218660  46.9706310  92.2758351
  67.0717630  46.9079171  91.5938030  66.2914932  50.8445814  90.2187921
  66.1526018  50.4764599  91.0913859  65.5029528  51.3593454  90.0471879
  66.8863084  55.9454911  81.5613458  67.0614840  55.4742954  82.3759080
  66.1995872  56.5720677  81.7894718  67.8420147  50.2227417  87.6076759
  67.5069980  50.1828187  88.5034409  67.3424093  49.5572133  87.1347169
  61.8164391  45.6295047  93.1329340  61.6784189  44.8975286  93.7340879
  62.7269315  45.5403947  92.8513528  70.7779339  47.5683451  77.8813818
  70.1608510  46.8430280  77.7846871  70.3095828  48.3292812  77.5380893
  64.4446692  45.3415007  92.6213020  65.1546311  44.7008199  92.5799638
  64.4016000  45.5927901  93.5439200  72.4333471  52.2782360  95.5419599
  72.3746017  51.5941580  94.8750182  72.8352989  53.0201350  95.0900225
  63.1575626  42.3280224  94.4408659  62.6212983  41.8770963  95.0930255
  62.5692334  42.4626133  93.6979123  62.5677885  41.7868876  77.0035123
  61.6907351  41.6657677  76.6397369  63.0435638  40.9954954  76.7514011
  72.4350878  50.2421944  93.7733578  71.5477657  49.9047866  93.8959977
  73.0049429  49.5104975  94.0102344  54.0880025  46.5746036  87.0976630
  54.7751065  46.2607766  86.5097645  53.9328154  47.4787400  86.8243881
  58.8914747  41.4636232  91.5261654  58.8072936  40.8561902  90.7912063
  58.0697454  41.9545250  91.5271150  65.9652031  54.9023396  90.7394822
  65.8922203  55.7078368  91.2514126  65.5229424  55.1015362  89.9142843
  65.7541811  54.1395166  84.2497643  64.9709333  54.6816846  84.3435868
  66.4534556  54.6569146  84.6491884  69.0638461  39.9489796  86.8931849
  69.5607161  39.1959758  86.5732919  68.2925443  39.9854112  86.3275058
  76.9168219  45.6530161  88.5350140  76.9058095  46.5354877  88.1644073
  76.0485598  45.3001712  88.3404677  68.4250715  54.8010230  92.8952980
  69.1378687  55.4357695  92.8228882  67.9340744  54.8974096  92.0792982
  70.1468242  48.7061483  84.4670272  69.2124521  48.8262945  84.2974976
  70.3244910  47.8033950  84.2030282  65.6473430  42.0907179  86.6203533
  65.2771217  41.5378219  87.3084439  66.1432522  41.4865312  86.0678533
  73.5340793  44.5478802  85.0020306  74.0001245  45.3806794  84.9280609
  73.9848294  44.0823784  85.7065565  63.4762628  52.5504674  93.7158551
  64.1772088  53.1841157  93.8687945  63.0057743  52.8919405  92.9554190
  71.6017024  50.8922623  82.0006458  71.8776868  50.7779218  82.9100332
  70.7321523  50.4940108  81.9618631  71.5057456  36.9159389  89.0411207
  70.5920536  37.1463616  89.2093414  71.9350557  36.9997833  89.8925240
  71.2763914  45.1049281  91.5411101  70.6235365  45.3525189  90.8863554
  71.6544294  44.2913419  91.2073579  68.2371088  55.1408974  85.6439272
  68.4193483  54.3230630  86.1067024  69.0604074  55.3576667  85.2064162
  68.5713254  54.0677159  82.9054320  69.1001020  53.5569614  82.2924482
  68.8341473  53.7519690  83.7699853  67.3251487  45.8469092  98.0277139
  66.6492124  45.7463221  98.6979514  68.1479121  45.6908306  98.4913136
  59.0730347  52.0841029  90.6489654  59.6583783  51.3384717  90.7817558
  58.8755185  52.3944985  91.5326318  61.9269002  55.1192276  85.6652096
  61.2579377  55.6038404  85.1816136  61.7881871  55.3661497  86.5795475
  53.6648001  44.6546629  89.3694097  53.7032101  44.1210220  90.1631215
  53.1588294  44.1281834  88.7505074  66.0674270  57.1536020  92.2634755
  66.6192578  57.3167641  93.0283840  66.4080464  57.7440457  91.5914779
  61.0438764  39.5011169  92.8656639  61.1080090  40.3626000  92.4534037
  60.9805884  38.8885171  92.1328998  60.5191036  41.5734302  96.5129674
  61.1463075  41.1911379  97.1267198  59.6618955  41.3548504  96.8785366
  70.9185145  51.9797277  98.1183409  71.4625049  52.5927235  97.6238364
  70.3371989  52.5376855  98.6350422  57.2956579  43.3810731  82.4448028
  57.5910020  42.4721409  82.3915082  56.3944615  43.3598470  82.1229031
  69.2042658  55.1017995  89.2498437  69.0793797  54.3007735  88.7409382
  69.8621749  55.5964188  88.7612407  60.8250826  41.4566728  88.4275577
  60.1037412  42.0702695  88.2883050  61.6144082  41.9924492  88.3492223
  71.2677566  52.9027015  90.8777987  70.3207902  52.7832366  90.8056314
  71.6160339  52.0149513  90.9604248  63.6277139  38.7921154  94.7016229
  64.1511541  39.0383451  95.4642538  63.4089473  39.6241189  94.2819366
  59.0244420  41.0624829  82.5687354  58.6957127  40.1822208  82.3862459
  59.3783791  41.0072497  83.4563743  68.2723999  52.6979731  87.0782339
  68.1248962  51.7696439  87.2589909  69.0977493  52.7199822  86.5939414
  62.1386244  41.3497798  82.9362831  62.4782316  41.8783720  82.2141440
  62.5858364  41.6878205  83.7121398  71.8758121  53.5208290  88.1647212
  72.8004669  53.3151151  88.0271663  71.7073424  53.2724691  89.0736553
  64.8329684  39.7334849  92.3865899  64.4926505  38.9342662  92.7886579
  64.1268691  40.0336560  91.8142732  65.4846156  36.8184162  90.8393222
  66.3072226  36.3444640  90.7172113  65.7284220  37.5974645  91.3391909
  64.1254391  39.8472420  81.1356124  64.8462753  40.2253673  80.6319841
  63.5019695  40.5661297  81.2391102  68.2685514  40.5517569  82.0714456
  68.4849128  41.4342207  81.7703284  67.7879581  40.1603782  81.3420098
  63.0084735  43.5103282  88.6485201  62.8629316  43.8243585  89.5409482
  62.5309939  44.1288183  88.0956100  64.8681118  40.5005830  88.6966090
  64.8542687  39.6046924  88.3598388  65.5853546  40.5076494  89.3304376
  66.7207249  40.9343170  90.7419218  66.4625026  41.8560241  90.7403548
  66.1892289  40.5373605  91.4319682  71.6653437  54.0393958  83.5209303
  71.8390315  53.4740380  82.7683156  72.1582329  54.8394852  83.3388793
  57.4830397  46.0508627  91.5872862  56.9383865  46.8268435  91.7193136
  58.3609747  46.3979431  91.4291983  64.2718014  39.3820211  83.9653661
  64.3933925  38.4536857  84.1644548  63.9820056  39.3958897  83.0531976
  67.1409204  37.0675121  87.1020380  67.1630901  37.1314454  86.1472360
  67.5577263  36.2279630  87.2960887  77.5192828  46.8030381  85.1399603
  77.9623975  46.0537706  84.7418726  76.6419339  46.7940517  84.7573335
  72.6528610  53.3560722  80.6206202  73.3479514  53.9767415  80.8393516
  72.9951760  52.5056073  80.8958579  58.2696419  45.1778523  94.4803019
  57.5278155  45.3261158  95.0667649  57.9489163  45.4386789  93.6169768
  74.5520033  50.8060428  82.1493532  75.0771357  51.1447700  81.4242852
  74.4642385  49.8707443  81.9656667  66.2140082  54.7194501  94.2783409
  66.5227208  54.4743648  95.1506109  67.0115564  54.9241140  93.7902279
  66.2360694  56.8732411  86.5088785  65.7965684  56.3808789  87.2021642
  66.9868811  56.3305378  86.2680861  58.7153033  53.0643952  86.5113414
  59.5411053  52.7647724  86.1312057  58.3647085  52.2951574  86.9603202
  63.6834566  52.4170420  88.5811087  63.0614575  51.7541125  88.2813315
  64.3539433  52.4431552  87.8984735  56.9161638  50.9830278  87.4702347
  56.0793546  50.5552452  87.2886348  56.8885283  51.1762721  88.4073138
  63.7559093  40.8952208  98.1743593  63.8047249  41.7714331  97.7921363
  64.2981608  40.3529601  97.6015236  74.2413939  51.4393331  97.4544730
  73.4509483  51.4217470  96.9149230  74.0047294  51.9781625  98.2093767
  74.3611814  48.2885798  94.7677459  74.4109819  48.1235805  95.7092982
  74.2525737  47.4213057  94.3775340  71.6515576  44.2716726  96.0836766
  72.5525439  44.1323190  95.7920763  71.7263551  44.4371180  97.0234943
  65.9858382  41.6483580  94.9289952  65.1161691  41.9417146  94.6572540
  66.2217862  42.2324025  95.6497215  75.8630011  50.7082739  95.0119480
  75.5714819  51.0712720  95.8482941  75.2502142  49.9949747  94.8332812
  77.0625693  48.2735619  87.5322051  77.8972585  48.7125423  87.6959611
  77.1984822  47.7974272  86.7130296  74.1117199  45.8315354  93.4799538
  74.5871321  46.0243000  92.6718390  73.1882764  45.8874540  93.2342922
  61.0000706  46.9939521  83.0630617  60.7546748  46.0901851  83.2610827
  61.1696620  46.9956671  82.1210095  68.6897416  37.8663197  92.4455372
  69.2079359  38.6024224  92.1201861  68.3352548  38.1727191  93.2802131
  60.2696353  42.7267878  80.5616778  59.5765598  42.8012233  79.9056814
  60.0248105  41.9628222  81.0838295  68.9410010  34.2863480  87.9656269
  69.2211764  33.6186669  88.5916695  69.7260617  34.4792575  87.4530933
  72.8118868  42.7081114  91.7127844  73.7636291  42.8079211  91.7340068
  72.6422319  41.9159382  92.2225928  70.8333248  39.7936697  91.8987245
  70.2383180  40.0741710  91.2033733  70.5482944  40.2830598  92.6703986
  69.9640738  53.7459624  80.6589877  70.8971411  53.6805185  80.8622753
  69.8763951  54.5815891  80.2004410  72.5928755  53.0625494  77.6193825
  72.5142386  52.7285358  78.5129583  73.4138422  53.5547262  77.6185297
  75.2906946  45.9287233  90.8270144  75.2583266  44.9903234  91.0129827
  75.9007570  46.0071270  90.0935968  67.1290277  44.7983286  76.8697348
  68.0749381  44.6689495  76.9385766  66.7504522  44.0597948  77.3466776
  75.4401434  42.7198277  90.8728427  74.9240483  41.9356734  90.6858356
  76.3241383  42.3916994  91.0374946  73.1012161  36.4639292  86.8324239
  72.9036982  36.1554381  87.7167571  73.7111867  37.1900931  86.9622169
  81.1083496  46.9903240  89.9676180  81.8386884  46.7288528  90.5283884
  80.4990441  46.2531962  90.0078248  79.1898793  45.1311103  90.5650632
  78.4631956  44.9967068  89.9567123  78.7746080  45.4387931  91.3707350
  67.0128969  48.8501033  98.3298005  67.9331979  49.0279632  98.5238051
  66.9778552  47.9057078  98.1777704  65.3133194  42.7233263  76.8052233
  64.4064649  42.4266376  76.8814946  65.5909175  42.4263081  75.9386519
  56.2311134  44.0439626  87.2551279  55.9113919  43.1904934  86.9625653
  55.6844562  44.2588204  88.0109247  60.0091042  46.7602067  90.9720786
  60.2277052  47.6919175  90.9908820  60.4216816  46.4010042  91.7575590
  66.9295260  37.2670153  82.9596474  66.1195988  36.9217238  83.3351720
  67.6179677  36.9577696  83.5484086  68.8585808  36.3448199  84.5820771
  69.4116847  36.7643653  85.2410794  69.0955894  35.4183947  84.6243727
  64.8818907  42.3335273 100.3623535  64.7815634  43.2829630 100.2935626
  64.6640449  42.0053512  99.4899605  64.0831979  39.5820198  76.9464212
  64.9451143  39.9075096  77.2060029  64.2682323  38.7951694  76.4337278
  56.0999394  47.6642538  89.2244401  55.4062866  47.2496491  88.7114355
  56.8472385  47.7063074  88.6277820  72.2364615  38.4548724  84.0899435
  71.6563284  39.1133529  83.7077487  71.9700548  37.6326069  83.6786853
  70.6868181  37.8553782  86.2920755  71.1867960  37.9670317  85.4835074
  71.3303789  37.5514835  86.9321564  64.7450177  45.7632412  99.1788596
  64.2617259  46.5632772  99.3852485  64.8311116  45.7740357  98.2256040
  58.0136137  47.5960792  87.1010416  57.9906825  47.6948479  86.1492299
  58.3236773  48.4425942  87.4227582  60.6723515  49.6536947  91.2157030
  61.6266768  49.6220889  91.1486962  60.4736038  49.1927570  92.0307256
  61.2622897  48.2238063  93.7827828  62.0815786  48.7182141  93.8062665
  61.5359705  47.3070031  93.7545395  71.0189493  40.6148815  83.1455783
  70.1315348  40.8998466  82.9275978  71.4343482  40.4542578  82.2983060
  74.3704029  40.6395336  86.8610123  75.1464419  41.1291788  87.1334739
  73.6452163  41.0653390  87.3181992  76.8076588  41.3522955  87.9184063
  77.4021079  41.1118691  87.2077371  76.8803172  40.6330086  88.5457599
  59.0273743  55.1956566  88.2327228  58.8928211  54.4356967  87.6665226
  58.6105806  55.9197466  87.7656017  70.9930517  46.1303351  83.3606073
  70.9365718  46.5871902  82.5213706  71.5458859  45.3694035  83.1828916
  74.8035323  41.9193083  84.1856193  74.5472257  41.5189718  85.0164401
  74.1788191  42.6336877  84.0606332  79.1147661  44.6589156  86.6927484
  78.5547219  44.7282345  87.4659046  78.5091164  44.4830141  85.9726981
  62.1842869  56.0925883  88.4445671  62.0675254  57.0371316  88.3424361
  61.3635316  55.7899445  88.8331470  72.0719404  50.8176019  79.2902263
  72.9065008  50.3857217  79.1079738  71.9103747  50.6458032  80.2179158
  71.7265296  47.3208132  80.6558603  71.6714100  47.1552403  79.7147047
  71.1011351  48.0284165  80.8120792  56.5157811  42.5576196  94.4820025
  57.1616675  42.0475150  94.9707250  56.3074962  43.2944878  95.0563450
  69.0411203  49.6257044  99.9812165  69.9102363  49.7997696  99.6198800
  68.5617955  50.4451461  99.8587895  65.0361422  36.8216241  80.2343921
  65.0240091  37.7658081  80.3912192  65.9284843  36.6386386  79.9403382
  63.2097383  56.7454145  91.6601599  64.1124630  56.7777755  91.9768094
  62.9834754  55.8154596  91.6747935  64.9650986  55.4985131  88.3211678
  64.0146617  55.4986993  88.2076050  65.2683472  54.7517866  87.8047712
  68.8513541  33.4159018  84.4889858  68.0845937  32.8617504  84.6346540
  69.2624246  33.4880886  85.3504009  60.8555302  39.7043814  98.5795039
  61.7186764  39.3480618  98.7898364  60.2820713  39.3657708  99.2670443
  80.7003679  61.3345670  89.3857440  81.3382089  61.2152417  88.6820780
  80.5824522  62.2826514  89.4445392  77.5093385  61.2873098  89.3218965
  77.1711897  61.1714163  88.4339500  78.3783153  60.8864263  89.3019971
  77.9913168  62.4407950  95.2805170  77.9801809  62.0460748  94.4085674
  78.1533808  61.7074022  95.8738942  78.9479760  66.8079542  80.6230321
  78.2967739  67.3933622  80.2364334  79.7424122  67.3385737  80.6825358
  74.7120429  65.2245061  94.2284354  74.4210295  66.1290692  94.1131021
  75.3477414  65.2661589  94.9428424  75.6376636  62.6021910  90.8185714
  76.2340209  62.3777932  90.1042677  75.6951608  61.8606655  91.4211162
  80.2544947  59.0597124  86.4610648  81.0408037  58.6416547  86.1101065
  80.5183652  59.9643216  86.6292297  80.4255025  64.4969974  81.1599305
  79.7900858  64.5704601  81.8720210  80.0952431  65.0863573  80.4818384
  85.6553375  58.9972357  87.3643627  86.3878547  58.4271574  87.5981456
  84.8992730  58.6093957  87.8050132  77.2729494  61.4199598  84.5606969
  76.9087702  60.8930219  85.2719891  78.1296610  61.0298067  84.3873454
  83.1778795  52.7093931  91.8238235  82.8462120  53.5789342  91.5999450
  82.5824408  52.3930215  92.5032266  76.9134981  56.4489498  79.5568318
  77.0809384  57.3169735  79.9238789  76.7232150  56.6116780  78.6329607
  79.6710314  64.9106477  91.2234148  79.3711038  65.8131516  91.1149955
  79.3261374  64.6438660  92.0755301  73.1222796  61.3620274  87.2570852
  72.1973292  61.2296488  87.4648544  73.3707209  62.1414493  87.7540795
  83.0707458  57.4289017  88.9031585  82.1624336  57.3604426  88.6090346
  83.0195054  57.9060962  89.7313411  76.8924202  58.9047156  80.5414984
  76.7723827  59.3504206  81.3800465  76.1976791  59.2532473  79.9828523
  77.1448324  58.8478663  96.8466483  76.3681658  59.4072583  96.8369347
  77.7838887  59.3335446  97.3681353  84.9369105  55.6305456  90.6809459
  84.2943485  55.9237989  90.0349254  84.4324033  55.5158376  91.4862656
  82.5909268  59.3768629  81.3695318  83.5027124  59.6096016  81.1943016
  82.0818915  59.9605673  80.8070397  75.3994696  61.6564116  96.4084450
  76.1409381  62.1949160  96.1319273  74.6931682  62.2830405  96.5656001
  80.8750036  63.7993257  95.0056611  81.2833392  63.3575667  94.2611243
  80.1527298  63.2245884  95.2590804  77.2281106  58.7365863  92.3790168
  78.0742301  59.1605277  92.5224817  77.1679744  58.0799488  93.0728731
  81.1978851  64.3594447  88.7608900  80.5687713  64.5240161  88.0584968
  80.8104513  64.7736057  89.5319864  85.0768083  65.2948885  86.1153264
  84.3919121  65.6747786  85.5650297  85.1611932  65.9044212  86.8485211
  80.3780551  56.3970232  94.0371342  80.1341483  57.1512292  93.5005617
  80.6540482  56.7755579  94.8718589  82.3319014  62.9408844  92.7148607
  82.5435909  63.5840604  92.0382988  82.2848762  62.1071161  92.2470537
  79.9345243  55.5526665  89.6185179  79.0729722  55.8507918  89.9101917
  79.9607678  55.7697064  88.6866212  76.7506813  64.0968855  86.0258985
  77.2145158  64.3756558  85.2363608  76.4863611  63.1952300  85.8432076
  73.6430894  63.6440337  88.9638748  74.2132251  64.0727605  88.3256233
  74.2339005  63.3622922  89.6622934  75.6875699  60.2192008  82.8348550
  76.3899742  60.6713051  83.3022477  75.3556327  59.5775827  83.4628443
  74.1356060  58.8103764  97.2099760  73.5054721  59.4920045  97.4435156
  74.0292148  58.6986846  96.2652898  69.4301033  58.4775560  88.1365684
  68.6400087  58.7333089  87.6605794  69.9212280  59.2923898  88.2417724
  83.4464842  65.8180800  90.8870965  84.2682286  65.4160987  90.6053646
  83.4427245  65.7149034  91.8387080  71.3815778  58.8420140  85.0949160
  70.5846941  58.9538834  85.6132656  71.1541370  59.1806792  84.2290051
  77.2121446  65.3664843  93.0431675  77.2765878  65.8285250  93.8789847
  76.5032369  64.7362208  93.1713985  67.7138736  58.7306051  90.5680675
  67.9646774  59.6153061  90.8338250  68.2498284  58.5510652  89.7955766
  91.5370835  62.1619548  87.2355936  90.7834544  61.5926946  87.0799940
  91.6718376  62.1282213  88.1826571  73.4136803  53.1124530  99.5725011
  73.0203748  52.5590729 100.2472655  74.2302943  53.4235109  99.9631528
  76.3304764  54.5282409  97.1645267  77.0714477  55.1289562  97.0849730
  76.5622687  53.7860047  96.6063310  71.4746102  59.7138777  95.4423497
  71.3599617  58.8124034  95.7430596  70.6190620  59.9602473  95.0908313
  78.5537940  67.6556517  97.0410997  78.1101794  66.8692895  96.7231902
  79.2155153  67.8435667  96.3754888  80.6519178  67.9359317  95.0692399
  80.6337653  68.7568198  94.5772668  81.5739098  67.8113392  95.2942540
  77.1092232  65.4503446  95.9115907  77.6420569  64.6891734  95.6815215
  76.5806313  65.1577098  96.6540062  80.2761927  50.5563512  91.4409549
  79.9326196  51.4465154  91.3648659  80.6440889  50.3665170  90.5779134
  80.2412210  60.5472123  79.9481984  79.7258833  61.3176728  80.1870371
  79.9689518  59.8737259  80.5715045  77.8259321  55.3921824  85.0067222
  76.9700917  55.0028674  84.8272861  78.2386272  55.4713785  84.1467008
  79.3558467  52.9268167  89.4058782  78.8523263  52.8898303  88.5926587
  79.6489074  53.8360910  89.4655439  75.6001353  53.0106897  88.4124964
  76.4654350  52.8149706  88.0530853  75.6678862  52.7817249  89.3394321
  85.2146484  63.3004478  81.8835157  84.4375926  62.9615637  81.4390320
  85.8937965  63.3057101  81.2090122  80.0298513  58.4199215  81.7741765
  79.7248648  58.7345365  82.6251908  80.9828955  58.4980635  81.8169098
  78.4744945  64.5789439  83.4234719  77.9466306  63.8442198  83.1107957
  77.9732447  65.3564115  83.1774687  83.4537791  62.7738459  88.5401765
  82.7961465  63.4637721  88.6281894  84.2578190  63.1634891  88.8835752
  73.2063672  55.2409105  85.7841331  73.7807424  55.0184286  85.0514524
  73.7934655  55.3097800  86.5369932  82.2643249  61.1282832  86.5905707
  82.7775131  61.7612824  87.0927417  82.9144473  60.5284027  86.2249067
  73.5333259  57.2713566  79.8037216  72.6970571  57.6088253  80.1246491
  73.3938029  57.1362546  78.8664353  75.5086340  52.1150354  84.5116400
  74.8550752  51.7999371  83.8873015  75.4666814  51.4926094  85.2376223
  79.5265624  71.1067156  79.3466378  78.8527322  71.4098853  79.9551336
  79.9131446  71.9096237  78.9971835  78.7424080  58.6032287  88.8364048
  77.8246642  58.8247234  88.6785736  79.1584224  58.6778598  87.9775755
  79.5259128  60.0023703  83.9666728  80.2730947  60.5145100  83.6573850
  79.7950718  59.6807756  84.8271122  83.0305046  66.1088833  84.7184850
  82.5767373  65.2679743  84.7750040  82.3999012  66.7450232  85.0559630
  81.9737965  57.0380819  85.9485517  81.2360722  56.5258206  86.2795760
  82.2264739  56.5981201  85.1368794  81.4737985  67.9465330  85.6534668
  81.7660959  68.5070387  84.9347034  81.9836605  68.2393891  86.4087827
  82.0749592  49.8157071  86.5427287  82.3808469  48.9554435  86.2553202
  82.8002197  50.4074692  86.3426280  68.3673949  60.2187758  84.9308884
  68.1698348  59.6257119  84.2059951  67.8120613  59.9139968  85.6484823
  76.3470672  60.1110864  87.0503478  76.4019282  59.1584701  86.9745954
  75.5361874  60.2670304  87.5344776  74.2863032  58.7287924  84.8093856
  73.4730898  59.0282095  85.2159049  74.7822026  58.3343613  85.5268339
  79.8837244  59.1929749  93.6408750  80.2386632  59.4201222  94.5003216
  80.5309375  59.5248125  93.0186006  85.6134981  62.3148185  84.3458079
  85.4752879  62.5049781  83.4179269  85.2571200  63.0767567  84.8026131
  73.7777107  56.3006280  90.4255091  74.4176486  56.1595039  89.7278055
  72.9454637  56.0140793  90.0493693  85.6404360  64.3824712  89.3569351
  86.0740867  64.2900001  90.2052405  86.3535941  64.3582212  88.7189367
  70.8620174  59.7451792  82.6149837  69.9317762  59.6836247  82.8319799
  70.9577646  59.2227745  81.8186478  70.7805723  56.2706605  85.2028078
  71.0412541  57.1851938  85.0937239  71.6022896  55.8031047  85.3524691
  72.2530649  57.6844362  92.3726903  72.9253702  57.4761724  91.7239552
  71.4260435  57.4866448  91.9332135  86.5019910  64.4248412  91.8902236
  86.6955800  65.3294223  92.1361511  86.4020528  63.9655831  92.7240821
  78.1556221  54.3106303  94.3892564  77.5084136  55.0096252  94.2957040
  78.9257236  54.7442447  94.7568812  81.5635019  64.5755155  97.4643117
  81.4120525  64.3465707  96.5473201  81.5539698  65.5325756  97.4774462
  78.3320355  62.1487068  92.4489383  79.2612415  62.2998227  92.2758351
  77.9111385  62.2371089  91.5938030  77.7256839  71.2746829  81.5613458
  77.9008594  70.8034872  82.3759080  77.0389627  71.9012595  81.7894718
  78.6813902  65.5519335  87.6076759  78.3463735  65.5120105  88.5034409
  78.1817848  64.8864051  87.1347169  72.6558146  60.9586965  93.1329340
  72.5177944  60.2267204  93.7340879  73.5663069  60.8695865  92.8513528
  81.6173094  62.8975369  77.8813818  81.0002264  62.1722197  77.7846871
  81.1489582  63.6584729  77.5380893  75.2840447  60.6706924  92.6213020
  75.9940065  60.0300116  92.5799638  75.2409755  60.9219819  93.5439200
  83.2727225  67.6074278  95.5419599  83.2139771  66.9233498  94.8750182
  83.6746744  68.3493268  95.0900225  73.9969381  57.6572142  94.4408659
  73.4606738  57.2062881  95.0930255  73.4086089  57.7918051  93.6979123
  73.4071639  57.1160793  77.0035123  72.5301106  56.9949594  76.6397369
  73.8829393  56.3246872  76.7514011  83.2744632  65.5713861  93.7733578
  82.3871411  65.2339783  93.8959977  83.8443184  64.8396893  94.0102344
  69.7308502  56.7928150  91.5261654  69.6466690  56.1853819  90.7912063
  68.9091208  57.2837168  91.5271150  79.9032216  55.2781713  86.8931849
  80.4000915  54.5251676  86.5732919  79.1319197  55.3146030  86.3275058
  87.7561973  60.9822079  88.5350140  87.7451849  61.8646794  88.1644073
  86.8879352  60.6293630  88.3404677  79.2644469  70.1302148  92.8952980
  79.9772442  70.7649613  92.8228882  78.7734498  70.2266014  92.0792982
  80.9861996  64.0353401  84.4670272  80.0518275  64.1554863  84.2974976
  81.1638665  63.1325867  84.2030282  76.4867184  57.4199096  86.6203533
  76.1164972  56.8670137  87.3084439  76.9826277  56.8157230  86.0678533
  84.3734548  59.8770720  85.0020306  84.8395000  60.7098711  84.9280609
  84.8242048  59.4115701  85.7065565  82.4410779  66.2214541  82.0006458
  82.7170623  66.1071136  82.9100332  81.5715277  65.8232026  81.9618631
  82.3451210  52.2451307  89.0411207  81.4314290  52.4755534  89.2093414
  82.7744312  52.3289751  89.8925240  82.1157669  60.4341199  91.5411101
  81.4629119  60.6817106  90.8863554  82.4938049  59.6205337  91.2073579
  79.4107008  69.3969077  82.9054320  79.9394775  68.8861532  82.2924482
  79.6735228  69.0811607  83.7699853  78.1645242  61.1761010  98.0277139
  77.4885879  61.0755139  98.6979514  78.9872876  61.0200224  98.4913136
  64.5041756  59.9838547  89.3694097  64.5425855  59.4502137  90.1631215
  63.9982049  59.4573752  88.7505074  76.9068025  72.4827937  92.2634755
  77.4586333  72.6459559  93.0283840  77.2474218  73.0732375  91.5914779
  71.8832518  54.8303087  92.8656639  71.9473845  55.6917918  92.4534037
  71.8199638  54.2177089  92.1328998  71.3584791  56.9026220  96.5129674
  71.9856829  56.5203297  97.1267198  70.5012709  56.6840422  96.8785366
  81.7578899  67.3089195  98.1183409  82.3018803  67.9219153  97.6238364
  81.1765744  67.8668773  98.6350422  68.1350333  58.7102649  82.4448028
  68.4303774  57.8013327  82.3915082  67.2338369  58.6890388  82.1229031
  71.6644580  56.7858645  88.4275577  70.9431166  57.3994613  88.2883050
  72.4537836  57.3216410  88.3492223  82.1071320  68.2318933  90.8777987
  81.1601656  68.1124284  90.8056314  82.4554094  67.3441431  90.9604248
  74.4670894  54.1213072  94.7016229  74.9905296  54.3675368  95.4642538
  74.2483227  54.9533107  94.2819366  69.8638175  56.3916746  82.5687354
  69.5350881  55.5114125  82.3862459  70.2177546  56.3364415  83.4563743
  72.9779998  56.6789716  82.9362831  73.3176071  57.2075637  82.2141440
  73.4252119  57.0170122  83.7121398  82.7151876  68.8500208  88.1647212
  83.6398423  68.6443069  88.0271663  82.5467179  68.6016609  89.0736553
  75.6723439  55.0626767  92.3865899  75.3320259  54.2634580  92.7886579
  74.9662445  55.3628478  91.8142732  76.3239911  52.1476079  90.8393222
  77.1465980  51.6736558  90.7172113  76.5677974  52.9266563  91.3391909
  74.9648145  55.1764338  81.1356124  75.6856508  55.5545591  80.6319841
  74.3413449  55.8953215  81.2391102  79.1079268  55.8809487  82.0714456
  79.3242882  56.7634125  81.7703284  78.6273335  55.4895700  81.3420098
  73.8478489  58.8395200  88.6485201  73.7023070  59.1535503  89.5409482
  73.3703693  59.4580100  88.0956100  75.7074872  55.8297748  88.6966090
  75.6936441  54.9338841  88.3598388  76.4247300  55.8368412  89.3304376
  77.5601003  56.2635088  90.7419218  77.3018781  57.1852159  90.7403548
  77.0286043  55.8665523  91.4319682  82.5047192  69.3685875  83.5209303
  82.6784069  68.8032298  82.7683156  82.9976083  70.1686770  83.3388793
  75.1111768  54.7112128  83.9653661  75.2327679  53.7828774  84.1644548
  74.8213811  54.7250814  83.0531976  77.9802959  52.3967039  87.1020380
  78.0024655  52.4606372  86.1472360  78.3971018  51.5571547  87.2960887
  88.3586583  62.1322298  85.1399603  88.8017729  61.3829623  84.7418726
  87.4813093  62.1232435  84.7573335  83.4922364  68.6852640  80.6206202
  84.1873269  69.3059332  80.8393516  83.8345514  67.8347991  80.8958579
  69.1090173  60.5070441  94.4803019  68.3671910  60.6553076  95.0667649
  68.7882918  60.7678706  93.6169768  85.3913787  66.1352345  82.1493532
  85.9165112  66.4739618  81.4242852  85.3036140  65.1999361  81.9656667
  77.0533836  70.0486419  94.2783409  77.3620963  69.8035566  95.1506109
  77.8509318  70.2533057  93.7902279  74.5952848  56.2244126  98.1743593
  74.6441003  57.1006248  97.7921363  75.1375362  55.6821519  97.6015236
  85.0807693  66.7685249  97.4544730  84.2903237  66.7509388  96.9149230
  84.8441048  67.3073543  98.2093767  85.2005569  63.6177715  94.7677459
  85.2503573  63.4527723  95.7092982  85.0919492  62.7504974  94.3775340
  82.4909331  59.6008643  96.0836766  83.3919194  59.4615108  95.7920763
  82.5657305  59.7663098  97.0234943  76.8252136  56.9775498  94.9289952
  75.9555446  57.2709064  94.6572540  77.0611617  57.5615943  95.6497215
  86.7023765  66.0374657  95.0119480  86.4108574  66.4004637  95.8482941
  86.0895897  65.3241665  94.8332812  87.9019448  63.6027537  87.5322051
  88.7366339  64.0417341  87.6959611  88.0378576  63.1266190  86.7130296
  84.9510954  61.1607271  93.4799538  85.4265075  61.3534918  92.6718390
  84.0276519  61.2166457  93.2342922  71.8394460  62.3231439  83.0630617
  71.5940502  61.4193769  83.2610827  72.0090375  62.3248589  82.1210095
  79.5291170  53.1955115  92.4455372  80.0473114  53.9316142  92.1201861
  79.1746303  53.5019108  93.2802131  71.1090108  58.0559796  80.5616778
  70.4159353  58.1304151  79.9056814  70.8641860  57.2920140  81.0838295
  79.7803764  49.6155397  87.9656269  80.0605518  48.9478587  88.5916695
  80.5654371  49.8084493  87.4530933  77.5837233  68.7914391  79.5281295
  77.0111200  69.4104578  79.0751767  78.1570026  69.3413753  80.0621217
  83.6512623  58.0373031  91.7127844  84.6030045  58.1371129  91.7340068
  83.4816073  57.2451300  92.2225928  81.6727002  55.1228615  91.8987245
  81.0776934  55.4033627  91.2033733  81.3876699  55.6122516  92.6703986
  80.8034493  69.0751541  80.6589877  81.7365166  69.0097103  80.8622753
  80.7157705  69.9107808  80.2004410  83.4322509  68.3917412  77.6193825
  83.3536141  68.0577275  78.5129583  84.2532176  68.8839180  77.6185297
  86.1300700  61.2579151  90.8270144  86.0977020  60.3195152  91.0129827
  86.7401324  61.3363188  90.0935968  77.9684031  60.1275204  76.8697348
  78.9143136  59.9981412  76.9385766  77.5898276  59.3889866  77.3466776
  86.2795189  58.0490195  90.8728427  85.7634238  57.2648651  90.6858356
  87.1635137  57.7208911  91.0374946  83.9405916  51.7931210  86.8324239
  83.7430737  51.4846298  87.7167571  84.5505621  52.5192849  86.9622169
  91.9477250  62.3195158  89.9676180  92.6780639  62.0580446  90.5283884
  91.3384196  61.5823880  90.0078248  90.0292547  60.4603021  90.5650632
  89.3025711  60.3258985  89.9567123  89.6139834  60.7679849  91.3707350
  77.8522724  64.1792950  98.3298005  78.7725733  64.3571549  98.5238051
  77.8172307  63.2348996  98.1777704  76.1526948  58.0525180  76.8052233
  75.2458404  57.7558293  76.8814946  76.4302929  57.7554999  75.9386519
  67.0704889  59.3731544  87.2551279  66.7507673  58.5196852  86.9625653
  66.5238317  59.5880122  88.0109247  77.7689014  52.5962070  82.9596474
  76.9589742  52.2509155  83.3351720  78.4573431  52.2869614  83.5484086
  79.6979562  51.6740117  84.5820771  80.2510601  52.0935570  85.2410794
  79.9349649  50.7475865  84.6243727  75.7212662  57.6627191 100.3623535
  75.6209389  58.6121548 100.2935626  75.5034204  57.3345430  99.4899605
  74.9225733  54.9112116  76.9464212  75.7844897  55.2367014  77.2060029
  75.1076077  54.1243612  76.4337278  83.0758370  53.7840642  84.0899435
  82.4957039  54.4425446  83.7077487  82.8094302  52.9617987  83.6786853
  81.5261936  53.1845700  86.2920755  82.0261714  53.2962234  85.4835074
  82.1697544  52.8806753  86.9321564  75.5843932  61.0924330  99.1788596
  75.1011013  61.8924690  99.3852485  75.6704871  61.1032274  98.2256040
  72.1016651  63.5529980  93.7827828  72.9209540  64.0474059  93.8062665
  72.3753459  62.6361948  93.7545395  81.8583248  55.9440733  83.1455783
  80.9709103  56.2290383  82.9275978  82.2737237  55.7834496  82.2983060
  85.2097784  55.9687254  86.8610123  85.9858174  56.4583706  87.1334739
  84.4845918  56.3945308  87.3181992  87.6470342  56.6814873  87.9184063
  88.2414833  56.4410609  87.2077371  87.7196926  55.9622003  88.5457599
  81.0026461  65.7085407  77.2403803  81.7062311  65.9135410  77.8561459
  80.2789110  66.2762169  77.5052887  81.8324271  61.4595268  83.3606073
  81.7759473  61.9163820  82.5213706  82.3852614  60.6985953  83.1828916
  85.6429077  57.2485000  84.1856193  85.3866011  56.8481636  85.0164401
  85.0181945  57.9628794  84.0606332  89.9541415  59.9881074  86.6927484
  89.3940973  60.0574263  87.4659046  89.3484918  59.8122058  85.9726981
  82.9113158  66.1467936  79.2902263  83.7458762  65.7149135  79.1079738
  82.7497501  65.9749950  80.2179158  82.5659051  62.6500050  80.6558603
  82.5107854  62.4844321  79.7147047  81.9405106  63.3576083  80.8120792
  67.3551566  57.8868114  94.4820025  68.0010429  57.3767068  94.9707250
  67.1468717  58.6236796  95.0563450  79.8804958  64.9548962  99.9812165
  80.7496117  65.1289614  99.6198800  79.4011709  65.7743378  99.8587895
  75.8755176  52.1508159  80.2343921  75.8633846  53.0949999  80.3912192
  76.7678598  51.9678304  79.9403382  79.6907295  48.7450935  84.4889858
  78.9239691  48.1909422  84.6346540  80.1018000  48.8172804  85.3504009
  71.6949057  55.0335731  98.5795039  72.5580518  54.6772536  98.7898364
  71.1214467  54.6949626  99.2670443  91.5397433  76.6637588  89.3857440
  92.1775843  76.5444335  88.6820780  91.4218276  77.6118431  89.4445392
  88.3487140  76.6165016  89.3218965  88.0105651  76.5006080  88.4339500
  89.2176908  76.2156181  89.3019971  84.2073955  78.4700492  85.3115856
  83.6438821  78.3790429  84.5432143  84.0926351  77.6500397  85.7918348
  88.8306923  77.7699867  95.2805170  88.8195564  77.3752666  94.4085674
  88.9927562  77.0365940  95.8738942  81.7538387  79.9651684  88.1500076
  82.5459679  79.6242508  87.7346375  81.9935038  80.0746659  89.0702229
  89.7873514  82.1371460  80.6230321  89.1361494  82.7225540  80.2364334
  90.5817877  82.6677655  80.6825358  83.7129141  79.2260597  81.0217455
  84.4860017  78.6789584  80.8830331  84.0654540  80.0904846  81.2331916
  85.5514184  80.5536979  94.2284354  85.2604050  81.4582610  94.1131021
  86.1871168  80.5953507  94.9428424  86.4770391  77.9313828  90.8185714
  87.0733963  77.7069850  90.1042677  86.5345362  77.1898573  91.4211162
  86.0495419  75.3853263  78.6535905  86.3020940  74.8634784  77.8919368
  85.1119978  75.2219408  78.7562588  91.0938702  74.3889041  86.4610648
  91.8801791  73.9708465  86.1101065  91.3577406  75.2935134  86.6292297
  91.2648779  79.8261892  81.1599305  90.6294612  79.8996518  81.8720210
  90.9346186  80.4155491  80.4818384  96.4947129  74.3264275  87.3643627
  97.2272301  73.7563491  87.5981456  95.7386485  73.9385875  87.8050132
  85.7691708  77.2881369  80.8560280  85.6527966  76.6126272  81.5241364
  85.8793968  76.8013743  80.0392433  88.1123249  76.7491516  84.5606969
  87.7481456  76.2222137  85.2719891  88.9690365  76.3589985  84.3873454
  94.0172549  68.0385849  91.8238235  93.6855874  68.9081260  91.5999450
  93.4218163  67.7222133  92.5032266  87.7528736  71.7781416  79.5568318
  87.9203138  72.6461652  79.9238789  87.5625905  71.9408697  78.6329607
  90.5104069  80.2398395  91.2234148  90.2104792  81.1423433  91.1149955
  90.1655129  79.9730578  92.0755301  83.9616550  76.6912192  87.2570852
  83.0367047  76.5588406  87.4648544  84.2100964  77.4706411  87.7540795
  93.9101213  72.7580935  88.9031585  93.0018090  72.6896343  88.6090346
  93.8588809  73.2352880  89.7313411  87.7317957  74.2339073  80.5414984
  87.6117582  74.6796124  81.3800465  87.0370545  74.5824391  79.9828523
  81.3225362  76.3345465  88.0914641  81.4517743  76.5879944  89.0054053
  80.6422813  76.9273173  87.7719297  85.4924849  87.0042715  84.1905116
  85.4148878  87.9550540  84.2693596  84.8886492  86.6588588  84.8480042
  87.9842079  74.1770580  96.8466483  87.2075413  74.7364501  96.8369347
  88.6232642  74.6627363  97.3681353  95.7762859  70.9597373  90.6809459
  95.1337239  71.2529906  90.0349254  95.2717788  70.8450294  91.4862656
  93.4303023  74.7060546  81.3695318  94.3420879  74.9387933  81.1943016
  92.9212670  75.2897591  80.8070397  86.2388451  76.9856034  96.4084450
  86.9803135  77.5241078  96.1319273  85.5325436  77.6122323  96.5656001
  91.7143791  79.1285174  95.0056611  92.1227147  78.6867585  94.2611243
  90.9921052  78.5537802  95.2590804  88.0674861  74.0657781  92.3790168
  88.9136056  74.4897195  92.5224817  88.0073498  73.4091405  93.0728731
  92.0372605  79.6886365  88.7608900  91.4081468  79.8532079  88.0584968
  91.6498267  80.1027974  89.5319864  95.9161837  80.6240803  86.1153264
  95.2312875  81.0039704  85.5650297  96.0005686  81.2336129  86.8485211
  91.2174306  71.7262149  94.0371342  90.9735238  72.4804210  93.5005617
  91.4934236  72.1047497  94.8718589  93.1712769  78.2700762  92.7148607
  93.3829664  78.9132522  92.0382988  93.1242517  77.4363078  92.2470537
  90.7738998  70.8818582  89.6185179  89.9123477  71.1799836  89.9101917
  90.8001432  71.0988981  88.6866212  87.5900567  79.4260773  86.0258985
  88.0538913  79.7048476  85.2363608  87.3257365  78.5244218  85.8432076
  84.4824648  78.9732255  88.9638748  85.0526005  79.4019523  88.3256233
  85.0732760  78.6914839  89.6622934  86.5269453  75.5483925  82.8348550
  87.2293496  76.0004969  83.3022477  86.1950082  74.9067744  83.4628443
  84.9749815  74.1395682  97.2099760  84.3448475  74.8211963  97.4435156
  84.8685902  74.0278764  96.2652898  80.2694787  73.8067478  88.1365684
  79.4793841  74.0625007  87.6605794  80.7606034  74.6215816  88.2417724
  94.2858597  81.1472717  90.8870965  95.1076040  80.7452904  90.6053646
  94.2820999  81.0440951  91.8387080  82.2209532  74.1712057  85.0949160
  81.4240696  74.2830752  85.6132656  81.9935125  74.5098709  84.2290051
  88.0515200  80.6956761  93.0431675  88.1159633  81.1577168  93.8789847
  87.3426124  80.0654125  93.1713985  78.5532490  74.0597968  90.5680675
  78.8040528  74.9444978  90.8338250  79.0892038  73.8802570  89.7955766
 102.3764590  77.4911466  87.2355936 101.6228298  76.9218864  87.0799940
 102.5112131  77.4574130  88.1826571  87.7663218  82.3624868  82.9110655
  87.6308892  83.2076404  83.3395503  88.3073030  82.5644146  82.1476589
  84.2530557  68.4416448  99.5725011  83.8597503  67.8882646 100.2472655
  85.0696698  68.7527026  99.9631528  81.2192615  79.8800306  83.4838580
  81.7317136  80.6743556  83.6344145  81.8715328  79.1826596  83.4172182
  83.0287500  82.9966062  85.5661334  83.2054128  83.9184027  85.3782318
  83.8244333  82.6824482  85.9955713  87.1698518  69.8574327  97.1645267
  87.9108232  70.4581480  97.0849730  87.4016441  69.1151965  96.6063310
  82.3139856  75.0430694  95.4423497  82.1993371  74.1415951  95.7430596
  81.4584374  75.2894391  95.0908313  89.3931694  82.9848435  97.0410997
  88.9495548  82.1984813  96.7231902  90.0548908  83.1727585  96.3754888
  84.1518815  84.5144236  91.5671676  84.7026240  84.3861299  90.7948670
  83.3130291  84.8139125  91.2166569  91.4912932  83.2651234  95.0692399
  91.4731407  84.0860115  94.5772668  92.4132852  83.1405310  95.2942540
  87.9485986  80.7795364  95.9115907  88.4814323  80.0183652  95.6815215
  87.4200067  80.4869016  96.6540062  91.1155681  65.8855430  91.4409549
  90.7719951  66.7757072  91.3648659  91.4834644  65.6957088  90.5779134
  79.1841532  78.2088960  84.2598151  80.0216754  78.6185969  84.0431859
  79.3619800  77.2688402  84.2298345  91.0805964  75.8764041  79.9481984
  90.5652587  76.6468646  80.1870371  90.8083272  75.2029177  80.5715045
  88.6653075  70.7213742  85.0067222  87.8094671  70.3320592  84.8272861
  89.0780027  70.8005703  84.1467008  90.1952222  68.2560085  89.4058782
  89.6917017  68.2190220  88.5926587  90.4882829  69.1652828  89.4655439
  86.4395108  68.3398815  88.4124964  87.3048104  68.1441623  88.0530853
  86.5072616  68.1109167  89.3394321  96.0540238  78.6296396  81.8835157
  95.2769681  78.2907555  81.4390320  96.7331719  78.6349019  81.2090122
  90.8692267  73.7491133  81.7741765  90.5642403  74.0637282  82.6251908
  91.8222709  73.8272553  81.8169098  89.3138699  79.9081356  83.4234719
  88.7860061  79.1734116  83.1107957  88.8126202  80.6856033  83.1774687
  94.2931545  78.1030377  88.5401765  93.6355219  78.7929638  88.6281894
  95.0971944  78.4926809  88.8835752  84.0457427  70.5701023  85.7841331
  84.6201179  70.3476204  85.0514524  84.6328409  70.6389717  86.5369932
  93.1037004  76.4574750  86.5905707  93.6168886  77.0904741  87.0927417
  93.7538228  75.8575945  86.2249067  84.3727014  72.6005484  79.8037216
  83.5364326  72.9380170  80.1246491  84.2331783  72.4654463  78.8664353
  86.3480094  67.4442272  84.5116400  85.6944507  67.1291289  83.8873015
  86.3060568  66.8218012  85.2376223  87.4591299  77.7261567  76.4269692
  86.5518361  77.4950820  76.6260841  87.9562331  76.9299186  76.6143674
  90.3659378  86.4359074  79.3466378  89.6921077  86.7390771  79.9551336
  90.7525200  87.2388154  78.9971835  89.5817835  73.9324205  88.8364048
  88.6640396  74.1539152  88.6785736  89.9977978  74.0070516  87.9775755
  90.3652882  75.3315621  83.9666728  91.1124701  75.8437018  83.6573850
  90.6344472  75.0099674  84.8271122  88.6379533  77.8274162  80.9493682
  87.7290752  77.5433194  81.0466152  88.6674616  78.2473240  80.0896989
  93.8698800  81.4380751  84.7184850  93.4161127  80.5971661  84.7750040
  93.2392767  82.0742149  85.0559630  92.8131720  72.3672737  85.9485517
  92.0754476  71.8550123  86.2795760  93.0658493  71.9273119  85.1368794
  92.3131739  83.2757248  85.6534668  92.6054714  83.8362305  84.9347034
  92.8230360  83.5685809  86.4087827  92.9143347  65.1448989  86.5427287
  93.2202224  64.2846352  86.2553202  93.6395952  65.7366609  86.3426280
  79.2067703  75.5479676  84.9308884  79.0092103  74.9549036  84.2059951
  78.6514367  75.2431886  85.6484823  87.1864427  75.4402782  87.0503478
  87.2413036  74.4876619  86.9745954  86.3755629  75.5962221  87.5344776
  88.3355620  79.3682905  78.2881761  87.8975050  78.6518764  77.8287398
  89.0766061  79.5959020  77.7266852  85.1256787  74.0579842  84.8093856
  84.3124652  74.3574012  85.2159049  85.6215781  73.6635531  85.5268339
  87.2765364  84.0537599  86.7428121  87.2341543  84.2798445  85.8136653
  88.1928063  83.8200973  86.8913922  90.7230998  74.5221666  93.6408750
  91.0780386  74.7493139  94.5003216  91.3703129  74.8540043  93.0186006
  96.4528735  77.6440102  84.3458079  96.3146634  77.8341698  83.4179269
  96.0964954  78.4059485  84.8026131  84.6170861  71.6298197  90.4255091
  85.2570241  71.4886956  89.7278055  83.7848392  71.3432711  90.0493693
  96.4798115  79.7116629  89.3569351  96.9134621  79.6191918  90.2052405
  97.1929696  79.6874130  88.7189367  85.3931165  80.9300628  86.5390084
  86.1871764  80.4350948  86.3372659  84.6822858  80.4018491  86.1757789
  90.2126010  83.3118723  90.8902452  90.2663032  83.8809660  91.6580167
  89.3440791  83.4820608  90.5256489  81.7013929  75.0743710  82.6149837
  80.7711517  75.0128165  82.8319799  81.7971401  74.5519662  81.8186478
  81.6199478  71.5998522  85.2028078  81.8806295  72.5143856  85.0937239
  82.4416650  71.1322965  85.3524691  83.0924403  73.0136280  92.3726903
  83.7647457  72.8053642  91.7239552  82.2654190  72.8158366  91.9332135
  97.3413664  79.7540330  91.8902236  97.5349554  80.6586140  92.1361511
  97.2414283  79.2947749  92.7240821  88.9949975  69.6398220  94.3892564
  88.3477890  70.3388170  94.2957040  89.7650991  70.0734364  94.7568812
  92.4028773  79.9047073  97.4643117  92.2514279  79.6757624  96.5473201
  92.3933453  80.8617674  97.4774462  89.1714109  77.4778985  92.4489383
  90.1006169  77.6290145  92.2758351  88.7505139  77.5663006  91.5938030
  87.9702441  81.5029650  90.2187921  87.8313527  81.1348434  91.0913859
  87.1817037  82.0177289  90.0471879  88.5650593  86.6038746  81.5613458
  88.7402349  86.1326789  82.3759080  87.8783381  87.2304512  81.7894718
  89.5207656  80.8811252  87.6076759  89.1857489  80.8412022  88.5034409
  89.0211602  80.2155968  87.1347169  83.4951900  76.2878883  93.1329340
  83.3571698  75.5559121  93.7340879  84.4056824  76.1987783  92.8513528
  92.4566848  78.2267287  77.8813818  91.8396019  77.5014115  77.7846871
  91.9883337  78.9876647  77.5380893  86.1234201  75.9998842  92.6213020
  86.8333820  75.3592034  92.5799638  86.0803509  76.2511737  93.5439200
  94.1120980  82.9366195  95.5419599  94.0533526  82.2525415  94.8750182
  94.5140498  83.6785185  95.0900225  84.8363135  72.9864060  94.4408659
  84.3000492  72.5354798  95.0930255  84.2479843  73.1209969  93.6979123
  83.1311679  89.7528109  88.3353318  83.3708277  90.3846633  89.0132336
  82.2880875  89.4016149  88.6218677  84.2465394  72.4452711  77.0035123
  83.3694860  72.3241512  76.6397369  84.7223147  71.6538789  76.7514011
  94.1138387  80.9005779  93.7733578  93.2265166  80.5631701  93.8959977
  94.6836938  80.1688810  94.0102344  80.5702256  72.1220067  91.5261654
  80.4860445  71.5145737  90.7912063  79.7484963  72.6129086  91.5271150
  87.6439540  85.5607231  90.7394822  87.5709712  86.3662203  91.2514126
  87.2016933  85.7599197  89.9142843  87.4329320  84.7979002  84.2497643
  86.6496842  85.3400682  84.3435868  88.1322065  85.3152981  84.6491884
  90.7425970  70.6073631  86.8931849  91.2394670  69.8543593  86.5732919
  89.9712952  70.6437948  86.3275058  98.5955728  76.3113996  88.5350140
  98.5845604  77.1938712  88.1644073  97.7273107  75.9585547  88.3404677
  90.1038224  85.4594066  92.8952980  90.8166196  86.0941530  92.8228882
  89.6128253  85.5557932  92.0792982  91.8255751  79.3645318  84.4670272
  90.8912030  79.4846781  84.2974976  92.0032419  78.4617785  84.2030282
  87.3260939  72.7491014  86.6203533  86.9558726  72.1962054  87.3084439
  87.8220031  72.1449147  86.0678533  95.2128302  75.2062637  85.0020306
  95.6788754  76.0390629  84.9280609  95.6635803  74.7407619  85.7065565
  85.1550137  83.2088509  93.7158551  85.8559597  83.8424992  93.8687945
  84.6845252  83.5503241  92.9554190  93.2804533  81.5506459  82.0006458
  93.5564377  81.4363053  82.9100332  92.4109032  81.1523944  81.9618631
  93.1844965  67.5743224  89.0411207  92.2708045  67.8047451  89.2093414
  93.6138066  67.6581669  89.8925240  92.9551423  75.7633116  91.5411101
  92.3022874  76.0109024  90.8863554  93.3331803  74.9497255  91.2073579
  89.9158597  85.7992810  85.6439272  90.0980992  84.9814466  86.1067024
  90.7391583  86.0160502  85.2064162  90.2500763  84.7260995  82.9054320
  90.7788529  84.2153449  82.2924482  90.5128982  84.4103525  83.7699853
  89.0038996  76.5052927  98.0277139  88.3279633  76.4047057  98.6979514
  89.8266630  76.3492141  98.4913136  80.7517855  82.7424864  90.6489654
  81.3371292  81.9968552  90.7817558  80.5542694  83.0528821  91.5326318
  83.6056511  85.7776111  85.6652096  82.9366886  86.2622239  85.1816136
  83.4669380  86.0245332  86.5795475  87.7461779  87.8119855  92.2634755
  88.2980087  87.9751476  93.0283840  88.0867973  88.4024293  91.5914779
  82.7226273  70.1595005  92.8656639  82.7867599  71.0209836  92.4534037
  82.6593393  69.5469006  92.1328998  82.1978545  72.2318137  96.5129674
  82.8250584  71.8495215  97.1267198  81.3406464  72.0132339  96.8785366
  92.5972654  82.6381112  98.1183409  93.1412558  83.2511071  97.6238364
  92.0159498  83.1960691  98.6350422  78.9744088  74.0394566  82.4448028
  79.2697529  73.1305245  82.3915082  78.0732124  74.0182306  82.1229031
  90.8830167  85.7601830  89.2498437  90.7581306  84.9591570  88.7409382
  91.5409258  86.2548024  88.7612407  82.5038335  72.1150563  88.4275577
  81.7824921  72.7286531  88.2883050  83.2931591  72.6508328  88.3492223
  92.9465075  83.5610851  90.8777987  91.9995410  83.4416202  90.8056314
  93.2947848  82.6733349  90.9604248  85.3064648  69.4504989  94.7016229
  85.8299050  69.6967286  95.4642538  85.0876982  70.2825024  94.2819366
  80.7031929  71.7208664  82.5687354  80.3744636  70.8406043  82.3862459
  81.0571300  71.6656333  83.4563743  89.9511508  83.3563567  87.0782339
  89.8036471  82.4280274  87.2589909  90.7765002  83.3783657  86.5939414
  83.8173753  72.0081634  82.9362831  84.1569825  72.5367555  82.2141440
  84.2645873  72.3462040  83.7121398  93.5545630  84.1792125  88.1647212
  94.4792178  83.9734987  88.0271663  93.3860933  83.9308527  89.0736553
  86.5117193  70.3918685  92.3865899  86.1714014  69.5926498  92.7886579
  85.8056200  70.6920395  91.8142732  87.1633665  67.4767997  90.8393222
  87.9859735  67.0028475  90.7172113  87.4071729  68.2558481  91.3391909
  85.8041900  70.5056255  81.1356124  86.5250262  70.8837508  80.6319841
  85.1807204  71.2245132  81.2391102  89.9473023  71.2101404  82.0714456
  90.1636637  72.0926042  81.7703284  89.4667090  70.8187618  81.3420098
  84.6872244  74.1687118  88.6485201  84.5416825  74.4827421  89.5409482
  84.2097448  74.7872018  88.0956100  86.5468627  71.1589666  88.6966090
  86.5330196  70.2630759  88.3598388  87.2641055  71.1660329  89.3304376
  88.3994758  71.5927006  90.7419218  88.1412535  72.5144076  90.7403548
  87.8679798  71.1957440  91.4319682  93.3440946  84.6977793  83.5209303
  93.5177824  84.1324215  82.7683156  93.8369838  85.4978688  83.3388793
  79.1617906  76.7092462  91.5872862  78.6171374  77.4852270  91.7193136
  80.0397256  77.0563267  91.4291983  85.9505523  70.0404046  83.9653661
  86.0721434  69.1120692  84.1644548  85.6607565  70.0542732  83.0531976
  88.8196713  67.7258956  87.1020380  88.8418410  67.7898289  86.1472360
  89.2364772  66.8863465  87.2960887  99.1980337  77.4614216  85.1399603
  99.6411484  76.7121541  84.7418726  98.3206848  77.4524352  84.7573335
  94.3316119  84.0144557  80.6206202  95.0267023  84.6351250  80.8393516
  94.6739269  83.1639909  80.8958579  79.9483928  75.8362358  94.4803019
  79.2065664  75.9844994  95.0667649  79.6276672  76.0970624  93.6169768
  96.2307542  81.4644263  82.1493532  96.7558866  81.8031536  81.4242852
  96.1429894  80.5291278  81.9656667  87.8927591  85.3778337  94.2783409
  88.2014717  85.1327483  95.1506109  88.6903073  85.5824975  93.7902279
  87.9148203  87.5316246  86.5088785  87.4753193  87.0392625  87.2021642
  88.6656320  86.9889214  86.2680861  80.3940542  83.7227787  86.5113414
  81.2198562  83.4231559  86.1312057  80.0434594  82.9535409  86.9603202
  85.3622075  83.0754255  88.5811087  84.7402084  82.4124960  88.2813315
  86.0326942  83.1015387  87.8984735  78.5949147  81.6414113  87.4702347
  77.7581055  81.2136288  87.2886348  78.5672792  81.8346557  88.4073138
  85.4346602  71.5536043  98.1743593  85.4834758  72.4298166  97.7921363
  85.9769117  71.0113436  97.6015236  95.9201448  82.0977167  97.4544730
  95.1296992  82.0801305  96.9149230  95.6834803  82.6365460  98.2093767
  96.0399323  78.9469633  94.7677459  96.0897328  78.7819640  95.7092982
  95.9313246  78.0796892  94.3775340  84.9235582  81.6258179  82.0569548
  85.0723702  82.3093643  81.4036220  85.7302025  81.6063269  82.5719003
  93.3303085  74.9300561  96.0836766  94.2312948  74.7907026  95.7920763
  93.4051060  75.0955016  97.0234943  87.6645891  72.3067416  94.9289952
  86.7949200  72.6000982  94.6572540  87.9005371  72.8907861  95.6497215
  97.5417520  81.3666574  95.0119480  97.2502328  81.7296555  95.8482941
  96.9289651  80.6533583  94.8332812  98.7413202  78.9319454  87.5322051
  99.5760094  79.3709258  87.6959611  98.8772331  78.4558107  86.7130296
  95.7904708  76.4899189  93.4799538  96.2658830  76.6826835  92.6718390
  94.8670273  76.5458375  93.2342922  82.6788215  77.6523356  83.0630617
  82.4334257  76.7485686  83.2610827  82.8484129  77.6540507  82.1210095
  90.3684925  68.5247033  92.4455372  90.8866868  69.2608060  92.1201861
  90.0140057  68.8311026  93.2802131  81.9483862  73.3851714  80.5616778
  81.2553107  73.4596069  79.9056814  81.7035614  72.6212057  81.0838295
  90.6197519  64.9447315  87.9656269  90.8999273  64.2770504  88.5916695
  91.4048126  65.1376411  87.4530933  88.4230987  84.1206309  79.5281295
  87.8504954  84.7396496  79.0751767  88.9963781  84.6705671  80.0621217
  94.4906377  73.3664949  91.7127844  95.4423800  73.4663047  91.7340068
  94.3209828  72.5743218  92.2225928  92.5120757  70.4520532  91.8987245
  91.9170689  70.7325545  91.2033733  92.2270453  70.9414433  92.6703986
  91.6428247  84.4043459  80.6589877  92.5758920  84.3389021  80.8622753
  91.5551460  85.2399726  80.2004410  94.2716264  83.7209330  77.6193825
  94.1929895  83.3869193  78.5129583  95.0925930  84.2131097  77.6185297
  96.9694455  76.5871069  90.8270144  96.9370775  75.6487070  91.0129827
  97.5795079  76.6655106  90.0935968  88.8077786  75.4567122  76.8697348
  89.7536890  75.3273330  76.9385766  88.4292031  74.7181784  77.3466776
  97.1188943  73.3782112  90.8728427  96.6027992  72.5940569  90.6858356
  98.0028892  73.0500829  91.0374946  94.7799670  67.1223128  86.8324239
  94.5824491  66.8138216  87.7167571  95.3899376  67.8484767  86.9622169
 102.7871005  77.6487076  89.9676180 103.5174393  77.3872364  90.5283884
 102.1777950  76.9115798  90.0078248 100.8686302  75.7894938  90.5650632
 100.1419465  75.6550903  89.9567123 100.4533589  76.0971767  91.3707350
  88.6916478  79.5084868  98.3298005  89.6119488  79.6863467  98.5238051
  88.6566061  78.5640913  98.1777704  86.9920703  73.3817098  76.8052233
  86.0852158  73.0850211  76.8814946  87.2696684  73.0846916  75.9386519
  81.6878551  77.4185903  90.9720786  81.9064561  78.3503010  90.9908820
  82.1004325  77.0593877  91.7575590  88.6082769  67.9253988  82.9596474
  87.7983497  67.5801073  83.3351720  89.2967186  67.6161532  83.5484086
  90.5373317  67.0032035  84.5820771  91.0904356  67.4227488  85.2410794
  90.7743403  66.0767783  84.6243727  86.5606416  72.9919108 100.3623535
  86.4603143  73.9413465 100.2935626  86.3427958  72.6637347  99.4899605
  85.7619488  70.2404033  76.9464212  86.6238652  70.5658932  77.2060029
  85.9469832  69.4535529  76.4337278  77.7786903  78.3226373  89.2244401
  77.0850375  77.9080326  88.7114355  78.5259894  78.3646910  88.6277820
  93.9152124  69.1132560  84.0899435  93.3350793  69.7717364  83.7077487
  93.6488057  68.2909904  83.6786853  92.3655690  68.5137618  86.2920755
  92.8655469  68.6254152  85.4835074  93.0091298  68.2098670  86.9321564
  86.4237686  76.4216247  99.1788596  85.9404768  77.2216607  99.3852485
  86.5098625  76.4324192  98.2256040  79.6923646  78.2544627  87.1010416
  79.6694334  78.3532314  86.1492299  80.0024282  79.1009778  87.4227582
  82.3511024  80.3120782  91.2157030  83.3054277  80.2804724  91.1486962
  82.1523547  79.8511406  92.0307256  82.9410406  78.8821898  93.7827828
  83.7603295  79.3765977  93.8062665  83.2147214  77.9653866  93.7545395
  92.6977002  71.2732650  83.1455783  91.8102857  71.5582301  82.9275978
  93.1130991  71.1126414  82.2983060  96.0491538  71.2979171  86.8610123
  96.8251928  71.7875624  87.1334739  95.3239672  71.7237225  87.3181992
  98.4864097  72.0106790  87.9184063  99.0808588  71.7702526  87.2077371
  98.5590680  71.2913921  88.5457599  80.7061252  85.8540401  88.2327228
  80.5715720  85.0940802  87.6665226  80.2893315  86.5781301  87.7656017
  91.8420215  81.0377325  77.2403803  92.5456066  81.2427327  77.8561459
  91.1182864  81.6054087  77.5052887  92.6718026  76.7887186  83.3606073
  92.6153227  77.2455738  82.5213706  93.2246368  76.0277871  83.1828916
  96.4822832  72.5776918  84.1856193  96.2259766  72.1773554  85.0164401
  95.8575700  73.2920712  84.0606332 100.7935170  75.3172991  86.6927484
 100.2334728  75.3866181  87.4659046 100.1878673  75.1413976  85.9726981
  83.8630378  86.7509718  88.4445671  83.7462762  87.6955151  88.3424361
  83.0422825  86.4483280  88.8331470  93.7506913  81.4759854  79.2902263
  94.5852517  81.0441053  79.1079738  93.5891256  81.3041868  80.2179158
  93.4052805  77.9791967  80.6558603  93.3501609  77.8136239  79.7147047
  92.7798860  78.6868000  80.8120792  78.1945320  73.2160032  94.4820025
  78.8404184  72.7058986  94.9707250  77.9862471  73.9528713  95.0563450
  90.7198712  80.2840879  99.9812165  91.5889872  80.4581532  99.6198800
  90.2405464  81.1035296  99.8587895  86.7148931  67.4800076  80.2343921
  86.7027600  68.4241916  80.3912192  87.6072352  67.2970222  79.9403382
  84.8884892  87.4037980  91.6601599  85.7912139  87.4361591  91.9768094
  84.6622263  86.4738431  91.6747935  86.6438494  86.1568967  88.3211678
  85.6934126  86.1570828  88.2076050  86.9470981  85.4101701  87.8047712
  90.5301050  64.0742853  84.4889858  89.7633446  63.5201340  84.6346540
  90.9411755  64.1464722  85.3504009  82.5342811  70.3627649  98.5795039
  83.3974273  70.0064454  98.7898364  81.9608222  70.0241544  99.2670443
 102.3791188  91.9929505  89.3857440 103.0169598  91.8736253  88.6820780
 102.2612031  92.9410349  89.4445392  99.1880894  91.9456933  89.3218965
  98.8499406  91.8297998  88.4339500 100.0570662  91.5448098  89.3019971
  95.0467710  93.7992410  85.3115856  94.4832575  93.7082347  84.5432143
  94.9320105  92.9792314  85.7918348  99.6700677  93.0991785  95.2805170
  99.6589318  92.7044583  94.4085674  99.8321317  92.3657858  95.8738942
  92.5932142  95.2943601  88.1500076  93.3853434  94.9534426  87.7346375
  92.8328792  95.4038576  89.0702229 100.6267269  97.4663377  80.6230321
  99.9755248  98.0517458  80.2364334 101.4211631  97.9969572  80.6825358
  94.5522896  94.5552515  81.0217455  95.3253772  94.0081502  80.8830331
  94.9048295  95.4196764  81.2331916  96.3907938  95.8828897  94.2284354
  96.0997804  96.7874528  94.1131021  97.0264923  95.9245424  94.9428424
  97.3164145  93.2605745  90.8185714  97.9127717  93.0361768  90.1042677
  97.3739117  92.5190491  91.4211162  96.8889174  90.7145181  78.6535905
  97.1414694  90.1926702  77.8919368  95.9513733  90.5511326  78.7562588
 101.9332456  89.7180959  86.4610648 102.7195546  89.3000382  86.1101065
 102.1971161  90.6227051  86.6292297 102.1042534  95.1553809  81.1599305
 101.4688367  95.2288436  81.8720210 101.7739940  95.7447408  80.4818384
 107.3340884  89.6556192  87.3643627 108.0666056  89.0855409  87.5981456
 106.5780239  89.2677793  87.8050132  96.6085462  92.6173287  80.8560280
  96.4921720  91.9418190  81.5241364  96.7187722  92.1305661  80.0392433
  98.9517003  92.0783434  84.5606969  98.5875211  91.5514055  85.2719891
  99.8084119  91.6881903  84.3873454 104.8566304  83.3677766  91.8238235
 104.5249629  84.2373177  91.5999450 104.2611917  83.0514050  92.5032266
  98.5922490  87.1073333  79.5568318  98.7596893  87.9753570  79.9238789
  98.4019659  87.2700615  78.6329607 101.3497823  95.5690312  91.2234148
 101.0498547  96.4715351  91.1149955 101.0048883  95.3022496  92.0755301
  94.8010305  92.0204109  87.2570852  93.8760801  91.8880323  87.4648544
  95.0494718  92.7998328  87.7540795 104.7494967  88.0872853  88.9031585
 103.8411845  88.0188261  88.6090346 104.6982563  88.5644797  89.7313411
  98.5711711  89.5630991  80.5414984  98.4511336  90.0088042  81.3800465
  97.8764300  89.9116309  79.9828523  92.1619116  91.6637383  88.0914641
  92.2911497  91.9171862  89.0054053  91.4816567  92.2565091  87.7719297
  96.3318603 102.3334633  84.1905116  96.2542633 103.2842458  84.2693596
  95.7280247 101.9880505  84.8480042  98.8235833  89.5062498  96.8466483
  98.0469167  90.0656418  96.8369347  99.4626396  89.9919281  97.3681353
 106.6156614  86.2889291  90.6809459 105.9730994  86.5821824  90.0349254
 106.1111542  86.1742211  91.4862656 104.2696777  90.0352464  81.3695318
 105.1814633  90.2679851  81.1943016 103.7606424  90.6189508  80.8070397
  97.0782205  92.3147952  96.4084450  97.8196890  92.8532995  96.1319273
  96.3719191  92.9414240  96.5656001 102.5537545  94.4577092  95.0056611
 102.9620901  94.0159502  94.2611243 101.8314806  93.8829719  95.2590804
  98.9068615  89.3949699  92.3790168  99.7529810  89.8189112  92.5224817
  98.8467253  88.7383323  93.0728731 102.8766360  95.0178283  88.7608900
 102.2475222  95.1823997  88.0584968 102.4892022  95.4319892  89.5319864
 106.7555592  95.9532720  86.1153264 106.0706630  96.3331622  85.5650297
 106.8399441  96.5628047  86.8485211 102.0568060  87.0554067  94.0371342
 101.8128992  87.8096128  93.5005617 102.3327991  87.4339415  94.8718589
 104.0106523  93.5992679  92.7148607 104.2223418  94.2424439  92.0382988
 103.9636271  92.7654996  92.2470537 101.6132752  86.2110500  89.6185179
 100.7517231  86.5091754  89.9101917 101.6395187  86.4280899  88.6866212
  98.4294322  94.7552691  86.0258985  98.8932667  95.0340394  85.2363608
  98.1651120  93.8536135  85.8432076  95.3218403  94.3024172  88.9638748
  95.8919760  94.7311441  88.3256233  95.9126514  94.0206757  89.6622934
  97.3663208  90.8775843  82.8348550  98.0687251  91.3296887  83.3022477
  97.0343836  90.2359662  83.4628443  95.8143569  89.4687600  97.2099760
  95.1842230  90.1503881  97.4435156  95.7079657  89.3570681  96.2652898
  91.1088542  89.1359396  88.1365684  90.3187596  89.3916924  87.6605794
  91.5999789  89.9507734  88.2417724 105.1252351  96.4764635  90.8870965
 105.9469795  96.0744822  90.6053646 105.1214754  96.3732869  91.8387080
  93.0603287  89.5003975  85.0949160  92.2634450  89.6122669  85.6132656
  92.8328879  89.8390627  84.2290051  98.8908955  96.0248678  93.0431675
  98.9553387  96.4869085  93.8789847  98.1819878  95.3946043  93.1713985
  89.3926245  89.3889886  90.5680675  89.6434283  90.2736896  90.8338250
  89.9285793  89.2094488  89.7955766 113.2158344  92.8203383  87.2355936
 112.4622053  92.2510781  87.0799940 113.3505885  92.7866048  88.1826571
  98.6056972  97.6916786  82.9110655  98.4702647  98.5368321  83.3395503
  99.1466785  97.8936063  82.1476589  95.0924312  83.7708366  99.5725011
  94.6991257  83.2174564 100.2472655  95.9090452  84.0818944  99.9631528
  92.0586370  95.2092224  83.4838580  92.5710890  96.0035474  83.6344145
  92.7109082  94.5118514  83.4172182  93.8681254  98.3257980  85.5661334
  94.0447883  99.2475945  85.3782318  94.6638088  98.0116399  85.9955713
  98.0092273  85.1866245  97.1645267  98.7501986  85.7873398  97.0849730
  98.2410196  84.4443882  96.6063310  93.1533611  90.3722612  95.4423497
  93.0387126  89.4707869  95.7430596  92.2978129  90.6186309  95.0908313
 100.2325449  98.3140352  97.0410997  99.7889303  97.5276731  96.7231902
 100.8942662  98.5019503  96.3754888  94.9912570  99.8436154  91.5671676
  95.5419995  99.7153217  90.7948670  94.1524046 100.1431043  91.2166569
 102.3306687  98.5943152  95.0692399 102.3125162  99.4152033  94.5772668
 103.2526607  98.4697227  95.2942540  98.7879741  96.1087282  95.9115907
  99.3208078  95.3475570  95.6815215  98.2593822  95.8160933  96.6540062
 101.9549436  81.2147348  91.4409549 101.6113705  82.1048989  91.3648659
 102.3228398  81.0249005  90.5779134  90.0235286  93.5380878  84.2598151
  90.8610508  93.9477886  84.0431859  90.2013554  92.5980320  84.2298345
 101.9199718  91.2055959  79.9481984 101.4046342  91.9760563  80.1870371
 101.6477027  90.5321095  80.5715045  99.5046830  86.0505659  85.0067222
  98.6488426  85.6612510  84.8272861  99.9173781  86.1297620  84.1467008
 101.0345976  83.5852003  89.4058782 100.5310772  83.5482138  88.5926587
 101.3276583  84.4944745  89.4655439  97.2788862  83.6690732  88.4124964
  98.1441859  83.4733541  88.0530853  97.3466371  83.4401084  89.3394321
 106.8933993  93.9588313  81.8835157 106.1163435  93.6199473  81.4390320
 107.5725474  93.9640936  81.2090122 101.7086022  89.0783051  81.7741765
 101.4036157  89.3929200  82.6251908 102.6616464  89.1564471  81.8169098
 100.1532454  95.2373274  83.4234719  99.6253815  94.5026034  83.1107957
  99.6519956  96.0147950  83.1774687 105.1325300  93.4322295  88.5401765
 104.4748974  94.1221556  88.6281894 105.9365699  93.8218726  88.8835752
  94.8851181  85.8992940  85.7841331  95.4594933  85.6768122  85.0514524
  95.4722164  85.9681635  86.5369932 103.9430758  91.7866667  86.5905707
 104.4562640  92.4196659  87.0927417 104.5931982  91.1867863  86.2249067
  95.2120768  87.9297401  79.8037216  94.3758080  88.2672088  80.1246491
  95.0725538  87.7946381  78.8664353  97.1873849  82.7734189  84.5116400
  96.5338261  82.4583206  83.8873015  97.1454323  82.1509930  85.2376223
  98.2985054  93.0553484  76.4269692  97.3912115  92.8242738  76.6260841
  98.7956086  92.2591104  76.6143674 101.2053133 101.7650992  79.3466378
 100.5314831 102.0682688  79.9551336 101.5918955 102.5680072  78.9971835
 100.4211589  89.2616123  88.8364048  99.5034151  89.4831070  88.6785736
 100.8371733  89.3362433  87.9775755 101.2046637  90.6607538  83.9666728
 101.9518456  91.1728936  83.6573850 101.4738226  90.3391591  84.8271122
  99.4773287  93.1566079  80.9493682  98.5684506  92.8725112  81.0466152
  99.5068371  93.5765158  80.0896989 104.7092555  96.7672669  84.7184850
 104.2554882  95.9263579  84.7750040 104.0786521  97.4034067  85.0559630
 103.6525474  87.6964655  85.9485517 102.9148231  87.1842041  86.2795760
 103.9052248  87.2565036  85.1368794 103.1525494  98.6049165  85.6534668
 103.4448468  99.1654222  84.9347034 103.6624114  98.8977726  86.4087827
 103.7537101  80.4740907  86.5427287 104.0595978  79.6138270  86.2553202
 104.4789706  81.0658527  86.3426280  90.0461458  90.8771593  84.9308884
  89.8485857  90.2840954  84.2059951  89.4908121  90.5723804  85.6484823
  98.0258181  90.7694700  87.0503478  98.0806791  89.8168536  86.9745954
  97.2149383  90.9254139  87.5344776  99.1749375  94.6974823  78.2881761
  98.7368805  93.9810682  77.8287398  99.9159816  94.9250938  77.7266852
  95.9650541  89.3871760  84.8093856  95.1518407  89.6865930  85.2159049
  96.4609535  88.9927448  85.5268339  98.1159119  99.3829516  86.7428121
  98.0735298  99.6090363  85.8136653  99.0321818  99.1492891  86.8913922
 101.5624753  89.8513584  93.6408750 101.9174140  90.0785057  94.5003216
 102.2096884  90.1831961  93.0186006 107.2922490  92.9732020  84.3458079
 107.1540388  93.1633616  83.4179269 106.9358709  93.7351403  84.8026131
  95.4564616  86.9590115  90.4255091  96.0963995  86.8178874  89.7278055
  94.6242146  86.6724628  90.0493693 107.3191869  95.0408547  89.3569351
 107.7528376  94.9483836  90.2052405 108.0323450  95.0166047  88.7189367
  96.2324920  96.2592545  86.5390084  97.0265518  95.7642866  86.3372659
  95.5216612  95.7310409  86.1757789 101.0519764  98.6410641  90.8902452
 101.1056786  99.2101577  91.6580167 100.1834546  98.8112526  90.5256489
  92.5407683  90.4035627  82.6149837  91.6105271  90.3420083  82.8319799
  92.6365155  89.8811580  81.8186478  92.4593232  86.9290440  85.2028078
  92.7200050  87.8435773  85.0937239  93.2810405  86.4614883  85.3524691
  93.9318158  88.3428197  92.3726903  94.6041211  88.1345559  91.7239552
  93.1047944  88.1450283  91.9332135 108.1807419  95.0832248  91.8902236
 108.3743309  95.9878058  92.1361511 108.0808037  94.6239667  92.7240821
  99.8343730  84.9690138  94.3892564  99.1871645  85.6680088  94.2957040
 100.6044745  85.4026282  94.7568812 103.2422528  95.2338990  97.4643117
 103.0908034  95.0049542  96.5473201 103.2327207  96.1909592  97.4774462
 100.0107864  92.8070903  92.4489383 100.9399924  92.9582063  92.2758351
  99.5898894  92.8954924  91.5938030  98.8096196  96.8321567  90.2187921
  98.6707281  96.4640352  91.0913859  98.0210792  97.3469207  90.0471879
  99.4044348 101.9330664  81.5613458  99.5796103 101.4618707  82.3759080
  98.7177136 102.5596430  81.7894718 100.3601411  96.2103170  87.6076759
 100.0251243  96.1703940  88.5034409  99.8605357  95.5447886  87.1347169
  94.3345655  91.6170800  93.1329340  94.1965453  90.8851039  93.7340879
  95.2450578  91.5279700  92.8513528 103.2960603  93.5559205  77.8813818
 102.6789773  92.8306033  77.7846871 102.8277091  94.3168565  77.5380893
  96.9627956  91.3290760  92.6213020  97.6727574  90.6883952  92.5799638
  96.9197264  91.5803654  93.5439200 104.9514734  98.2658113  95.5419599
 104.8927280  97.5817333  94.8750182 105.3534253  99.0077103  95.0900225
  95.6756889  88.3155977  94.4408659  95.1394247  87.8646716  95.0930255
  95.0873598  88.4501886  93.6979123  93.9705433 105.0820027  88.3353318
  94.2102031 105.7138551  89.0132336  93.1274629 104.7308067  88.6218677
  95.0859148  87.7744629  77.0035123  94.2088615  87.6533430  76.6397369
  95.5616902  86.9830707  76.7514011 104.9532141  96.2297697  93.7733578
 104.0658920  95.8923619  93.8959977 105.5230693  95.4980728  94.0102344
  86.6061289  92.5621789  87.0976630  87.2932328  92.2483519  86.5097645
  86.4509417  93.4663153  86.8243881  91.4096011  87.4511985  91.5261654
  91.3254199  86.8437655  90.7912063  90.5878717  87.9421003  91.5271150
  98.4833295 100.8899149  90.7394822  98.4103466 101.6954121  91.2514126
  98.0410688 101.0891115  89.9142843  98.2723074 100.1270919  84.2497643
  97.4890596 100.6692599  84.3435868  98.9715820 100.6444899  84.6491884
 101.5819725  85.9365549  86.8931849 102.0788424  85.1835511  86.5732919
 100.8106706  85.9729865  86.3275058 109.4349482  91.6405914  88.5350140
 109.4239358  92.5230630  88.1644073 108.5666861  91.2877465  88.3404677
 100.9431978 100.7885983  92.8952980 101.6559951 101.4233448  92.8228882
 100.4522007 100.8849849  92.0792982 102.6649505  94.6937236  84.4670272
 101.7305784  94.8138698  84.2974976 102.8426174  93.7909703  84.2030282
  98.1654693  88.0782932  86.6203533  97.7952481  87.5253972  87.3084439
  98.6613786  87.4741065  86.0678533 106.0522057  90.5354555  85.0020306
 106.5182509  91.3682547  84.9280609 106.5029557  90.0699537  85.7065565
  95.9943892  98.5380427  93.7158551  96.6953351  99.1716910  93.8687945
  95.5239007  98.8795158  92.9554190 104.1198288  96.8798376  82.0006458
 104.3958132  96.7654971  82.9100332 103.2502786  96.4815861  81.9618631
 104.0238719  82.9035142  89.0411207 103.1101799  83.1339369  89.2093414
 104.4531821  82.9873586  89.8925240 103.7945178  91.0925034  91.5411101
 103.1416628  91.3400942  90.8863554 104.1725558  90.2789172  91.2073579
 100.7552352 101.1284727  85.6439272 100.9374746 100.3106383  86.1067024
 101.5785338 101.3452420  85.2064162 101.0894517 100.0552912  82.9054320
 101.6182284  99.5445367  82.2924482 101.3522737  99.7395443  83.7699853
  99.8432751  91.8344845  98.0277139  99.1673388  91.7338974  98.6979514
 100.6660385  91.6784059  98.4913136  91.5911610  98.0716782  90.6489654
  92.1765047  97.3260470  90.7817558  91.3936448  98.3820738  91.5326318
  94.4450265 101.1068029  85.6652096  93.7760640 101.5914157  85.1816136
  94.3063135 101.3537250  86.5795475  86.1829265  90.6422382  89.3694097
  86.2213364  90.1085973  90.1631215  85.6769558  90.1157587  88.7505074
  98.5855534 103.1411773  92.2634755  99.1373842 103.3043394  93.0283840
  98.9261727 103.7316210  91.5914779  93.5620027  85.4886922  92.8656639
  93.6261353  86.3501753  92.4534037  93.4987147  84.8760924  92.1328998
  93.0372300  87.5610055  96.5129674  93.6644338  87.1787132  97.1267198
  92.1800218  87.3424257  96.8785366  89.8137842  89.3686484  82.4448028
  90.1091283  88.4597162  82.3915082  88.9125878  89.3474224  82.1229031
 101.7223921 101.0893748  89.2498437 101.5975061 100.2883488  88.7409382
 102.3803012 101.5839942  88.7612407  93.3432089  87.4442481  88.4275577
  92.6218675  88.0578448  88.2883050  94.1325345  87.9800245  88.3492223
 103.7858829  98.8902768  90.8777987 102.8389165  98.7708119  90.8056314
 104.1341603  98.0025266  90.9604248  96.1458403  84.7796907  94.7016229
  96.6692805  85.0259204  95.4642538  95.9270736  85.6116942  94.2819366
  91.5425684  87.0500582  82.5687354  91.2138390  86.1697961  82.3862459
  91.8965055  86.9948250  83.4563743 100.7905263  98.6855484  87.0782339
 100.6430225  97.7572192  87.2589909 101.6158756  98.7075575  86.5939414
  94.6567507  87.3373552  82.9362831  94.9963580  87.8659473  82.2141440
  95.1039628  87.6753958  83.7121398 104.3939385  99.5084043  88.1647212
 105.3185932  99.3026905  88.0271663 104.2254688  99.2600444  89.0736553
  97.3510948  85.7210602  92.3865899  97.0107768  84.9218415  92.7886579
  96.6449954  86.0212313  91.8142732  98.0027420  82.8059915  90.8393222
  98.8253489  82.3320393  90.7172113  98.2465483  83.5850398  91.3391909
  96.6435654  85.8348173  81.1356124  97.3644017  86.2129426  80.6319841
  96.0200958  86.5537050  81.2391102 100.7866777  86.5393322  82.0714456
 101.0030391  87.4217960  81.7703284 100.3060844  86.1479535  81.3420098
  95.5265998  89.4979035  88.6485201  95.3810579  89.8119338  89.5409482
  95.0491202  90.1163936  88.0956100  97.3862381  86.4881583  88.6966090
  97.3723950  85.5922677  88.3598388  98.1034809  86.4952247  89.3304376
  99.2388512  86.9218924  90.7419218  98.9806290  87.8435994  90.7403548
  98.7073552  86.5249358  91.4319682 104.1834701 100.0269711  83.5209303
 104.3571578  99.4616133  82.7683156 104.6763592 100.8270606  83.3388793
  90.0011661  92.0384380  91.5872862  89.4565129  92.8144188  91.7193136
  90.8791010  92.3855184  91.4291983  96.7899277  85.3695964  83.9653661
  96.9115188  84.4412610  84.1644548  96.5001320  85.3834650  83.0531976
  99.6590468  83.0550874  87.1020380  99.6812164  83.1190207  86.1472360
 100.0758527  82.2155383  87.2960887 110.0374092  92.7906134  85.1399603
 110.4805238  92.0413459  84.7418726 109.1600602  92.7816270  84.7573335
 105.1709873  99.3436475  80.6206202 105.8660778  99.9643168  80.8393516
 105.5133023  98.4931826  80.8958579  90.7877682  91.1654276  94.4803019
  90.0459418  91.3136911  95.0667649  90.4670427  91.4262542  93.6169768
 107.0701296  96.7936181  82.1493532 107.5952620  97.1323453  81.4242852
 106.9823649  95.8583196  81.9656667  98.7321345 100.7070254  94.2783409
  99.0408472 100.4619401  95.1506109  99.5296827 100.9116893  93.7902279
  98.7541957 102.8608164  86.5088785  98.3146947 102.3684543  87.2021642
  99.5050074 102.3181131  86.2680861  91.2334296  99.0519705  86.5113414
  92.0592316  98.7523477  86.1312057  90.8828348  98.2827327  86.9603202
  96.2015829  98.4046173  88.5811087  95.5795839  97.7416878  88.2813315
  96.8720696  98.4307305  87.8984735  89.4342901  96.9706031  87.4702347
  88.5974809  96.5428206  87.2886348  89.4066547  97.1638474  88.4073138
  96.2740357  86.8827961  98.1743593  96.3228512  87.7590084  97.7921363
  96.8162871  86.3405354  97.6015236 106.8793078  94.2761551  94.7677459
 106.9291082  94.1111558  95.7092982 106.7707001  93.4088810  94.3775340
  95.7629336  96.9550096  82.0569548  95.9117457  97.6385561  81.4036220
  96.5695780  96.9355186  82.5719003 104.1696840  90.2592479  96.0836766
 105.0706703  90.1198943  95.7920763 104.2444814  90.4246933  97.0234943
  98.5039645  87.6359333  94.9289952  97.6342955  87.9292899  94.6572540
  98.7399126  88.2199778  95.6497215 108.3811274  96.6958492  95.0119480
 108.0896083  97.0588473  95.8482941 107.7683406  95.9825500  94.8332812
 109.5806957  94.2611372  87.5322051 110.4153848  94.7001176  87.6959611
 109.7166085  93.7850025  86.7130296 106.6298463  91.8191107  93.4799538
 107.1052584  92.0118753  92.6718390 105.7064028  91.8750293  93.2342922
  93.5181969  92.9815274  83.0630617  93.2728011  92.0777604  83.2610827
  93.6877884  92.9832424  82.1210095 101.2078679  83.8538950  92.4455372
 101.7260623  84.5899977  92.1201861 100.8533812  84.1602944  93.2802131
  92.7877617  88.7143631  80.5616778  92.0946862  88.7887986  79.9056814
  92.5429369  87.9503975  81.0838295 101.4591273  80.2739233  87.9656269
 101.7393027  79.6062422  88.5916695 102.2441880  80.4668328  87.4530933
  99.2624742  99.4498227  79.5281295  98.6898709 100.0688414  79.0751767
  99.8357535  99.9997588  80.0621217 105.3300132  88.6956867  91.7127844
 106.2817554  88.7954964  91.7340068 105.1603582  87.9035135  92.2225928
 103.3514511  85.7812450  91.8987245 102.7564443  86.0617463  91.2033733
 103.0664208  86.2706351  92.6703986 102.4822002  99.7335377  80.6589877
 103.4152675  99.6680939  80.8622753 102.3945214 100.5691644  80.2004410
 105.1110018  99.0501247  77.6193825 105.0323650  98.7161111  78.5129583
 105.9319685  99.5423015  77.6185297 107.8088209  91.9162986  90.8270144
 107.7764529  90.9778987  91.0129827 108.4188833  91.9947023  90.0935968
  99.6471540  90.7859039  76.8697348 100.5930645  90.6565248  76.9385766
  99.2685785  90.0473701  77.3466776 107.9582698  88.7074030  90.8728427
 107.4421747  87.9232487  90.6858356 108.8422646  88.3792747  91.0374946
 105.6193425  82.4515045  86.8324239 105.4218246  82.1430134  87.7167571
 106.2293130  83.1776684  86.9622169 113.6264759  92.9778993  89.9676180
 114.3568148  92.7164281  90.5283884 113.0171705  92.2407715  90.0078248
 111.7080056  91.1186856  90.5650632 110.9813220  90.9842821  89.9567123
 111.2927343  91.4263685  91.3707350  99.5310233  94.8376786  98.3298005
 100.4513242  95.0155385  98.5238051  99.4959816  93.8932831  98.1777704
  97.8314457  88.7109016  76.8052233  96.9245913  88.4142129  76.8814946
  98.1090438  88.4138834  75.9386519  88.7492398  90.0315379  87.2551279
  88.4295182  89.1780687  86.9625653  88.2025826  90.2463957  88.0109247
  92.5272305  92.7477820  90.9720786  92.7458315  93.6794928  90.9908820
  92.9398079  92.3885795  91.7575590  99.4476523  83.2545906  82.9596474
  98.6377251  82.9092991  83.3351720 100.1360940  82.9453449  83.5484086
 101.3767071  82.3323952  84.5820771 101.9298110  82.7519406  85.2410794
 101.6137158  81.4059700  84.6243727  97.4000171  88.3211026 100.3623535
  97.2996898  89.2705383 100.2935626  97.1821713  87.9929265  99.4899605
  96.6013242  85.5695951  76.9464212  97.4632406  85.8950849  77.2060029
  96.7863586  84.7827447  76.4337278  88.6180658  93.6518291  89.2244401
  87.9244129  93.2372244  88.7114355  89.3653649  93.6938827  88.6277820
 104.7545878  84.4424478  84.0899435 104.1744548  85.1009282  83.7077487
 104.4881811  83.6201822  83.6786853 103.2049445  83.8429535  86.2920755
 103.7049223  83.9546070  85.4835074 103.8485053  83.5390588  86.9321564
  97.2631441  91.7508165  99.1788596  96.7798522  92.5508525  99.3852485
  97.3492380  91.7616110  98.2256040  90.5317400  93.5836545  87.1010416
  90.5088088  93.6824232  86.1492299  90.8418037  94.4301695  87.4227582
  93.1904778  95.6412700  91.2157030  94.1448032  95.6096642  91.1486962
  92.9917302  95.1803323  92.0307256  93.7804160  94.2113816  93.7827828
  94.5997049  94.7057894  93.8062665  94.0540968  93.2945784  93.7545395
 103.5370757  86.6024568  83.1455783 102.6496612  86.8874219  82.9275978
 103.9524746  86.4418331  82.2983060 106.8885293  86.6271089  86.8610123
 107.6645683  87.1167541  87.1334739 106.1633427  87.0529143  87.3181992
 109.3257851  87.3398708  87.9184063 109.9202342  87.0994444  87.2077371
 109.3984435  86.6205839  88.5457599  91.5455007 101.1832319  88.2327228
  91.4109475 100.4232720  87.6665226  91.1287069 101.9073219  87.7656017
 102.6813970  96.3669243  77.2403803 103.3849820  96.5719245  77.8561459
 101.9576619  96.9346004  77.5052887 103.5111780  92.1179104  83.3606073
 103.4546982  92.5747655  82.5213706 104.0640123  91.3569788  83.1828916
 107.3216586  87.9068836  84.1856193 107.0653520  87.5065471  85.0164401
 106.6969454  88.6212630  84.0606332 111.6328924  90.6464909  86.6927484
 111.0728482  90.7158098  87.4659046 111.0272427  90.4705894  85.9726981
  94.7024133 102.0801636  88.4445671  94.5856517 103.0247069  88.3424361
  93.8816579 101.7775198  88.8331470 104.5900667  96.8051772  79.2902263
 105.4246271  96.3732970  79.1079738 104.4285010  96.6333785  80.2179158
 104.2446560  93.3083885  80.6558603 104.1895363  93.1428157  79.7147047
 103.6192615  94.0159918  80.8120792  89.0339075  88.5451949  94.4820025
  89.6797938  88.0350903  94.9707250  88.8256226  89.2820631  95.0563450
  97.5542685  82.8091994  80.2343921  97.5421355  83.7533834  80.3912192
  98.4466107  82.6262140  79.9403382  95.7278647 102.7329898  91.6601599
  96.6305894 102.7653508  91.9768094  95.5016017 101.8030349  91.6747935
  97.4832249 101.4860885  88.3211678  96.5327880 101.4862746  88.2076050
  97.7864735 100.7393619  87.8047712 101.3694804  79.4034771  84.4889858
 100.6027200  78.8493257  84.6346540 101.7805509  79.4756639  85.3504009
  93.3736566  85.6919567  98.5795039  94.2368027  85.3356371  98.7898364
  92.8001976  85.3533461  99.2670443 110.0274649 107.2748851  89.3218965
 109.6893160 107.1589916  88.4339500 110.8964417 106.8740016  89.3019971
 105.8861464 109.1284327  85.3115856 105.3226330 109.0374264  84.5432143
 105.7713859 108.3084232  85.7918348 103.4325896 110.6235519  88.1500076
 104.2247188 110.2826344  87.7346375 103.6722547 110.7330494  89.0702229
 105.3916650 109.8844432  81.0217455 106.1647526 109.3373419  80.8830331
 105.7442049 110.7488682  81.2331916 107.7282928 106.0437098  78.6535905
 107.9808449 105.5218620  77.8919368 106.7907487 105.8803244  78.7562588
 112.7726211 105.0472877  86.4610648 113.5589300 104.6292300  86.1101065
 113.0364915 105.9518969  86.6292297 112.9436288 110.4845727  81.1599305
 112.3082121 110.5580354  81.8720210 112.6133695 111.0739326  80.4818384
 118.1734638 104.9848110  87.3643627 118.9059810 104.4147327  87.5981456
 117.4173994 104.5969710  87.8050132 107.4479217 107.9465204  80.8560280
 107.3315475 107.2710108  81.5241364 107.5581477 107.4597578  80.0392433
 109.7910758 107.4075351  84.5606969 109.4268965 106.8805972  85.2719891
 110.6477874 107.0173820  84.3873454 115.6960058  98.6969684  91.8238235
 115.3643383  99.5665095  91.5999450 115.1005672  98.3805968  92.5032266
 109.4316245 102.4365251  79.5568318 109.5990647 103.3045488  79.9238789
 109.2413414 102.5992533  78.6329607 105.6404059 107.3496027  87.2570852
 104.7154556 107.2172241  87.4648544 105.8888473 108.1290246  87.7540795
 109.4105466 104.8922909  80.5414984 109.2905091 105.3379959  81.3800465
 108.7158054 105.2408226  79.9828523 103.0012870 106.9929300  88.0914641
 103.1305252 107.2463779  89.0054053 102.3210322 107.5857008  87.7719297
 115.1090532 105.3644382  81.3695318 116.0208388 105.5971769  81.1943016
 114.6000179 105.9481426  80.8070397 112.4526507 101.5402418  89.6185179
 111.5910986 101.8383671  89.9101917 112.4788941 101.7572817  88.6866212
 109.2688076 110.0844608  86.0258985 109.7326422 110.3632311  85.2363608
 109.0044874 109.1828053  85.8432076 106.1612157 109.6316090  88.9638748
 106.7313514 110.0603358  88.3256233 106.7520269 109.3498675  89.6622934
 108.2056962 106.2067761  82.8348550 108.9081005 106.6588804  83.3022477
 107.8737591 105.5651580  83.4628443 101.9482296 104.4651313  88.1365684
 101.1581350 104.7208842  87.6605794 102.4393543 105.2799651  88.2417724
 103.8997041 104.8295893  85.0949160 103.1028205 104.9414587  85.6132656
 103.6722634 105.1682545  84.2290051 100.2319999 104.7181804  90.5680675
 100.4828037 105.6028814  90.8338250 100.7679547 104.5386405  89.7955766
 109.4450727 113.0208703  82.9110655 109.3096401 113.8660239  83.3395503
 109.9860539 113.2227981  82.1476589 102.8980124 110.5384141  83.4838580
 103.4104645 111.3327392  83.6344145 103.5502837 109.8410432  83.4172182
 104.7075009 113.6549898  85.5661334 104.8841637 114.5767862  85.3782318
 105.5031842 113.3408317  85.9955713 112.7943190  96.5439265  91.4409549
 112.4507460  97.4340907  91.3648659 113.1622153  96.3540923  90.5779134
 100.8629041 108.8672796  84.2598151 101.7004263 109.2769804  84.0431859
 101.0407309 107.9272238  84.2298345 112.7593473 106.5347876  79.9481984
 112.2440096 107.3052481  80.1870371 112.4870781 105.8613012  80.5715045
 110.3440584 101.3797577  85.0067222 109.4882180 100.9904428  84.8272861
 110.7567536 101.4589538  84.1467008 111.8739731  98.9143920  89.4058782
 111.3704526  98.8774056  88.5926587 112.1670338  99.8236663  89.4655439
 108.1182617  98.9982650  88.4124964 108.9835613  98.8025459  88.0530853
 108.1860125  98.7693002  89.3394321 112.5479776 104.4074968  81.7741765
 112.2429912 104.7221118  82.6251908 113.5010218 104.4856388  81.8169098
 110.9926208 110.5665192  83.4234719 110.4647570 109.8317951  83.1107957
 110.4913711 111.3439868  83.1774687 105.7244936 101.2284858  85.7841331
 106.2988688 101.0060040  85.0514524 106.3115918 101.2973553  86.5369932
 114.7824513 107.1158585  86.5905707 115.2956395 107.7488577  87.0927417
 115.4325737 106.5159780  86.2249067 106.0514523 103.2589319  79.8037216
 105.2151835 103.5964006  80.1246491 105.9119292 103.1238299  78.8664353
 108.0267603  98.1026107  84.5116400 107.3732016  97.7875124  83.8873015
 107.9848077  97.4801847  85.2376223 109.1378808 108.3845402  76.4269692
 108.2305870 108.1534655  76.6260841 109.6349840 107.5883021  76.6143674
 111.2605344 104.5908040  88.8364048 110.3427905 104.8122987  88.6785736
 111.6765487 104.6654351  87.9775755 112.0440391 105.9899456  83.9666728
 112.7912210 106.5020853  83.6573850 112.3131981 105.6683509  84.8271122
 110.3167042 108.4857997  80.9493682 109.4078261 108.2017030  81.0466152
 110.3462125 108.9057075  80.0896989 114.4919229 103.0256572  85.9485517
 113.7541985 102.5133959  86.2795760 114.7446002 102.5856954  85.1368794
 114.5930856  95.8032824  86.5427287 114.8989733  94.9430188  86.2553202
 115.3183461  96.3950445  86.3426280 100.8855212 106.2063511  84.9308884
 100.6879612 105.6132872  84.2059951 100.3301876 105.9015721  85.6484823
 108.8651936 106.0986617  87.0503478 108.9200545 105.1460454  86.9745954
 108.0543138 106.2546057  87.5344776 110.0143129 110.0266741  78.2881761
 109.5762559 109.3102599  77.8287398 110.7553570 110.2542855  77.7266852
 106.8044296 104.7163677  84.8093856 105.9912161 105.0157848  85.2159049
 107.3003290 104.3219366  85.5268339 106.2958370 102.2882033  90.4255091
 106.9357750 102.1470792  89.7278055 105.4635901 102.0016546  90.0493693
 107.0718674 111.5884463  86.5390084 107.8659273 111.0934783  86.3372659
 106.3610367 111.0602326  86.1757789 103.3801438 105.7327545  82.6149837
 102.4499026 105.6712000  82.8319799 103.4758910 105.2103498  81.8186478
 103.2986987 102.2582358  85.2028078 103.5593804 103.1727691  85.0937239
 104.1204159 101.7906800  85.3524691 104.7711912 103.6720115  92.3726903
 105.4434966 103.4637477  91.7239552 103.9441699 103.4742201  91.9332135
 114.1354357 108.8851122  77.8813818 113.5183528 108.1597950  77.7846871
 113.6670845 109.6460482  77.5380893 105.9252903 103.1036547  77.0035123
 105.0482369 102.9825347  76.6397369 106.4010656 102.3122625  76.7514011
  97.4455043 107.8913706  87.0976630  98.1326083 107.5775436  86.5097645
  97.2903172 108.7955071  86.8243881 102.2489765 102.7803903  91.5261654
 102.1647954 102.1729572  90.7912063 101.4272472 103.2712921  91.5271150
 112.4213479 101.2657466  86.8931849 112.9182179 100.5127429  86.5732919
 111.6500461 101.3021783  86.3275058 113.5043260 110.0229154  84.4670272
 112.5699539 110.1430616  84.2974976 113.6819928 109.1201620  84.2030282
 109.0048448 103.4074849  86.6203533 108.6346235 102.8545890  87.3084439
 109.5007540 102.8032983  86.0678533 116.8915811 105.8646473  85.0020306
 117.3576263 106.6974464  84.9280609 117.3423312 105.3991454  85.7065565
 114.8632474  98.2327060  89.0411207 113.9495554  98.4631287  89.2093414
 115.2925575  98.3165504  89.8925240  97.0223019 105.9714300  89.3694097
  97.0607119 105.4377890  90.1631215  96.5163312 105.4449505  88.7505074
 104.4013781 100.8178840  92.8656639 104.4655108 101.6793671  92.4534037
 104.3380902 100.2052842  92.1328998 100.6531597 104.6978402  82.4448028
 100.9485038 103.7889080  82.3915082  99.7519633 104.6766141  82.1229031
 104.1825844 102.7734398  88.4275577 103.4612430 103.3870366  88.2883050
 104.9719100 103.3092163  88.3492223 102.3819438 102.3792499  82.5687354
 102.0532145 101.4989878  82.3862459 102.7358809 102.3240168  83.4563743
 105.4961262 102.6665469  82.9362831 105.8357334 103.1951390  82.2141440
 105.9433382 103.0045875  83.7121398 108.1904702 101.0502520  92.3865899
 107.8501523 100.2510333  92.7886579 107.4843709 101.3504231  91.8142732
 108.8421174  98.1351832  90.8393222 109.6647243  97.6612311  90.7172113
 109.0859238  98.9142316  91.3391909 107.4829409 101.1640091  81.1356124
 108.2037771 101.5421344  80.6319841 106.8594713 101.8828968  81.2391102
 111.6260532 101.8685240  82.0714456 111.8424146 102.7509878  81.7703284
 111.1454599 101.4771453  81.3420098 106.3659753 104.8270953  88.6485201
 106.2204334 105.1411256  89.5409482 105.8884957 105.4455853  88.0956100
 108.2256136 101.8173501  88.6966090 108.2117705 100.9214594  88.3598388
 108.9428564 101.8244165  89.3304376 110.0782267 102.2510841  90.7419218
 109.8200044 103.1727912  90.7403548 109.5467307 101.8541276  91.4319682
 100.8405415 107.3676297  91.5872862 100.2958883 108.1436105  91.7193136
 101.7184765 107.7147102  91.4291983 107.6293032 100.6987881  83.9653661
 107.7508943  99.7704527  84.1644548 107.3395074 100.7126567  83.0531976
 110.4984222  98.3842792  87.1020380 110.5205919  98.4482125  86.1472360
 110.9152281  97.5447300  87.2960887 102.0728051 114.3811622  86.5113414
 102.8986071 114.0815394  86.1312057 101.7222103 113.6119245  86.9603202
 100.2736656 112.2997949  87.4702347  99.4368564 111.8720123  87.2886348
 100.2460301 112.4930392  88.4073138 106.6023091 112.2842014  82.0569548
 106.7511211 112.9677478  81.4036220 107.4089534 112.2647104  82.5719003
 104.3575724 108.3107192  83.0630617 104.1121766 107.4069522  83.2610827
 104.5271638 108.3124342  82.1210095 112.0472434  99.1830868  92.4455372
 112.5654377  99.9191895  92.1201861 111.6927566  99.4894861  93.2802131
 103.6271371 104.0435549  80.5616778 102.9340616 104.1179904  79.9056814
 103.3823123 103.2795893  81.0838295 112.2985028  95.6031150  87.9656269
 112.5786782  94.9354340  88.5916695 113.0835635  95.7960246  87.4530933
 110.4865295 106.1150957  76.8697348 111.4324399 105.9857165  76.9385766
 110.1079540 105.3765619  77.3466776 116.4587179  97.7806963  86.8324239
 116.2612000  97.4722051  87.7167571 117.0686885  98.5068602  86.9622169
 108.6708212 104.0400934  76.8052233 107.7639667 103.7434046  76.8814946
 108.9484193 103.7430752  75.9386519  99.5886152 105.3607297  87.2551279
  99.2688937 104.5072605  86.9625653  99.0419580 105.5755875  88.0109247
 103.3666060 108.0769738  90.9720786 103.5852070 109.0086846  90.9908820
 103.7791834 107.7177712  91.7575590 110.2870278  98.5837823  82.9596474
 109.4771006  98.2384908  83.3351720 110.9754695  98.2745367  83.5484086
 112.2160826  97.6615870  84.5820771 112.7691865  98.0811323  85.2410794
 112.4530912  96.7351618  84.6243727 107.4406997 100.8987869  76.9464212
 108.3026161 101.2242767  77.2060029 107.6257341 100.1119365  76.4337278
  99.4574412 108.9810208  89.2244401  98.7637884 108.5664161  88.7114355
 100.2047403 109.0230745  88.6277820 115.5939633  99.7716395  84.0899435
 115.0138302 100.4301199  83.7077487 115.3275566  98.9493740  83.6786853
 114.0443199  99.1721453  86.2920755 114.5442978  99.2837987  85.4835074
 114.6878807  98.8682506  86.9321564 101.3711155 108.9128462  87.1010416
 101.3481843 109.0116149  86.1492299 101.6811791 109.7593613  87.4227582
 114.3764511 101.9316486  83.1455783 113.4890366 102.2166136  82.9275978
 114.7918500 101.7710249  82.2983060 117.7279047 101.9563007  86.8610123
 118.5039437 102.4459459  87.1334739 117.0027181 102.3821061  87.3181992
 120.1651606 102.6690626  87.9184063 120.7596097 102.4286362  87.2077371
 120.2378189 101.9497756  88.5457599 114.3505535 107.4471022  83.3606073
 114.2940736 107.9039573  82.5213706 114.9033877 106.6861706  83.1828916
 118.1610341 103.2360753  84.1856193 117.9047275 102.8357389  85.0164401
 117.5363209 103.9504547  84.0606332 115.0840314 108.6375803  80.6558603
 115.0289118 108.4720074  79.7147047 114.4586369 109.3451836  80.8120792
  99.8732829 103.8743867  94.4820025 100.5191693 103.3642821  94.9707250
  99.6649980 104.6112549  95.0563450 108.3936440  98.1383912  80.2343921
 108.3815109  99.0825752  80.3912192 109.2859861  97.9554057  79.9403382
 112.2088559  94.7326688  84.4889858 111.4420955  94.1785175  84.6346540
 112.6199264  94.8048557  85.3504009  44.9912123  -7.6940532  76.0464271
  44.6530635  -7.8099468  75.1584806  45.8601891  -8.0949367  76.0265278
  40.8498939  -5.8405056  72.0361162  40.2863804  -5.9315119  71.2677450
  40.7351334  -6.6605152  72.5163655  45.4731906  -6.5405681  82.0050477
  45.4620547  -6.9352882  81.1330981  45.6352546  -7.2739608  82.5984248
  38.3963371  -4.3453864  74.8745383  39.1884663  -4.6863040  74.4591682
  38.6360021  -4.2358889  75.7947536  46.4298497  -2.1734088  67.3475627
  45.7786477  -1.5880008  66.9609641  47.2242860  -1.6427893  67.4070665
  40.3554125  -5.0844951  67.7462762  41.1285001  -5.6315964  67.6075637
  40.7079524  -4.2200702  67.9577223  42.1939167  -3.7568569  80.9529661
  41.9029033  -2.8522938  80.8376327  42.8296152  -3.7152041  81.6673730
  43.1195374  -6.3791720  77.5431021  43.7158946  -6.6035698  76.8287984
  43.1770346  -7.1206975  78.1456468  42.6920402  -8.9252285  65.3781212
  42.9445923  -9.4470764  64.6164675  41.7544962  -9.0886140  65.4807895
  47.9073763  -4.4843656  67.8844612  47.2719596  -4.4109030  68.5965516
  47.5771169  -3.8950058  67.2063691  42.4116691  -7.0224179  67.5805586
  42.2952949  -7.6979276  68.2486671  42.5218951  -7.5091805  66.7637740
  44.7548232  -7.5614032  71.2852276  44.3906439  -8.0883411  71.9965197
  45.6115348  -7.9515563  71.1118761  47.1529052  -4.0707153  77.9479455
  46.8529775  -3.1682115  77.8395262  46.8080112  -4.3374970  78.8000607
  40.6041534  -7.6193357  73.9816159  39.6792030  -7.7517142  74.1893851
  40.8525947  -6.8399137  74.4786101  37.9650345  -7.9760083  74.8159948
  38.0942726  -7.7225604  75.7299360  37.2847796  -7.3832375  74.4964603
  42.1349832   2.6937167  70.9150422  42.0573862   3.6444992  70.9938903
  41.5311476   2.3483039  71.5725349  42.8813434  -7.3249514  83.1329756
  43.6228119  -6.7864470  82.8564580  42.1750420  -6.6983226  83.2901308
  48.3568774  -5.1820374  81.7301918  48.7652130  -5.6237963  80.9856550
  47.6346035  -5.7567746  81.9836111  48.6797588  -4.6219183  75.4854207
  48.0506451  -4.4573469  74.7830274  48.2923251  -4.2077574  76.2565171
  52.5586820  -3.6864745  72.8398570  51.8737858  -3.3065844  72.2895604
  52.6430670  -3.0769419  73.5730518  49.8137752  -6.0404786  79.4393914
  50.0254647  -5.3973026  78.7628295  49.7667500  -6.8742470  78.9715844
  44.2325550  -4.8844775  72.7504292  44.6963896  -4.6057072  71.9608914
  43.9682348  -5.7861331  72.5677382  41.1249631  -5.3373294  75.6884055
  41.6950988  -4.9086025  75.0501539  41.7157743  -5.6190709  76.3868241
  43.1694436  -8.7621623  69.5593857  43.8718480  -8.3100579  70.0267783
  42.8375065  -9.4037804  70.1873750  41.6174798 -10.1709866  83.9345066
  40.9873458  -9.4893585  84.1680463  41.5110886 -10.2826785  82.9898204
  50.9283580  -3.1632831  77.6116271  51.7501024  -3.5652644  77.3298953
  50.9245983  -3.2664597  78.5632387  44.6940183  -3.6148788  79.7676982
  44.7584616  -3.1528380  80.6035154  43.9851107  -4.2451423  79.8959292
  44.4088201  -1.9480680  69.6355962  44.2733876  -1.1029144  70.0640810
  44.9498014  -1.7461402  68.8721896  37.8617598  -4.4305242  70.2083887
  38.3742119  -3.6361992  70.3589452  38.5140311  -5.1278952  70.1417489
  39.6712483  -1.3139486  72.2906640  39.8479111  -0.3921521  72.1027624
  40.4669317  -1.6281067  72.7201020  46.0356677  -1.3257114  83.7656304
  45.5920532  -2.1120735  83.4477209  46.6973891  -1.1377963  83.1000195
  40.7943799   0.2038688  78.2916983  41.3451224   0.0755751  77.5193977
  39.9555274   0.5033577  77.9411875  48.1337915  -1.0454314  81.7937705
  48.1156391  -0.2245433  81.3017975  49.0557835  -1.1700238  82.0187847
  44.5910970  -3.5310184  82.6361214  45.1239306  -4.2921896  82.4060522
  44.0625051  -3.8236532  83.3785368  52.6965221  -5.6809152  68.6080464
  51.9194664  -6.0197993  68.1635626  53.3756702  -5.6756529  67.9335429
  45.9563682  -4.4024192  70.1480026  45.4285044  -5.1371432  69.8353263
  45.4551185  -3.6249515  69.9019994  50.9356528  -6.2075171  75.2647072
  50.2780203  -5.5175910  75.3527201  51.7396928  -5.8178739  75.6081058
  44.1016282  -6.5843981  63.1514999  43.1943344  -6.8154728  63.3506148
  44.5987314  -7.3806362  63.3388980  47.0084361   2.1253526  66.0711685
  46.3346060   2.4285222  66.6796643  47.3950183   2.9282606  65.7217142
  45.2804516  -6.4831387  67.6738989  44.3715735  -6.7672354  67.7711459
  45.3099600  -6.0632308  66.8142296  50.5123783  -2.8724797  71.4430156
  50.0586110  -3.7133887  71.4995347  49.8817750  -2.2363399  71.7804937
  48.9556723  -1.0348300  72.3779975  49.2479697  -0.4743243  71.6592340
  49.4655343  -0.7419739  73.1333134  44.9780604  -4.9422643  65.0127067
  44.5400034  -5.6586784  64.5532705  45.7191045  -4.7146528  64.4512159
  43.9190348  -0.2567949  73.4673428  43.8766527  -0.0307103  72.5381960
  44.8353047  -0.4904575  73.6159229  53.1223098  -4.5988919  76.0814658
  53.5559605  -4.6913630  76.9297712  53.8354679  -4.6231418  75.4434674
  42.0356149  -3.3804920  73.2635391  42.8296747  -3.8754600  73.0617965
  41.3247841  -3.9087057  72.9003096  46.8550993  -0.9986825  77.6147758
  46.9088015  -0.4295888  78.3825474  45.9865774  -0.8284940  77.2501795
  53.9838648  -4.5565218  78.6147543  54.1774538  -3.6519408  78.8606818
  53.8839266  -5.0157799  79.4486128  49.0453756  -4.4058475  84.1888424
  48.8939263  -4.6347924  83.2718507  49.0358436  -3.4487874  84.2019769
  45.8139093  -6.8326563  79.1734690  46.7431153  -6.6815403  79.0003657
  45.3930123  -6.7442542  78.3183337  44.6127425  -2.8075898  76.9433228
  44.4738510  -3.1757114  77.8159166  43.8242021  -2.2928259  76.7717185
  45.2075577   2.2933198  68.2858764  45.3827332   1.8221241  69.1004387
  44.5208365   2.9198964  68.5140025  46.1632640  -3.4294296  74.3322065
  45.8282472  -3.4693526  75.2279715  45.6636585  -4.0949580  73.8592476
  40.1376884  -8.0226666  79.8574647  39.9996682  -8.7546427  80.4586186
  41.0481807  -8.1117765  79.5758834  49.0991831  -6.0838261  64.6059125
  48.4821002  -6.8091433  64.5092178  48.6308320  -5.3228901  64.2626199
  42.7659184  -8.3106706  79.3458326  43.4758803  -8.9513514  79.3044945
  42.7228492  -8.0593811  80.2684507  50.7545963  -1.3739353  82.2664905
  50.6958509  -2.0580133  81.5995488  51.1565481  -0.6320363  81.8145531
  39.7736662   5.4422561  75.0598624  40.0133260   6.0741085  75.7377643
  38.9305858   5.0910601  75.3463984  50.7563370  -3.4099769  80.4978885
  49.8690149  -3.7473847  80.6205284  51.3261921  -4.1416738  80.7347650
  44.2864524   1.2501683  77.4640128  44.2134695   2.0556655  77.9759433
  43.8441917   1.4493649  76.6388150  44.0754303   0.4873453  70.9742950
  43.2921825   1.0295134  71.0681174  44.7747048   1.0047433  71.3737191
  46.7463207   1.1488517  79.6198287  47.4591179   1.7835982  79.5474188
  46.2553236   1.2452383  78.8038289  48.4680734  -4.9460230  71.1915579
  47.5337013  -4.8258767  71.0220283  48.6457403  -5.8487763  70.9275588
  41.7975121  -1.1017039  80.4403858  42.4984580  -0.4680556  80.5933252
  41.3270236  -0.7602308  79.6799497  49.9229517  -2.7599089  68.7251765
  50.1989360  -2.8742495  69.6345639  49.0534015  -3.1581604  68.6863938
  46.5583581   1.4887261  72.3684578  46.7405975   0.6708917  72.8312331
  47.3816567   1.7054954  71.9309468  46.8925746   0.4155447  69.6299627
  47.4213512  -0.0952099  69.0169789  47.1553966   0.0997977  70.4945160
  45.6463980  -7.8052621  84.7522445  44.9704617  -7.9058491  85.4224820
  46.4691614  -7.9613407  85.2158442  37.3942839  -1.5680684  77.3734960
  37.9796276  -2.3136996  77.5062865  37.1967677  -1.2576727  78.2571624
  40.2481494   1.4670563  72.3897403  39.5791869   1.9516691  71.9061443
  40.1094364   1.7139784  73.3040781  44.3886763   3.5014307  78.9880061
  44.9405071   3.6645928  79.7529146  44.7292956   4.0918745  78.3160086
  49.2397637  -1.6724436  84.8428716  49.7837541  -1.0594477  84.3483670
  48.6584482  -1.1144857  85.3595729  47.5255150   1.4496282  75.9743743
  47.4006289   0.6486022  75.4654689  48.1834241   1.9442476  75.4857713
  49.5890058  -0.7494698  77.6023293  48.6420394  -0.8689346  77.5301620
  49.9372831  -1.6372200  77.6849555  46.5936492  -0.9541981  73.8027646
  46.4461454  -1.8825274  73.9835216  47.4189985  -0.9321891  73.3184721
  50.1970613  -0.1313423  74.8892518  51.1217161  -0.3370561  74.7516970
  50.0285917  -0.3797021  75.7981860  41.3297227 -10.1418430  75.3730508
  41.1841808  -9.8278127  76.2654789  40.8522431  -9.5233530  74.8201406
  49.9865930   0.3872245  70.2454610  50.1602807  -0.1781333  69.4928462
  50.4794821   1.1873140  70.0634100  50.9741102  -0.2960991  67.3451508
  51.6692007   0.3245702  67.5638823  51.3164252  -1.1465640  67.6203886
  52.8732525  -2.8461285  68.8738839  53.3983849  -2.5074012  68.1488159
  52.7854878  -3.7814270  68.6901974  44.5352574   1.0672788  81.0028716
  44.8439700   0.8221935  81.8751415  45.3328056   1.2719427  80.5147586
  44.5573186   3.2210698  73.2334092  44.1178176   2.7287077  73.9266949
  45.3081303   2.6783666  72.9926167  37.0365525  -0.5877761  73.2358720
  37.8623545  -0.8873989  72.8557364  36.6859577  -1.3570139  73.6848509
  42.0047058  -1.2351293  75.3056394  41.3827067  -1.8980588  75.0058622
  42.6751925  -1.2090161  74.6230042  35.2374130  -2.6691435  74.1947654
  34.4006038  -3.0969260  74.0131655  35.2097775  -2.4758991  75.1318445
  52.5626431  -2.2128382  84.1790037  51.7721975  -2.2304243  83.6394536
  52.3259786  -1.6740088  84.9339073  52.6824306  -5.3635915  81.4922765
  52.7322311  -5.5285908  82.4338288  52.5738230  -6.2308656  81.1020646
  41.5660565  -2.6847370  68.7814854  41.7148685  -2.0011905  68.1281527
  42.3727008  -2.7042279  69.2964310  54.1842503  -2.9438974  81.7364787
  53.8927311  -2.5808993  82.5728248  53.5714634  -3.6571965  81.5578119
  39.3213198  -6.6582192  69.7875923  39.0759240  -7.5619862  69.9856133
  39.4909113  -6.6565041  68.8455401  45.0655971  -0.1899239  66.2526602
  44.4929938   0.4290948  65.7997074  45.6388764   0.3600123  66.7866524
  48.2853230   0.0937911  67.3835184  49.2183903   0.0283473  67.5868060
  48.1976443   0.9294178  66.9249717  50.9141247  -0.5896219  64.3439132
  50.8354879  -0.9236355  65.2374890  51.7350914  -0.0974451  64.3430604
  45.3341462  -4.8020680  85.0543311  46.2544471  -4.6242081  85.2483358
  45.2991045  -5.7464635  84.9023010  38.3303534  -6.8919646  77.6966092
  38.5489544  -5.9602538  77.7154126  38.7429308  -7.2511671  78.4820896
  43.0662669  -7.8889301  85.9033903  42.5829751  -7.0888941  86.1097792
  43.1523609  -7.8781356  84.9501347  36.3348629  -6.0560921  73.8255722
  36.3119317  -5.9573234  72.8737605  36.6449266  -5.2095770  74.1472888
  38.9936007  -3.9984766  77.9402337  39.9479261  -4.0300824  77.8732268
  38.7948531  -4.4594142  78.7552563  39.5835389  -5.4283650  80.5073134
  40.4028278  -4.9339572  80.5307972  39.8572197  -6.3451682  80.4790702
  37.3486236   1.5434853  74.9572535  37.2140704   0.7835254  74.3910533
  36.9318298   2.2675753  74.4901324  48.4845199  -3.2728223  63.9649110
  49.1881049  -3.0678221  64.5806766  47.7607848  -2.7051461  64.2298193
  40.5055362   2.4404170  75.1690977  40.3887746   3.3849603  75.0669668
  39.6847808   2.1377732  75.5576776  50.3931896  -2.8345694  66.0147570
  51.2277500  -3.2664496  65.8325045  50.2316239  -3.0063680  66.9424464
  50.0477788  -6.3313581  67.3803909  49.9926592  -6.4969309  66.4392353
  49.4223844  -5.6237548  67.5366099  47.3623696  -4.0264669  86.7057472
  48.2314855  -3.8524017  86.3444107  46.8830447  -3.2070252  86.5833201
  41.5309876   3.0932432  78.3846906  42.4337122   3.1256042  78.7013401
  41.3047246   2.1632883  78.3993241  43.2863478   1.8463419  75.0456984
  42.3359109   1.8465280  74.9321357  43.5895964   1.0996153  74.5293019
  59.0216171   7.6823957  76.1102747  59.6594581   7.5630704  75.4066087
  58.9037014   8.6304801  76.1690699  55.8305878   7.6351385  76.0464271
  55.4924389   7.5192450  75.1584806  56.6995646   7.2342550  76.0265278
  51.6892693   9.4886862  72.0361162  51.1257558   9.3976799  71.2677450
  51.5745088   8.6686766  72.5163655  56.3125661   8.7886237  82.0050477
  56.3014301   8.3939035  81.1330981  56.4746300   8.0552310  82.5984248
  49.2357125  10.9838053  74.8745383  50.0278417  10.6428878  74.4591682
  49.4753775  11.0933028  75.7947536  57.2692252  13.1557829  67.3475627
  56.6180232  13.7411910  66.9609641  58.0636615  13.6864024  67.4070665
  51.1947879  10.2446966  67.7462762  51.9678755   9.6975954  67.6075637
  51.5473278  11.1091216  67.9577223  53.0332922  11.5723349  80.9529661
  52.7422788  12.4768980  80.8376327  53.6689906  11.6139876  81.6673730
  53.9589129   8.9500197  77.5431021  54.5552701   8.7256220  76.8287984
  54.0164100   8.2084943  78.1456468  53.5314157   6.4039633  65.3781212
  53.7839678   5.8821154  64.6164675  52.5938716   6.2405778  65.4807895
  58.5757440   5.4075411  73.1855955  59.3620529   4.9894834  72.8346372
  58.8396144   6.3121503  73.3537603  58.7467517  10.8448261  67.8844612
  58.1113350  10.9182888  68.5965516  58.4164924  11.4341860  67.2063691
  63.9765867   5.3450644  74.0888933  64.7091039   4.7749861  74.3226763
  63.2205223   4.9572245  74.5295439  53.2510446   8.3067739  67.5805586
  53.1346704   7.6312642  68.2486671  53.3612706   7.8200112  66.7637740
  55.5941987   7.7677886  71.2852276  55.2300194   7.2408507  71.9965197
  56.4509103   7.3776355  71.1118761  61.4991287  -0.9427782  78.5483542
  61.1674612  -0.0732371  78.3244757  60.9036901  -1.2591498  79.2277572
  55.2347474   2.7967785  66.2813624  55.4021876   3.6648022  66.6484095
  55.0444643   2.9595067  65.3574913  57.9922807  11.2584764  77.9479455
  57.6923530  12.1609803  77.8395262  57.6473866  10.9916947  78.8000607
  51.4435288   7.7098561  73.9816159  50.5185785   7.5774775  74.1893851
  51.6919701   8.4892780  74.4786101  61.3919951   3.7767304  75.6276892
  60.4836828   3.7082713  75.3335653  61.3407546   4.2539249  76.4558717
  55.2136694   5.2525443  67.2660291  55.0936320   5.6982494  68.1045771
  54.5189283   5.6010761  66.7073829  48.8044099   7.3531835  74.8159948
  48.9336480   7.6066314  75.7299360  48.1241551   7.9459543  74.4964603
  52.9743587  18.0229085  70.9150422  52.8967616  18.9736910  70.9938903
  52.3705230  17.6774957  71.5725349  55.4660816   5.1956950  83.5711789
  54.6894150   5.7550870  83.5614654  56.1051379   5.6813733  84.0926659
  63.2581597   1.9783743  77.4054766  62.6155977   2.2716276  76.7594560
  62.7536525   1.8636663  78.2107963  60.9121761   5.7246916  68.0940625
  61.8239617   5.9574303  67.9188323  60.4031408   6.3083960  67.5315704
  53.7207189   8.0042403  83.1329756  54.4621873   8.5427447  82.8564580
  53.0144174   8.6308692  83.2901308  59.1962528  10.1471544  81.7301918
  59.6045884   9.7053954  80.9856550  58.4739790   9.5724171  81.9836111
  55.5493598   5.0844151  79.1035475  56.3954794   5.5083564  79.2470124
  55.4892236   4.4277775  79.7974038  59.5191343  10.7072734  75.4854207
  58.8900205  10.8718449  74.7830274  59.1317005  11.1214344  76.2565171
  63.3980575  11.6427172  72.8398570  62.7131613  12.0226074  72.2895604
  63.4824424  12.2522499  73.5730518  58.6993044   2.7448519  80.7616648
  58.4553976   3.4990580  80.2250924  58.9752974   3.1233867  81.5963895
  60.6531506   9.2887131  79.4393914  60.8648402   9.9318891  78.7628295
  60.6061255   8.4549448  78.9715844  58.2557735   1.9004952  76.3430486
  57.3942214   2.1986206  76.6347224  58.2820170   2.1175351  75.4111519
  55.0719305  10.4447143  72.7504292  55.5357650  10.7234846  71.9608914
  54.8076103   9.5430587  72.5677382  51.9643386   9.9918624  75.6884055
  52.5344743  10.4205892  75.0501539  52.5551498   9.7101209  76.3868241
  54.0088191   6.5670295  69.5593857  54.7112234   7.0191339  70.0267783
  53.6768819   5.9254114  70.1873750  52.4568552   5.1582052  83.9345066
  51.8267213   5.8398332  84.1680463  52.3504640   5.0465133  82.9898204
  47.7513525   4.8253848  74.8610990  46.9612579   5.0811376  74.3851101
  48.2424772   5.6402185  74.9663031  61.7677334  12.1659087  77.6116271
  62.5894778  11.7639274  77.3298953  61.7639737  12.0627321  78.5632387
  49.7028270   5.1898427  71.8194467  48.9059433   5.3017121  72.3377963
  49.4753862   5.5285079  70.9535358  55.5333938  11.7143130  79.7676982
  55.5978370  12.1763537  80.6035154  54.8244862  11.0840495  79.8959292
  46.0351228   5.0784338  77.2925981  46.2859266   5.9631348  77.5583557
  46.5710776   4.8988940  76.5201073  69.8583327   8.5097835  73.9601243
  69.1047036   7.9405233  73.8045247  69.9930869   8.4760500  74.9071877
  55.2481955  13.3811238  69.6355962  55.1127630  14.2262773  70.0640810
  55.7891768  13.5830515  68.8721896  51.7349295  -0.5397183  86.2970317
  51.3416241  -1.0930984  86.9717961  52.5515435  -0.2286604  86.6876835
  48.7011353  10.8986676  70.2083887  49.2135873  11.6929926  70.3589452
  49.3534066  10.2012966  70.1417489  50.5106238  14.0152432  72.2906640
  50.6872866  14.9370397  72.1027624  51.3063071  13.7010851  72.7201020
  54.6517256   0.8760697  83.8890574  55.3926969   1.4767850  83.8095036
  54.8835179   0.1338334  83.3308616  49.7958594   6.0617064  82.1668804
  49.6812109   5.1602321  82.4675902  48.9403112   6.3080761  81.8153620
  56.8750432  14.0034804  83.7656304  56.4314286  13.2171183  83.4477209
  57.5367645  14.1913955  83.1000195  51.6337553  15.5330606  78.2916983
  52.1844978  15.4047669  77.5193977  50.7949029  15.8325495  77.9411875
  58.9731670  14.2837604  81.7937705  58.9550145  15.1046485  81.3017975
  59.8951590  14.1591679  82.0187847  55.4304724  11.7981733  82.6361214
  55.9633061  11.0370022  82.4060522  54.9018805  11.5055385  83.3785368
  58.5974419  -3.0958201  78.1654855  58.2538688  -2.2056559  78.0893966
  58.9653382  -3.2856543  77.3024441  46.6660270   9.2275330  70.9843458
  47.5035492   9.6372338  70.7677165  46.8438537   8.2874772  70.9543652
  58.5624702   6.8950411  66.6727291  58.0471325   7.6655015  66.9115678
  58.2902010   6.2215547  67.2960352  56.1471813   1.7400111  71.7312529
  55.2913409   1.3506962  71.5518168  56.5598765   1.8192072  70.8712315
  57.6770959  -0.7253545  76.1304089  57.1735755  -0.7623410  75.3171894
  57.9701566   0.1839197  76.1900745  53.9213845  -0.6414816  75.1370270
  54.7866842  -0.8372007  74.7776160  53.9891354  -0.8704464  76.0639627
  63.5358976   9.6482765  68.6080464  62.7588419   9.3093925  68.1635626
  64.2150457   9.6535388  67.9335429  58.3511005   4.7677503  68.4987072
  58.0461141   5.0823652  69.3497215  59.3041447   4.8458923  68.5414405
  56.7957437  10.9267726  70.1480026  56.2678798  10.1920486  69.8353263
  56.2944940  11.7042402  69.9019994  61.7750283   9.1216746  75.2647072
  61.1173957   9.8116008  75.3527201  62.5790682   9.5113178  75.6081058
  51.5276164   1.5887392  72.5086637  52.1019916   1.3662574  71.7759830
  52.1147147   1.6576087  73.2615239  60.5855742   7.4761119  73.3151014
  61.0987623   8.1091111  73.8172724  61.2356966   6.8762315  72.9494374
  51.8545752   3.6191853  66.5282523  51.0183064   3.9566540  66.8491797
  51.7150521   3.4840833  65.5909660  53.8298832  -1.5371359  71.2361707
  53.1763244  -1.8522342  70.6118321  53.7879306  -2.1595618  71.9621530
  54.9410037   8.7447936  63.1514999  54.0337099   8.5137190  63.3506148
  55.4381069   7.9485555  63.3388980  57.8478116  17.4545443  66.0711685
  57.1739815  17.7577140  66.6796643  58.2343938  18.2574524  65.7217142
  57.0636572   4.9510575  75.5609354  56.1459134   5.1725522  75.4031042
  57.4796716   5.0256885  74.7021062  57.8471620   6.3501990  70.6912035
  58.5943439   6.8623388  70.3819157  58.1163210   6.0286043  71.5516428
  56.1198270   8.8460531  67.6738989  55.2109490   8.5619564  67.7711459
  56.1493354   9.2659610  66.8142296  61.3517538  12.4567121  71.4430156
  60.8979865  11.6158030  71.4995347  60.7211505  13.0928519  71.7804937
  60.2950457   3.3859107  72.6730824  59.5573214   2.8736493  73.0041066
  60.5477231   2.9459488  71.8614101  59.7950477  14.2943617  72.3779975
  60.0873451  14.8548674  71.6592340  60.3049098  14.5872178  73.1333134
  46.6886441   6.5666045  71.6554191  46.4910841   5.9735406  70.9305258
  46.1333105   6.2618255  72.3730130  54.6683164   6.4589152  73.7748784
  54.7231774   5.5062988  73.6991261  53.8574366   6.6148591  74.2590083
  55.8174358  10.3869275  65.0127067  55.3793788   9.6705134  64.5532705
  56.5584799  10.6145390  64.4512159  52.6075524   5.0766211  71.5339163
  51.7943390   5.3760382  71.9404355  53.1034519   4.6821900  72.2513645
  54.7584102  15.0723968  73.4673428  54.7160281  15.2984815  72.5381960
  55.6746801  14.8387343  73.6159229  58.2049736   5.5408036  80.3654057
  58.5599124   5.7679509  81.2248523  58.8521867   5.8726413  79.7431312
  63.9347473   8.6626472  71.0703386  63.7965372   8.8528068  70.1424575
  63.5783692   9.4245855  71.5271437  52.0989599   2.6484567  77.1500398
  52.7388978   2.5073326  76.4523361  51.2667130   2.3619080  76.7739000
  63.9616853  10.7302999  76.0814658  64.3953359  10.6378288  76.9297712
  64.6748433  10.7060499  75.4434674  52.8749903  11.9486997  73.2635391
  53.6690502  11.4537318  73.0617965  52.1641595  11.4204861  72.9003096
  57.6944748  14.3305093  77.6147758  57.7481770  14.8996029  78.3825474
  56.8259529  14.5006978  77.2501795  49.1832667   6.0930079  69.3395143
  48.2530255   6.0314535  69.5565105  49.2790138   5.5706032  68.5431784
  49.1018216   2.6184892  71.9273385  49.3625033   3.5330225  71.8182545
  49.9235388   2.1509335  72.0769998  50.5743141   4.0322649  79.0972209
  51.2466194   3.8240011  78.4484858  49.7472927   3.8344735  78.6577442
  64.8232402  10.7726699  78.6147543  65.0168292  11.6772510  78.8606818
  64.7233020  10.3134119  79.4486128  56.4768713   0.6584590  81.1137870
  55.8296628   1.3574540  81.0202347  57.2469728   1.0920734  81.4814118
  59.8847511  10.9233442  84.1888424  59.7333017  10.6943994  83.2718507
  59.8752190  11.8804044  84.2019769  56.6532847   8.4965355  79.1734690
  57.5824907   8.6476515  79.0003657  56.2323877   8.5849376  78.3183337
  55.4521179  12.5216019  76.9433228  55.3132265  12.1534804  77.8159166
  54.6635775  13.0363659  76.7717185  56.0469331  17.6225116  68.2858764
  56.2221087  17.1513159  69.1004387  55.3602119  18.2490882  68.5140025
  57.0026394  11.8997622  74.3322065  56.6676227  11.8598392  75.2279715
  56.5030340  11.2342338  73.8592476  50.9770638   7.3065252  79.8574647
  50.8390436   6.5745491  80.4586186  51.8875562   7.2174152  79.5758834
  59.9385586   9.2453656  64.6059125  59.3214756   8.5200485  64.5092178
  59.4702074  10.0063017  64.2626199  53.6052939   7.0185211  79.3458326
  54.3152557   6.3778404  79.3044945  53.5622247   7.2698106  80.2684507
  61.5939717  13.9552565  82.2664905  61.5352264  13.2711785  81.5995488
  61.9959236  14.6971555  81.8145531  52.3181873   4.0050429  81.1653966
  51.7819230   3.5541168  81.8175562  51.7298581   4.1396338  80.4224430
  50.6130416  20.7714479  75.0598624  50.8527015  21.4033003  75.7377643
  49.7699613  20.4202519  75.3463984  51.7284132   3.4639081  63.7280429
  50.8513598   3.3427881  63.3642676  52.2041885   2.6725159  63.4759318
  61.5957125  11.9192149  80.4978885  60.7083904  11.5818070  80.6205284
  62.1655676  11.1875180  80.7347650  43.2486272   8.2516240  73.8221936
  43.9357312   7.9377970  73.2342952  43.0934401   9.1557605  73.5489188
  48.0520994   3.1406437  78.2506960  47.9679183   2.5332107  77.5157370
  47.2303700   3.6315455  78.2516457  55.1258278  16.5793601  77.4640128
  55.0528450  17.3848573  77.9759433  54.6835671  16.7785567  76.6388150
  54.9148058  15.8165371  70.9742950  54.1315580  16.3587051  71.0681174
  55.6140803  16.3339351  71.3737191  58.2244708   1.6260001  73.6177155
  58.7213407   0.8729963  73.2978225  57.4531689   1.6624317  73.0520365
  66.0774465   7.3300366  75.2595447  66.0664342   8.2125081  74.8889380
  65.2091845   6.9771917  75.0649984  57.5856962  16.4780435  79.6198287
  58.2984934  17.1127900  79.5474188  57.0946990  16.5744301  78.8038289
  59.3074489  10.3831688  71.1915579  58.3730767  10.5033150  71.0220283
  59.4851157   9.4804155  70.9275588  54.8079677   3.7677384  73.3448840
  54.4377464   3.2148424  74.0329745  55.3038769   3.1635517  72.7923840
  62.6947040   6.2249007  71.7265613  63.1607492   7.0576999  71.6525915
  63.1454540   5.7593989  72.4310871  52.6368875  14.2274879  80.4403858
  53.3378335  14.8611362  80.5933252  52.1663990  14.5689610  79.6799497
  60.7623271  12.5692828  68.7251765  61.0383115  12.4549423  69.6345639
  59.8927770  12.1710313  68.6863938  60.6663703  -1.4070406  75.7656514
  59.7526782  -1.1766179  75.9338721  61.0956804  -1.3231962  76.6170546
  60.4370161   6.7819486  78.2656408  59.7841611   7.0295393  77.6108861
  60.8150541   5.9683624  77.9318885  57.3977335  16.8179179  72.3684578
  57.5799730  16.0000835  72.8312331  58.2210321  17.0346871  71.9309468
  57.7319501  15.7447364  69.6299627  58.2607267  15.2339819  69.0169789
  57.9947720  15.4289895  70.4945160  56.4857734   7.5239297  84.7522445
  55.8098371   7.4233426  85.4224820  57.3085368   7.3678511  85.2158442
  48.2336593  13.7611234  77.3734960  48.8190030  13.0154921  77.5062865
  48.0361432  14.0715190  78.2571624  51.0875248  16.7962481  72.3897403
  50.4185624  17.2808609  71.9061443  50.9488118  17.0431701  73.3040781
  42.8254248   6.3316834  76.0939404  42.8638348   5.7980424  76.8876522
  42.3194541   5.8052039  75.4750381  55.2280517  18.8306225  78.9880061
  55.7798825  18.9937846  79.7529146  55.5686711  19.4210662  78.3160086
  50.2045010   1.1781374  79.5901946  50.2686337   2.0396205  79.1779344
  50.1412131   0.5655376  78.8574304  49.6797283   3.2504507  83.2374980
  50.3069322   2.8681584  83.8512504  48.8225202   3.0318709  83.6030673
  60.0791391  13.6567482  84.8428716  60.6231295  14.2697440  84.3483670
  59.4978236  14.2147060  85.3595729  46.4562826   5.0580936  69.1693335
  46.7516267   4.1491614  69.1160389  45.5550861   5.0368675  68.8474337
  58.3648904  16.7788200  75.9743743  58.2400044  15.9777940  75.4654689
  59.0227995  17.2734393  75.4857713  49.9857073   3.1336933  75.1520884
  49.2643658   3.7472900  75.0128357  50.7750328   3.6694697  75.0737530
  60.4283813  14.5797220  77.6023293  59.4814148  14.4602571  77.5301620
  60.7766586  13.6919718  77.6849555  52.7883386   0.4691359  81.4261535
  53.3117788   0.7153656  82.1887845  52.5695719   1.3011394  81.0064673
  48.1850667   2.7395034  69.2932660  47.8563373   1.8592413  69.1107766
  48.5390038   2.6842702  70.1809049  57.4330246  14.3749936  73.8027646
  57.2855208  13.4466644  73.9835216  58.2583740  14.3970027  73.3184721
  51.2992490   3.0268003  69.6608138  51.6388563   3.5553925  68.9386746
  51.7464611   3.3648410  70.4366704  61.0364368  15.1978495  74.8892518
  61.9610915  14.9921356  74.7516970  60.8679671  14.9494896  75.7981860
  53.9935931   1.4105054  79.1111206  53.6532752   0.6112867  79.5131886
  53.2874937   1.7106765  78.5388039  54.6452403  -1.5045633  77.5638529
  55.4678472  -1.9785155  77.4417419  54.8890467  -0.7255150  78.0637215
  53.2860637   1.5242625  67.8601431  54.0069000   1.9023878  67.3565147
  52.6625942   2.2431502  67.9636409  57.4291760   2.2287774  68.7959763
  57.6455375   3.1112412  68.4948591  56.9485827   1.8373987  68.0665405
  52.1690982   5.1873487  75.3730508  52.0235562   5.5013790  76.2654789
  51.6916185   5.8058388  74.8201406  54.0287365   2.1776035  75.4211397
  54.0148933   1.2817128  75.0843695  54.7459793   2.1846699  76.0549683
  55.8813495   2.6113375  77.4664524  55.6231273   3.5330446  77.4648855
  55.3498536   2.2143810  78.1564989  60.8259684  15.7164163  70.2454610
  60.9996562  15.1510585  69.4928462  61.3188575  16.5165057  70.0634100
  46.6436644   7.7278832  78.3118169  46.0990112   8.5038640  78.4438443
  47.5215994   8.0749636  78.1537290  53.4324261   1.0590415  70.6898967
  53.5540172   0.1307062  70.8889855  53.1426303   1.0729101  69.7777283
  56.3015451  -1.2554674  73.8265687  56.3237148  -1.1915341  72.8717667
  56.7183510  -2.0950165  74.0206193  66.6799075   8.4800585  71.8644910
  67.1230221   7.7307911  71.4664033  65.8025586   8.4710722  71.4818642
  61.8134857  15.0330927  67.3451508  62.5085761  15.6537620  67.5638823
  62.1558007  14.1826278  67.6203886  47.4302666   6.8548728  81.2048326
  46.6884402   7.0031363  81.7912956  47.1095410   7.1156993  80.3415075
  63.7126280  12.4830632  68.8738839  64.2377604  12.8217905  68.1488159
  63.6248632  11.5477648  68.6901974  55.3746328  16.3964706  81.0028716
  55.6833455  16.1513853  81.8751415  56.1721810  16.6011345  80.5147586
  55.3966940  18.5502616  73.2334092  54.9571931  18.0578994  73.9266949
  56.1475057  18.0075583  72.9926167  47.8759279  14.7414157  73.2358720
  48.7017299  14.4417928  72.8557364  47.5253331  13.9721779  73.6848509
  52.8440813  14.0940625  75.3056394  52.2220822  13.4311330  75.0058622
  53.5145679  14.1201757  74.6230042  46.0767884  12.6600483  74.1947654
  45.2399793  12.2322657  74.0131655  46.0491530  12.8532926  75.1318445
  52.9165340   2.5722413  84.8988900  52.9653496   3.4484536  84.5166669
  53.4587854   2.0299806  84.3260543  63.4020186  13.1163536  84.1790037
  62.6115729  13.0987675  83.6394536  63.1653540  13.6551830  84.9339073
  63.5218061   9.9656002  81.4922765  63.5716066   9.8006010  82.4338288
  63.4131984   9.0983261  81.1020646  52.4054320  12.6444548  68.7814854
  52.5542440  13.3280013  68.1281527  53.2120763  12.6249638  69.2964310
  60.8121823   5.9486930  82.8082072  61.7131686   5.8093395  82.5166070
  60.8869798   6.1141385  83.7480250  55.1464629   3.3253785  81.6535258
  54.2767938   3.6187351  81.3817847  55.3824109   3.9094230  82.3742522
  65.0236258  12.3852944  81.7364787  64.7321066  12.7482925  82.5728248
  64.4108389  11.6719952  81.5578119  66.2231940   9.9505824  74.2567357
  67.0578831  10.3895628  74.4204918  66.3591069   9.4744477  73.4375603
  63.2723446   7.5085559  80.2044845  63.7477567   7.7013205  79.3963696
  62.3489011   7.5644744  79.9588229  50.1606952   8.6709726  69.7875923
  49.9152994   7.7672056  69.9856133  50.3302867   8.6726876  68.8455401
  57.8503662  -0.4566598  79.1700679  58.3685606   0.2794429  78.8447167
  57.4958795  -0.1502605  80.0047438  49.4302600   4.4038083  67.2862085
  48.7371845   4.4782438  66.6302121  49.1854352   3.6398427  67.8083602
  55.9049725  15.1392679  66.2526602  55.3323692  15.7582866  65.7997074
  56.4782519  15.6892040  66.7866524  61.9725115   4.3851319  78.4373151
  62.9242538   4.4849416  78.4585375  61.8028565   3.5929587  78.9471235
  59.9939494   1.4706902  78.6232551  59.3989426   1.7511915  77.9279040
  59.7089191   1.9600803  79.3949293  59.1246985  15.4229829  67.3835184
  60.0577658  15.3575390  67.5868060  59.0370198  16.2586096  66.9249717
  61.7535001  14.7395699  64.3439132  61.6748633  14.4055563  65.2374890
  62.5744668  15.2317467  64.3430604  64.4513193   7.6057438  77.5515450
  64.4189513   6.6673439  77.7375134  65.0613816   7.6841475  76.8181275
  56.2896524   6.4753491  63.5942654  57.2355628   6.3459699  63.6631072
  55.9110768   5.7368153  64.0712082  64.6007681   4.3968482  77.5973733
  64.0846730   3.6126938  77.4103662  65.4847630   4.0687198  77.7620253
  62.2618408  -1.8590503  73.5569546  62.0643229  -2.1675414  74.4412878
  62.8718114  -1.1328864  73.6867476  70.2689743   8.6673445  76.6921487
  70.9993131   8.4058733  77.2529190  69.6596688   7.9302167  76.7323555
  68.3505040   6.8081308  77.2895938  67.6238203   6.6737273  76.6812430
  67.9352327   7.1158136  78.0952656  56.1735216  10.5271237  85.0543311
  57.0938226  10.7049836  85.2483358  56.1384799   9.5827283  84.9023010
  54.4739441   4.4003468  63.5297539  53.5670896   4.1036580  63.6060253
  54.7515422   4.1033286  62.6631826  45.3917381   5.7209831  73.9796586
  45.0720165   4.8675139  73.6870960  44.8450809   5.9358409  74.7354553
  49.1697289   8.4372272  77.6966092  49.3883298   9.3689380  77.7154126
  49.5823062   8.0780247  78.4820896  56.0901506  -1.0559643  69.6841781
  55.2802235  -1.4012558  70.0597027  56.7785923  -1.3652099  70.2729392
  58.0192055  -1.9781596  71.3066077  58.5723093  -1.5586142  71.9656101
  58.2562141  -2.9045848  71.3489033  54.0425154   4.0105478  87.0868841
  53.9421881   4.9599835  87.0180932  53.8246696   3.6823717  86.2144911
  53.2438225   1.2590403  63.6709519  54.1057389   1.5845301  63.9305336
  53.4288569   0.4721899  63.1582584  45.2605641   9.3412743  75.9489707
  44.5669112   8.9266695  75.4359662  46.0078632   9.3833279  75.3523126
  61.3970862   0.1318929  70.8144742  60.8169531   0.7903733  70.4322794
  61.1306794  -0.6903726  70.4032159  59.8474428  -0.4676013  73.0166062
  60.3474207  -0.3559478  72.2080381  60.4910036  -0.7714960  73.6566870
  53.9056424   7.4402617  85.9033903  53.4223506   8.2402977  86.1097792
  53.9917363   7.4510562  84.9501347  47.1742384   9.2730996  73.8255722
  47.1513072   9.3718684  72.8737605  47.4843020  10.1196147  74.1472888
  49.8329761  11.3307151  77.9402337  50.7873015  11.2991094  77.8732268
  49.6342285  10.8697775  78.7552563  50.4229144   9.9008267  80.5073134
  51.2422033  10.3952346  80.5307972  50.6965951   8.9840236  80.4790702
  60.1795740   2.2919020  69.8701090  59.2921595   2.5768670  69.6521285
  60.5949729   2.1312783  69.0228367  63.5310276   2.3165541  73.5855429
  64.3070666   2.8061993  73.8580046  62.8058410   2.7423595  74.0427299
  65.9682835   3.0293160  74.6429370  66.5627325   2.7888896  73.9322678
  66.0409418   2.3100291  75.2702906  48.1879990  16.8726771  74.9572535
  48.0534458  16.1127172  74.3910533  47.7712053  17.5967671  74.4901324
  59.3238953  12.0563694  63.9649110  60.0274803  12.2613697  64.5806766
  58.6001602  12.6240456  64.2298193  60.1536764   7.8073556  70.0851380
  60.0971965   8.2642107  69.2459012  60.7065106   7.0464240  69.9074223
  63.9641569   3.5963288  70.9101500  63.7078504   3.1959923  71.7409707
  63.3394437   4.3107082  70.7851639  68.2753907   6.3359361  73.4172791
  67.7153465   6.4052550  74.1904353  67.6697411   6.1600345  72.6972287
  51.3449116  17.7696088  75.1690977  51.2281500  18.7141520  75.0669668
  50.5241562  17.4669650  75.5576776  61.2325651  12.4946224  66.0147570
  62.0671255  12.0627422  65.8325045  61.0709994  12.3228237  66.9424464
  60.8871543   8.9978337  67.3803909  60.8320347   8.8322608  66.4392353
  60.2617598   9.7054370  67.5366099  45.6764058   4.2346401  81.2065331
  46.3222921   3.7245355  81.6952557  45.4681209   4.9715083  81.7808757
  58.2017450  11.3027249  86.7057472  59.0708610  11.4767901  86.3444107
  57.7224202  12.1221666  86.5833201  54.1967668  -1.5013554  66.9589228
  54.1846338  -0.5571714  67.1157499  55.0891090  -1.6843409  66.6648689
  52.3703630  18.4224350  78.3846906  53.2730877  18.4547960  78.7013401
  52.1441000  17.4924801  78.3993241  54.1257232  17.1755336  75.0456984
  53.1752863  17.1757198  74.9321357  54.4289718  16.4288071  74.5293019
  50.0161549   1.3814018  85.3040346  50.8793010   1.0250823  85.5143670
  49.4426959   1.0427913  85.9915750  69.8609926  23.0115875  76.1102747
  70.4988336  22.8922622  75.4066087  69.7430769  23.9596719  76.1690699
  66.6699632  22.9643303  76.0464271  66.3318144  22.8484368  75.1584806
  67.5389400  22.5634468  76.0265278  62.5286448  24.8178779  72.0361162
  61.9651313  24.7268716  71.2677450  62.4138843  23.9978684  72.5163655
  67.1519415  24.1178155  82.0050477  67.1408056  23.7230953  81.1330981
  67.3140055  23.3844227  82.5984248  60.0750880  26.3129971  74.8745383
  60.8672172  25.9720796  74.4591682  60.3147530  26.4224946  75.7947536
  62.0341634  25.5738884  67.7462762  62.8072510  25.0267871  67.6075637
  62.3867032  26.4383133  67.9577223  63.8726676  26.9015266  80.9529661
  63.5816542  27.8060897  80.8376327  64.5083661  26.9431794  81.6673730
  64.7982883  24.2792115  77.5431021  65.3946455  24.0548137  76.8287984
  64.8557855  23.5376860  78.1456468  64.3707911  21.7331550  65.3781212
  64.6233432  21.2113072  64.6164675  63.4332471  21.5697696  65.4807895
  69.4151194  20.7367329  73.1855955  70.2014283  20.3186752  72.8346372
  69.6789899  21.6413421  73.3537603  69.5861272  26.1740179  67.8844612
  68.9507105  26.2474805  68.5965516  69.2558678  26.7633778  67.2063691
  74.8159621  20.6742562  74.0888933  75.5484793  20.1041779  74.3226763
  74.0598977  20.2864162  74.5295439  64.0904200  23.6359656  67.5805586
  63.9740458  22.9604560  68.2486671  64.2006460  23.1492030  66.7637740
  66.4335741  23.0969803  71.2852276  66.0693948  22.5700424  71.9965197
  67.2902857  22.7068272  71.1118761  72.3385042  14.3864136  78.5483542
  72.0068367  15.2559547  78.3244757  71.7430655  14.0700420  79.2277572
  66.0741228  18.1259703  66.2813624  66.2415630  18.9939939  66.6484095
  65.8838397  18.2886985  65.3574913  68.8316561  26.5876682  77.9479455
  68.5317284  27.4901721  77.8395262  68.4867621  26.3208865  78.8000607
  62.2829043  23.0390479  73.9816159  61.3579539  22.9066693  74.1893851
  62.5313456  23.8184698  74.4786101  72.2313705  19.1059222  75.6276892
  71.3230582  19.0374631  75.3335653  72.1801301  19.5831167  76.4558717
  66.0530449  20.5817361  67.2660291  65.9330074  21.0274411  68.1045771
  65.3583037  20.9302678  66.7073829  59.6437854  22.6823752  74.8159948
  59.7730235  22.9358231  75.7299360  58.9635305  23.2751460  74.4964603
  66.3054571  20.5248868  83.5711789  65.5287905  21.0842788  83.5614654
  66.9445134  21.0105651  84.0926659  74.0975351  17.3075661  77.4054766
  73.4549732  17.6008194  76.7594560  73.5930280  17.1928581  78.2107963
  71.7515515  21.0538834  68.0940625  72.6633371  21.2866220  67.9188323
  71.2425162  21.6375878  67.5315704  64.5600943  23.3334321  83.1329756
  65.3015628  23.8719365  82.8564580  63.8537929  23.9600610  83.2901308
  70.0356283  25.4763462  81.7301918  70.4439639  25.0345872  80.9856550
  69.3133544  24.9016089  81.9836111  66.3887353  20.4136068  79.1035475
  67.2348548  20.8375482  79.2470124  66.3285990  19.7569693  79.7974038
  70.3585097  26.0364652  75.4854207  69.7293960  26.2010366  74.7830274
  69.9710760  26.4506262  76.2565171  74.2374329  26.9719090  72.8398570
  73.5525367  27.3517991  72.2895604  74.3218179  27.5814417  73.5730518
  69.5386798  18.0740437  80.7616648  69.2947730  18.8282497  80.2250924
  69.8146729  18.4525784  81.5963895  71.4925261  24.6179049  79.4393914
  71.7042156  25.2610809  78.7628295  71.4455009  23.7841366  78.9715844
  69.0951490  17.2296870  76.3430486  68.2335969  17.5278123  76.6347224
  69.1213925  17.4467269  75.4111519  65.9113059  25.7739060  72.7504292
  66.3751405  26.0526763  71.9608914  65.6469857  24.8722505  72.5677382
  62.8037140  25.3210542  75.6884055  63.3738497  25.7497810  75.0501539
  63.3945252  25.0393126  76.3868241  64.8481945  21.8962213  69.5593857
  65.5505989  22.3483256  70.0267783  64.5162574  21.2546031  70.1873750
  63.2962307  20.4873969  83.9345066  62.6660967  21.1690250  84.1680463
  63.1898395  20.3757051  82.9898204  58.5907279  20.1545765  74.8610990
  57.8006333  20.4103294  74.3851101  59.0818527  20.9694103  74.9663031
  72.6071089  27.4951004  77.6116271  73.4288533  27.0931192  77.3298953
  72.6033492  27.3919239  78.5632387  60.5422025  20.5190345  71.8194467
  59.7453188  20.6309039  72.3377963  60.3147617  20.8576997  70.9535358
  66.3727692  27.0435048  79.7676982  66.4372125  27.5055455  80.6035154
  65.6638616  26.4132413  79.8959292  56.8744982  20.4076256  77.2925981
  57.1253021  21.2923266  77.5583557  57.4104531  20.2280857  76.5201073
  80.6977082  23.8389753  73.9601243  79.9440790  23.2697151  73.8045247
  80.8324623  23.8052417  74.9071877  62.5743050  14.7894735  86.2970317
  62.1809995  14.2360934  86.9717961  63.3909190  15.1005314  86.6876835
  59.5405107  26.2278593  70.2083887  60.0529628  27.0221844  70.3589452
  60.1927820  25.5304884  70.1417489  61.3499992  29.3444350  72.2906640
  61.5266620  30.2662314  72.1027624  62.1456826  29.0302769  72.7201020
  65.4911011  16.2052614  83.8890574  66.2320724  16.8059767  83.8095036
  65.7228933  15.4630252  83.3308616  60.6352349  21.3908981  82.1668804
  60.5205864  20.4894239  82.4675902  59.7796866  21.6372678  81.8153620
  67.7144186  29.3326722  83.7656304  67.2708041  28.5463100  83.4477209
  68.3761400  29.5205872  83.1000195  62.4731308  30.8622523  78.2916983
  63.0238733  30.7339587  77.5193977  61.6342783  31.1617412  77.9411875
  69.8125424  29.6129522  81.7937705  69.7943900  30.4338403  81.3017975
  70.7345344  29.4883597  82.0187847  66.2698479  27.1273651  82.6361214
  66.8026815  26.3661939  82.4060522  65.7412560  26.8347303  83.3785368
  69.4368174  12.2333717  78.1654855  69.0932443  13.1235359  78.0893966
  69.8047136  12.0435375  77.3024441  57.5054024  24.5567248  70.9843458
  58.3429246  24.9664256  70.7677165  57.6832292  23.6166690  70.9543652
  69.4018456  22.2242328  66.6727291  68.8865080  22.9946933  66.9115678
  69.1295765  21.5507464  67.2960352  66.9865567  17.0692029  71.7312529
  66.1307164  16.6798879  71.5518168  67.3992519  17.1483990  70.8712315
  68.5164714  14.6038372  76.1304089  68.0129510  14.5668507  75.3171894
  68.8095321  15.5131115  76.1900745  64.7607600  14.6877102  75.1370270
  65.6260597  14.4919911  74.7776160  64.8285109  14.4587454  76.0639627
  74.3752730  24.9774683  68.6080464  73.5982173  24.6385842  68.1635626
  75.0544211  24.9827306  67.9335429  69.1904759  20.0969420  68.4987072
  68.8854895  20.4115570  69.3497215  70.1435202  20.1750840  68.5414405
  67.6351191  26.2559644  70.1480026  67.1072553  25.5212403  69.8353263
  67.1338694  27.0334320  69.9019994  72.6144037  24.4508664  75.2647072
  71.9567712  25.1407926  75.3527201  73.4184437  24.8405096  75.6081058
  62.3669919  16.9179310  72.5086637  62.9413671  16.6954491  71.7759830
  62.9540901  16.9868004  73.2615239  71.4249496  22.8053037  73.3151014
  71.9381378  23.4383029  73.8172724  72.0750720  22.2054232  72.9494374
  62.6939506  18.9483771  66.5282523  61.8576818  19.2858457  66.8491797
  62.5544276  18.8132751  65.5909660  64.6692587  13.7920559  71.2361707
  64.0156999  13.4769576  70.6118321  64.6273061  13.1696299  71.9621530
  65.7803791  24.0739854  63.1514999  64.8730853  23.8429107  63.3506148
  66.2774823  23.2777473  63.3388980  67.9030327  20.2802492  75.5609354
  66.9852888  20.5017439  75.4031042  68.3190471  20.3548803  74.7021062
  68.6865375  21.6793908  70.6912035  69.4337194  22.1915305  70.3819157
  68.9556964  21.3577961  71.5516428  66.9592025  24.1752449  67.6738989
  66.0503244  23.8911482  67.7711459  66.9887109  24.5951527  66.8142296
  72.1911292  27.7859038  71.4430156  71.7373619  26.9449948  71.4995347
  71.5605259  28.4220437  71.7804937  71.1344212  18.7151024  72.6730824
  70.3966969  18.2028411  73.0041066  71.3870985  18.2751406  71.8614101
  70.6344232  29.6235535  72.3779975  70.9267206  30.1840592  71.6592340
  71.1442852  29.9164096  73.1333134  71.2355839  11.4927276  73.2672593
  71.5414716  10.6324640  72.9798508  71.9608444  12.0844897  73.0671587
  57.5280195  21.8957963  71.6554191  57.3304595  21.3027324  70.9305258
  56.9726859  21.5910173  72.3730130  65.5076919  21.7881069  73.7748784
  65.5625529  20.8354906  73.6991261  64.6968121  21.9440508  74.2590083
  66.6568113  25.7161192  65.0127067  66.2187543  24.9997051  64.5532705
  67.3978554  25.9437307  64.4512159  63.4469279  20.4058129  71.5339163
  62.6337144  20.7052300  71.9404355  63.9428273  20.0113818  72.2513645
  65.5977857  30.4015886  73.4673428  65.5554036  30.6276732  72.5381960
  66.5140556  30.1679261  73.6159229  69.0443491  20.8699954  80.3654057
  69.3992878  21.0971427  81.2248523  69.6915622  21.2018330  79.7431312
  74.7741227  23.9918389  71.0703386  74.6359126  24.1819985  70.1424575
  74.4177446  24.7537772  71.5271437  62.9383354  17.9776485  77.1500398
  63.5782733  17.8365244  76.4523361  62.1060884  17.6910998  76.7739000
  74.8010607  26.0594916  76.0814658  75.2347114  25.9670206  76.9297712
  75.5142188  26.0352417  75.4434674  63.7143658  27.2778915  73.2635391
  64.5084256  26.7829235  73.0617965  63.0035350  26.7496778  72.9003096
  68.5338502  29.6597011  77.6147758  68.5875524  30.2287947  78.3825474
  67.6653283  29.8298896  77.2501795  60.0226421  21.4221997  69.3395143
  59.0924009  21.3606452  69.5565105  60.1183893  20.8997950  68.5431784
  59.9411970  17.9476810  71.9273385  60.2018787  18.8622143  71.8182545
  60.7629142  17.4801252  72.0769998  61.4136895  19.3614567  79.0972209
  62.0859949  19.1531929  78.4484858  60.5866682  19.1636653  78.6577442
  75.6626157  26.1018617  78.6147543  75.8562047  27.0064428  78.8606818
  75.5626775  25.6426036  79.4486128  67.3162467  15.9876508  81.1137870
  66.6690382  16.6866457  81.0202347  68.0863483  16.4212652  81.4814118
  70.7241265  26.2525360  84.1888424  70.5726772  26.0235912  83.2718507
  70.7145945  27.2095961  84.2019769  67.4926602  23.8257273  79.1734690
  68.4218662  23.9768432  79.0003657  67.0717632  23.9141293  78.3183337
  66.2914934  27.8507937  76.9433228  66.1526019  27.4826721  77.8159166
  65.5029530  28.3655576  76.7717185  67.8420149  27.2289540  74.3322065
  67.5069981  27.1890310  75.2279715  67.3424094  26.5634256  73.8592476
  61.8164393  22.6357170  79.8574647  61.6784191  21.9037409  80.4586186
  62.7269316  22.5466070  79.5758834  70.7779340  24.5745574  64.6059125
  70.1608511  23.8492402  64.5092178  70.3095829  25.3354934  64.2626199
  64.4446693  22.3477129  79.3458326  65.1546312  21.7070321  79.3044945
  64.4016001  22.5990024  80.2684507  72.4333472  29.2844482  82.2664905
  72.3746018  28.6003703  81.5995488  72.8352990  30.0263472  81.8145531
  63.1575627  19.3342347  81.1653966  62.6212984  18.8833085  81.8175562
  62.5692336  19.4688256  80.4224430  61.4524171  36.1006396  75.0598624
  61.6920769  36.7324920  75.7377643  60.6093367  35.7494436  75.3463984
  62.5677886  18.7930998  63.7280429  61.6907353  18.6719799  63.3642676
  63.0435639  18.0017077  63.4759318  72.4350879  27.2484066  80.4978885
  71.5477658  26.9109988  80.6205284  73.0049430  26.5167098  80.7347650
  54.0880026  23.5808158  73.8221936  54.7751066  23.2669888  73.2342952
  53.9328155  24.4849523  73.5489188  58.8914749  18.4698355  78.2506960
  58.8072937  17.8624024  77.5157370  58.0697455  18.9607373  78.2516457
  65.9652033  31.9085519  77.4640128  65.8922204  32.7140490  77.9759433
  65.5229426  32.1077485  76.6388150  65.7541812  31.1457289  70.9742950
  64.9709334  31.6878969  71.0681174  66.4534557  31.6631268  71.3737191
  69.0638462  16.9551918  73.6177155  69.5607162  16.2021881  73.2978225
  68.2925444  16.9916235  73.0520365  76.9168220  22.6592284  75.2595447
  76.9058096  23.5416999  74.8889380  76.0485599  22.3063835  75.0649984
  68.4250716  31.8072353  79.6198287  69.1378688  32.4419818  79.5474188
  67.9340745  31.9036219  78.8038289  70.1468243  25.7123605  71.1915579
  69.2124522  25.8325068  71.0220283  70.3244912  24.8096072  70.9275588
  65.6473431  19.0969301  73.3448840  65.2771219  18.5440342  74.0329745
  66.1432524  18.4927435  72.7923840  73.5340794  21.5540925  71.7265613
  74.0001247  22.3868916  71.6525915  73.9848295  21.0885906  72.4310871
  63.4762630  29.5566796  80.4403858  64.1772089  30.1903279  80.5933252
  63.0057745  29.8981528  79.6799497  71.5057457  13.9221512  75.7656514
  70.5920537  14.1525739  75.9338721  71.9350559  14.0059956  76.6170546
  71.2763916  22.1111404  78.2656408  70.6235366  22.3587311  77.6108861
  71.6544296  21.2975542  77.9318885  67.3251489  22.8531215  84.7522445
  66.6492126  22.7525344  85.4224820  68.1479123  22.6970428  85.2158442
  59.0730348  29.0903151  77.3734960  59.6583785  28.3446839  77.5062865
  58.8755186  29.4007108  78.2571624  61.9269003  32.1254399  72.3897403
  61.2579378  32.6100526  71.9061443  61.7881873  32.3723619  73.3040781
  53.6648002  21.6608751  76.0939404  53.7032102  21.1272342  76.8876522
  53.1588295  21.1343957  75.4750381  66.0674272  34.1598142  78.9880061
  66.6192580  34.3229764  79.7529146  66.4080465  34.7502580  78.3160086
  61.0438765  16.5073292  79.5901946  61.1080091  17.3688123  79.1779344
  60.9805885  15.8947294  78.8574304  60.5191037  18.5796425  83.2374980
  61.1463076  18.1973502  83.8512504  59.6618956  18.3610626  83.6030673
  70.9185146  28.9859400  84.8428716  71.4625050  29.5989358  84.3483670
  70.3371991  29.5438978  85.3595729  57.2956580  20.3872854  69.1693335
  57.5910021  19.4783532  69.1160389  56.3944616  20.3660593  68.8474337
  69.2042659  32.1080118  75.9743743  69.0793798  31.3069858  75.4654689
  69.8621750  32.6026311  75.4857713  60.8250827  18.4628850  75.1520884
  60.1037413  19.0764818  75.0128357  61.6144083  18.9986615  75.0737530
  71.2677567  29.9089138  77.6023293  70.3207903  29.7894489  77.5301620
  71.6160340  29.0211636  77.6849555  63.6277141  15.7983277  81.4261535
  64.1511542  16.0445573  82.1887845  63.4089474  16.6303312  81.0064673
  59.0244422  18.0686951  69.2932660  58.6957128  17.1884330  69.1107766
  59.3783792  18.0134620  70.1809049  68.2724001  29.7041854  73.8027646
  68.1248963  28.7758561  73.9835216  69.0977494  29.7261945  73.3184721
  62.1386245  18.3559921  69.6608138  62.4782317  18.8845842  68.9386746
  62.5858365  18.6940327  70.4366704  71.8758122  30.5270413  74.8892518
  72.8004670  30.3213274  74.7516970  71.7073426  30.2786814  75.7981860
  64.8329686  16.7396972  79.1111206  64.4926506  15.9404785  79.5131886
  64.1268692  17.0398683  78.5388039  65.4846157  13.8246284  77.5638529
  66.3072227  13.3506762  77.4417419  65.7284221  14.6036768  78.0637215
  64.1254392  16.8534543  67.8601431  64.8462754  17.2315795  67.3565147
  63.5019696  17.5723419  67.9636409  68.2685515  17.5579692  68.7959763
  68.4849129  18.4404330  68.4948591  67.7879582  17.1665905  68.0665405
  63.0084736  20.5165405  75.3730508  62.8629317  20.8305708  76.2654789
  62.5309940  21.1350305  74.8201406  64.8681119  17.5067953  75.4211397
  64.8542688  16.6109046  75.0843695  65.5853547  17.5138617  76.0549683
  66.7207250  17.9405293  77.4664524  66.4625028  18.8622364  77.4648855
  66.1892290  17.5435728  78.1564989  57.4830398  23.0570749  78.3118169
  56.9383866  23.8330557  78.4438443  58.3609748  23.4041554  78.1537290
  64.2718015  16.3882333  70.6898967  64.3933926  15.4598979  70.8889855
  63.9820057  16.4021019  69.7777283  67.1409205  14.0737244  73.8265687
  67.1630902  14.1376577  72.8717667  67.5577264  13.2341752  74.0206193
  77.5192830  23.8092503  71.8644910  77.9623976  23.0599828  71.4664033
  76.6419340  23.8002639  71.4818642  58.2696420  22.1840646  81.2048326
  57.5278156  22.3323281  81.7912956  57.9489165  22.4448911  80.3415075
  74.5520034  27.8122550  68.8738839  75.0771358  28.1509823  68.1488159
  74.4642387  26.8769565  68.6901974  66.2140083  31.7256624  81.0028716
  66.5227209  31.4805771  81.8751415  67.0115565  31.9303262  80.5147586
  58.7153034  30.0706074  73.2358720  59.5411054  29.7709846  72.8557364
  58.3647086  29.3013697  73.6848509  63.6834567  29.4232542  75.3056394
  63.0614576  28.7603248  75.0058622  64.3539434  29.4493674  74.6230042
  56.9161639  27.9892401  74.1947654  56.0793547  27.5614575  74.0131655
  56.8885284  28.1824844  75.1318445  63.7559095  17.9014331  84.8988900
  63.8047250  18.7776453  84.5166669  64.2981609  17.3591724  84.3260543
  74.2413940  28.4455454  84.1790037  73.4509484  28.4279593  83.6394536
  74.0047295  28.9843747  84.9339073  74.3611815  25.2947920  81.4922765
  74.4109820  25.1297928  82.4338288  74.2525739  24.4275179  81.1020646
  63.2448074  27.9736466  68.7814854  63.3936194  28.6571930  68.1281527
  64.0514517  27.9541556  69.2964310  71.6515578  21.2778848  82.8082072
  72.5525440  21.1385313  82.5166070  71.7263552  21.4433303  83.7480250
  65.9858383  18.6545703  81.6535258  65.1161692  18.9479269  81.3817847
  66.2217863  19.2386148  82.3742522  75.8630012  27.7144862  81.7364787
  75.5714820  28.0774842  82.5728248  75.2502143  27.0011870  81.5578119
  77.0625694  25.2797741  74.2567357  77.8972586  25.7187545  74.4204918
  77.1984823  24.8036395  73.4375603  74.1117200  22.8377476  80.2044845
  74.5871322  23.0305123  79.3963696  73.1882766  22.8936662  79.9588229
  61.0000707  24.0001643  69.7875923  60.7546749  23.0963973  69.9856133
  61.1696622  24.0018794  68.8455401  68.6897417  14.8725320  79.1700679
  69.2079361  15.6086347  78.8447167  68.3352550  15.1789313  80.0047438
  60.2696355  19.7330001  67.2862085  59.5765599  19.8074356  66.6302121
  60.0248106  18.9690345  67.8083602  68.9410011  11.2925602  74.6901575
  69.2211765  10.6248791  75.3162002  69.7260618  11.4854698  74.1776239
  72.8118869  19.7143236  78.4373151  73.7636292  19.8141334  78.4585375
  72.6422320  18.9221505  78.9471235  70.8333249  16.7998820  78.6232551
  70.2383181  17.0803832  77.9279040  70.5482946  17.2892721  79.3949293
  75.2906947  22.9349356  77.5515450  75.2583267  21.9965357  77.7375134
  75.9007571  23.0133393  76.8181275  67.1290278  21.8045409  63.5942654
  68.0749383  21.6751617  63.6631072  66.7504523  21.0660071  64.0712082
  75.4401436  19.7260399  77.5973733  74.9240484  18.9418856  77.4103662
  76.3241384  19.3979116  77.7620253  73.1012163  13.4701415  73.5569546
  72.9036984  13.1616503  74.4412878  73.7111868  14.1963054  73.6867476
  81.1083497  23.9965363  76.6921487  81.8386885  23.7350651  77.2529190
  80.4990442  23.2594085  76.7323555  79.1898794  22.1373225  77.2895938
  78.4631958  22.0029190  76.6812430  78.7746081  22.4450054  78.0952656
  67.0128971  25.8563155  85.0543311  67.9331980  26.0341754  85.2483358
  66.9778554  24.9119201  84.9023010  65.3133195  19.7295385  63.5297539
  64.4064651  19.4328498  63.6060253  65.5909176  19.4325204  62.6631826
  56.2311136  21.0501749  73.9796586  55.9113920  20.1967057  73.6870960
  55.6844564  21.2650327  74.7354553  60.0091043  23.7664190  77.6966092
  60.2277053  24.6981298  77.7154126  60.4216817  23.4072164  78.4820896
  66.9295261  14.2732275  69.6841781  66.1195989  13.9279360  70.0597027
  67.6179678  13.9639819  70.2729392  68.8585809  13.3510322  71.3066077
  69.4116848  13.7705775  71.9656101  69.0955896  12.4246070  71.3489033
  64.8818908  19.3397396  87.0868841  64.7815635  20.2891753  87.0180932
  64.6640450  19.0115634  86.2144911  64.0831980  16.5882321  63.6709519
  64.9451144  16.9137219  63.9305336  64.2682324  15.8013817  63.1582584
  56.0999396  24.6704660  75.9489707  55.4062867  24.2558613  75.4359662
  56.8472387  24.7125197  75.3523126  72.2364616  15.4610847  70.8144742
  71.6563285  16.1195651  70.4322794  71.9700549  14.6388192  70.4032159
  70.6868183  14.8615905  73.0166062  71.1867961  14.9732439  72.2080381
  71.3303791  14.5576958  73.6566870  64.7450178  22.7694534  85.9033903
  64.2617260  23.5694895  86.1097792  64.8311118  22.7802479  84.9501347
  58.0136138  24.6022914  73.8255722  57.9906826  24.7010601  72.8737605
  58.3236775  25.4488065  74.1472888  60.6723516  26.6599069  77.9402337
  61.6266770  26.6283011  77.8732268  60.4736040  26.1989693  78.7552563
  61.2622898  25.2300185  80.5073134  62.0815787  25.7244264  80.5307972
  61.5359706  24.3132153  80.4790702  71.0189494  17.6210937  69.8701090
  70.1315349  17.9060588  69.6521285  71.4343483  17.4604701  69.0228367
  74.3704030  17.6457458  73.5855429  75.1464421  18.1353911  73.8580046
  73.6452165  18.0715513  74.0427299  76.8076589  18.3585078  74.6429370
  77.4021080  18.1180814  73.9322678  76.8803173  17.6392208  75.2702906
  59.0273745  32.2018689  74.9572535  58.8928213  31.4419089  74.3910533
  58.6105807  32.9259588  74.4901324  70.9930518  23.1365473  70.0851380
  70.9365719  23.5934025  69.2459012  71.5458861  22.3756158  69.9074223
  74.8035324  18.9255205  70.9101500  74.5472258  18.5251841  71.7409707
  74.1788192  19.6398999  70.7851639  79.1147662  21.6651279  73.4172791
  78.5547220  21.7344468  74.1904353  78.5091165  21.4892263  72.6972287
  62.1842871  33.0988006  75.1690977  62.0675255  34.0433438  75.0669668
  61.3635317  32.7961567  75.5576776  71.7265297  24.3270255  67.3803909
  71.6714101  24.1614526  66.4392353  71.1011353  25.0346288  67.5366099
  56.5157812  19.5638319  81.2065331  57.1616676  19.0537273  81.6952557
  56.3074963  20.3007001  81.7808757  69.0411205  26.6319167  86.7057472
  69.9102364  26.8059819  86.3444107  68.5617956  27.4513583  86.5833201
  65.0361423  13.8278364  66.9589228  65.0240093  14.7720204  67.1157499
  65.9284845  13.6448509  66.6648689  63.2097385  33.7516268  78.3846906
  64.1124631  33.7839878  78.7013401  62.9834755  32.8216718  78.3993241
  64.9650987  32.5047254  75.0456984  64.0146618  32.5049116  74.9321357
  65.2683473  31.7579989  74.5293019  68.8513542  10.4221140  71.2135164
  68.0845938   9.8679627  71.3591847  69.2624247  10.4943009  72.0749316
  60.8555303  16.7105936  85.3040346  61.7186765  16.3542741  85.5143670
  60.2820714  16.3719831  85.9915750  80.7003680  38.3407792  76.1102747
  81.3382090  38.2214540  75.4066087  80.5824523  39.2888636  76.1690699
  77.5093387  38.2935221  76.0464271  77.1711898  38.1776285  75.1584806
  78.3783155  37.8926386  76.0265278  73.3680202  40.1470697  72.0361162
  72.8045067  40.0560634  71.2677450  73.2532597  39.3270601  72.5163655
  77.9913170  39.4470072  82.0050477  77.9801810  39.0522871  81.1330981
  78.1533809  38.7136145  82.5984248  70.9144634  41.6421889  74.8745383
  71.7065926  41.3012713  74.4591682  71.1541284  41.7516864  75.7947536
  78.9479761  43.8141665  67.3475627  78.2967741  44.3995745  66.9609641
  79.7424124  44.3447860  67.4070665  74.7120431  42.2307184  80.9529661
  74.4210297  43.1352815  80.8376327  75.3477415  42.2723712  81.6673730
  75.6376638  39.6084033  77.5431021  76.2340210  39.3840055  76.8287984
  75.6951609  38.8668778  78.1456468  80.2544949  36.0659246  73.1855955
  81.0408038  35.6478669  72.8346372  80.5183653  36.9705338  73.3537603
  80.4255026  41.5032097  67.8844612  79.7900859  41.5766723  68.5965516
  80.0952433  42.0925695  67.2063691  85.6553376  36.0034480  74.0888933
  86.3878548  35.4333696  74.3226763  84.8992732  35.6156080  74.5295439
  77.2729496  38.4261721  71.2852276  76.9087703  37.8992342  71.9965197
  78.1296612  38.0360190  71.1118761  83.1778796  29.7156054  78.5483542
  82.8462121  30.5851465  78.3244757  82.5824410  29.3992338  79.2277572
  79.6710316  41.9168600  77.9479455  79.3711039  42.8193638  77.8395262
  79.3261375  41.6500783  78.8000607  73.1222797  38.3682396  73.9816159
  72.1973294  38.2358611  74.1893851  73.3707210  39.1476616  74.4786101
  83.0707460  34.4351140  75.6276892  82.1624337  34.3666548  75.3335653
  83.0195055  34.9123085  76.4558717  70.4831608  38.0115670  74.8159948
  70.6123989  38.2650149  75.7299360  69.8029060  38.6043378  74.4964603
  77.1448325  35.8540785  83.5711789  76.3681659  36.4134706  83.5614654
  77.7838888  36.3397568  84.0926659  84.9369106  32.6367578  77.4054766
  84.2943486  32.9300111  76.7594560  84.4324034  32.5220499  78.2107963
  75.3994698  38.6626239  83.1329756  76.1409382  39.2011283  82.8564580
  74.6931683  39.2892527  83.2901308  80.8750037  40.8055379  81.7301918
  81.2833393  40.3637790  80.9856550  80.1527299  40.2308007  81.9836111
  77.2281107  35.7427986  79.1035475  78.0742303  36.1667400  79.2470124
  77.1679745  35.0861610  79.7974038  81.1978852  41.3656570  75.4854207
  80.5687714  41.5302284  74.7830274  80.8104514  41.7798179  76.2565171
  85.0768084  42.3011008  72.8398570  84.3919122  42.6809909  72.2895604
  85.1611933  42.9106334  73.5730518  80.3780553  33.4032354  80.7616648
  80.1341485  34.1574415  80.2250924  80.6540483  33.7817702  81.5963895
  82.3319015  39.9470967  79.4393914  82.5435911  40.5902727  78.7628295
  82.2848764  39.1133283  78.9715844  79.9345244  32.5588787  76.3430486
  79.0729723  32.8570041  76.6347224  79.9607679  32.7759186  75.4111519
  76.7506814  41.1030978  72.7504292  77.2145159  41.3818681  71.9608914
  76.4863612  40.2014423  72.5677382  73.6430895  40.6502459  75.6884055
  74.2132252  41.0789728  75.0501539  74.2339007  40.3685044  76.3868241
  75.6875700  37.2254130  69.5593857  76.3899743  37.6775174  70.0267783
  75.3556328  36.5837949  70.1873750  74.1356061  35.8165887  83.9345066
  73.5054722  36.4982168  84.1680463  74.0292149  35.7048969  82.9898204
  69.4301034  35.4837683  74.8610990  68.6400088  35.7395211  74.3851101
  69.9212281  36.2986021  74.9663031  83.4464843  42.8242922  77.6116271
  84.2682287  42.4223109  77.3298953  83.4427246  42.7211156  78.5632387
  77.2121447  42.3726965  79.7676982  77.2765879  42.8347373  80.6035154
  76.5032371  41.7424330  79.8959292  67.7138737  35.7368173  77.2925981
  67.9646775  36.6215183  77.5583557  68.2498285  35.5572775  76.5201073
  91.5370836  39.1681671  73.9601243  90.7834545  38.5989069  73.8045247
  91.6718378  39.1344335  74.9071877  76.9269464  44.0395073  69.6355962
  76.7915139  44.8846609  70.0640810  77.4679277  44.2414351  68.8721896
  73.4136804  30.1186653  86.2970317  73.0203750  29.5652851  86.9717961
  74.2302944  30.4297231  86.6876835  72.1893747  44.6736267  72.2906640
  72.3660375  45.5954232  72.1027624  72.9850580  44.3594686  72.7201020
  76.3304765  31.5344532  83.8890574  77.0714478  32.1351685  83.8095036
  76.5622688  30.7922170  83.3308616  71.4746103  36.7200899  82.1668804
  71.3599618  35.8186156  82.4675902  70.6190621  36.9664596  81.8153620
  78.5537941  44.6618639  83.7656304  78.1101795  43.8755018  83.4477209
  79.2155154  44.8497790  83.1000195  73.3125062  46.1914441  78.2916983
  73.8632487  46.0631504  77.5193977  72.4736538  46.4909330  77.9411875
  80.6519179  44.9421439  81.7937705  80.6337654  45.7630320  81.3017975
  81.5739099  44.8175515  82.0187847  77.1092233  42.4565569  82.6361214
  77.6420570  41.6953857  82.4060522  76.5806314  42.1639221  83.3785368
  80.2761928  27.5625635  78.1654855  79.9326197  28.4527276  78.0893966
  80.6440891  27.3727292  77.3024441  77.8259322  32.3983947  71.7312529
  76.9700918  32.0090797  71.5518168  78.2386274  32.4775907  70.8712315
  79.3558468  29.9330290  76.1304089  78.8523264  29.8960425  75.3171894
  79.6489075  30.8423033  76.1900745  75.6001354  30.0169020  75.1370270
  76.4654351  29.8211828  74.7776160  75.6678863  29.7879371  76.0639627
  85.2146485  40.3066601  68.6080464  84.4375928  39.9677760  68.1635626
  85.8937966  40.3119224  67.9335429  78.4744946  41.5851561  70.1480026
  77.9466307  40.8504321  69.8353263  77.9732449  42.3626238  69.9019994
  83.4537792  39.7800582  75.2647072  82.7961466  40.4699843  75.3527201
  84.2578191  40.1697014  75.6081058  73.2063673  32.2471228  72.5086637
  73.7807425  32.0246409  71.7759830  73.7934656  32.3159922  73.2615239
  82.2643251  38.1344954  73.3151014  82.7775132  38.7674946  73.8172724
  82.9144474  37.5346150  72.9494374  75.5086341  29.1212476  71.2361707
  74.8550753  28.8061494  70.6118321  75.4666815  28.4988217  71.9621530
  78.7424081  35.6094410  75.5609354  77.8246643  35.8309357  75.4031042
  79.1584225  35.6840721  74.7021062  79.5259129  37.0085826  70.6912035
  80.2730948  37.5207223  70.3819157  79.7950719  36.6869878  71.5516428
  83.0305047  43.1150956  71.4430156  82.5767374  42.2741866  71.4995347
  82.3999014  43.7512354  71.7804937  81.9737966  34.0442942  72.6730824
  81.2360723  33.5320328  73.0041066  82.2264740  33.6043324  71.8614101
  81.4737986  44.9527453  72.3779975  81.7660960  45.5132510  71.6592340
  81.9836607  45.2456014  73.1333134  82.0749594  26.8219194  73.2672593
  82.3808471  25.9616557  72.9798508  82.8002199  27.4136814  73.0671587
  76.3470673  37.1172987  73.7748784  76.4019283  36.1646823  73.6991261
  75.5361875  37.2732426  74.2590083  74.2863033  35.7350047  71.5339163
  73.4730899  36.0344217  71.9404355  74.7822028  35.3405736  72.2513645
  76.4371611  45.7307804  73.4673428  76.3947790  45.9568650  72.5381960
  77.3534310  45.4971178  73.6159229  79.8837245  36.1991871  80.3654057
  80.2386633  36.4263344  81.2248523  80.5309376  36.5310248  79.7431312
  85.6134982  39.3210307  71.0703386  85.4752881  39.5111903  70.1424575
  85.2571201  40.0829690  71.5271437  73.7777108  33.3068402  77.1500398
  74.4176487  33.1657161  76.4523361  72.9454639  33.0202916  76.7739000
  85.6404362  41.3886834  76.0814658  86.0740868  41.2962123  76.9297712
  86.3535942  41.3644335  75.4434674  74.5537412  42.6070833  73.2635391
  75.3478011  42.1121153  73.0617965  73.8429104  42.0788696  72.9003096
  79.3732256  44.9888928  77.6147758  79.4269279  45.5579865  78.3825474
  78.5047038  45.1590813  77.2501795  72.2530650  34.6906484  79.0972209
  72.9253703  34.4823847  78.4484858  71.4260436  34.4928570  78.6577442
  86.5019911  41.4310535  78.6147543  86.6955801  42.3356345  78.8606818
  86.4020529  40.9717954  79.4486128  78.1556222  31.3168425  81.1137870
  77.5084137  32.0158375  81.0202347  78.9257237  31.7504569  81.4814118
  81.5635020  41.5817278  84.1888424  81.4120526  41.3527829  83.2718507
  81.5539699  42.5387879  84.2019769  78.3320356  39.1549190  79.1734690
  79.2612416  39.3060350  79.0003657  77.9111386  39.2433211  78.3183337
  77.1308688  43.1799855  76.9433228  76.9919774  42.8118639  77.8159166
  76.3423284  43.6947494  76.7717185  78.6813903  42.5581457  74.3322065
  78.3463736  42.5182227  75.2279715  78.1817849  41.8926173  73.8592476
  72.6558147  37.9649087  79.8574647  72.5177945  37.2329326  80.4586186
  73.5663071  37.8757988  79.5758834  75.2840448  37.6769047  79.3458326
  75.9940066  37.0362239  79.3044945  75.2409756  37.9281942  80.2684507
  83.2727226  44.6136400  82.2664905  83.2139773  43.9295620  81.5995488
  83.6746745  45.3555390  81.8145531  73.9969382  34.6634265  81.1653966
  73.4606739  34.2125003  81.8175562  73.4086090  34.7980173  80.4224430
  72.2917925  51.4298314  75.0598624  72.5314523  52.0616838  75.7377643
  71.4487122  51.0786354  75.3463984  83.2744634  42.5775984  80.4978885
  82.3871413  42.2401906  80.6205284  83.8443185  41.8459015  80.7347650
  69.7308503  33.7990272  78.2506960  69.6466692  33.1915942  77.5157370
  68.9091209  34.2899291  78.2516457  76.8045787  47.2377436  77.4640128
  76.7315959  48.0432408  77.9759433  76.3623180  47.4369402  76.6388150
  79.9032217  32.2843836  73.6177155  80.4000916  31.5313798  73.2978225
  79.1319198  32.3208153  73.0520365  87.7561974  37.9884201  75.2595447
  87.7451851  38.8708917  74.8889380  86.8879354  37.6355752  75.0649984
  79.2644471  47.1364270  79.6198287  79.9772443  47.7711735  79.5474188
  78.7734499  47.2328136  78.8038289  80.9861998  41.0415523  71.1915579
  80.0518276  41.1616986  71.0220283  81.1638666  40.1387990  70.9275588
  76.4867186  34.4261219  73.3448840  76.1164973  33.8732259  74.0329745
  76.9826278  33.8219352  72.7923840  84.3734549  36.8832842  71.7265613
  84.8395001  37.7160834  71.6525915  84.8242049  36.4177824  72.4310871
  74.3156384  44.8858714  80.4403858  75.0165844  45.5195197  80.5933252
  73.8451499  45.2273445  79.6799497  82.4410780  43.2276664  68.7251765
  82.7170624  43.1133258  69.6345639  81.5715279  42.8294149  68.6863938
  82.3451212  29.2513429  75.7656514  81.4314291  29.4817656  75.9338721
  82.7744313  29.3351873  76.6170546  82.1157670  37.4403321  78.2656408
  81.4629120  37.6879229  77.6108861  82.4938050  36.6267460  77.9318885
  79.0764844  47.4763015  72.3684578  79.2587239  46.6584670  72.8312331
  79.8997830  47.6930707  71.9309468  79.4107010  46.4031200  69.6299627
  79.9394776  45.8923654  69.0169789  79.6735229  46.0873730  70.4945160
  78.1645243  38.1823132  84.7522445  77.4885880  38.0817262  85.4224820
  78.9872877  38.0262346  85.2158442  69.9124102  44.4195069  77.3734960
  70.4977539  43.6738757  77.5062865  69.7148941  44.7299026  78.2571624
  64.5041757  36.9900669  76.0939404  64.5425856  36.4564260  76.8876522
  63.9982050  36.4635875  75.4750381  76.9068026  49.4890060  78.9880061
  77.4586334  49.6521681  79.7529146  77.2474220  50.0794498  78.3160086
  71.8832519  31.8365210  79.5901946  71.9473846  32.6980041  79.1779344
  71.8199640  31.2239211  78.8574304  71.3584792  33.9088342  83.2374980
  71.9856831  33.5265420  83.8512504  70.5012711  33.6902544  83.6030673
  81.7578900  44.3151317  84.8428716  82.3018804  44.9281276  84.3483670
  81.1765745  44.8730896  85.3595729  80.0436413  47.4372035  75.9743743
  79.9187553  46.6361775  75.4654689  80.7015504  47.9318229  75.4857713
  71.6644582  33.7920768  75.1520884  70.9431167  34.4056736  75.0128357
  72.4537837  34.3278533  75.0737530  82.1071322  45.2381055  77.6023293
  81.1601657  45.1186407  77.5301620  82.4554095  44.3503554  77.6849555
  74.4670895  31.1275194  81.4261535  74.9905297  31.3737491  82.1887845
  74.2483228  31.9595229  81.0064673  79.1117755  45.0333772  73.8027646
  78.9642717  44.1050479  73.9835216  79.9371249  45.0553862  73.3184721
  82.7151877  45.8562330  74.8892518  83.6398424  45.6505192  74.7516970
  82.5467180  45.6078732  75.7981860  75.6723440  32.0688889  79.1111206
  75.3320260  31.2696703  79.5131886  74.9662446  32.3690600  78.5388039
  76.3239912  29.1538202  77.5638529  77.1465981  28.6798680  77.4417419
  76.5677975  29.9328686  78.0637215  79.1079269  32.8871609  68.7959763
  79.3242884  33.7696247  68.4948591  78.6273336  32.4957823  68.0665405
  73.8478491  35.8457323  75.3730508  73.7023071  36.1597626  76.2654789
  73.3703694  36.4642223  74.8201406  75.7074874  32.8359871  75.4211397
  75.6936442  31.9400964  75.0843695  76.4247302  32.8430534  76.0549683
  77.5601004  33.2697211  77.4664524  77.3018782  34.1914281  77.4648855
  77.0286045  32.8727645  78.1564989  82.5047193  46.3747998  70.2454610
  82.6784071  45.8094420  69.4928462  82.9976084  47.1748893  70.0634100
  68.3224153  38.3862667  78.3118169  67.7777621  39.1622475  78.4438443
  69.2003503  38.7333471  78.1537290  75.1111770  31.7174251  70.6898967
  75.2327681  30.7890897  70.8889855  74.8213812  31.7312937  69.7777283
  77.9802960  29.4029161  73.8265687  78.0024657  29.4668494  72.8717667
  78.3971019  28.5633670  74.0206193  88.3586584  39.1384421  71.8644910
  88.8017730  38.3891746  71.4664033  87.4813095  39.1294557  71.4818642
  83.4922366  45.6914762  67.3451508  84.1873270  46.3121455  67.5638823
  83.8345516  44.8410113  67.6203886  69.1090175  37.5132563  81.2048326
  68.3671911  37.6615199  81.7912956  68.7882919  37.7740829  80.3415075
  85.3913789  43.1414468  68.8738839  85.9165113  43.4801741  68.1488159
  85.3036141  42.2061483  68.6901974  77.0533837  47.0548541  81.0028716
  77.3620964  46.8097688  81.8751415  77.8509319  47.2595180  80.5147586
  69.5546788  45.3997992  73.2358720  70.3804808  45.1001764  72.8557364
  69.2040840  44.6305614  73.6848509  74.5228322  44.7524460  75.3056394
  73.9008331  44.0895165  75.0058622  75.1933188  44.7785592  74.6230042
  67.7555393  43.3184318  74.1947654  66.9187302  42.8906493  74.0131655
  67.7279039  43.5116762  75.1318445  74.5952849  33.2306248  84.8988900
  74.6441005  34.1068371  84.5166669  75.1375363  32.6883641  84.3260543
  85.0807695  43.7747371  84.1790037  84.2903238  43.7571510  83.6394536
  84.8441049  44.3135665  84.9339073  85.2005570  40.6239838  81.4922765
  85.2503575  40.4589845  82.4338288  85.0919493  39.7567097  81.1020646
  74.0841828  43.3028384  68.7814854  74.2329949  43.9863848  68.1281527
  74.8908272  43.2833474  69.2964310  82.4909332  36.6070766  82.8082072
  83.3919195  36.4677231  82.5166070  82.5657307  36.7725221  83.7480250
  76.8252138  33.9837621  81.6535258  75.9555447  34.2771187  81.3817847
  77.0611618  34.5678066  82.3742522  86.7023767  43.0436779  81.7364787
  86.4108575  43.4066760  82.5728248  86.0895898  42.3303788  81.5578119
  87.9019449  40.6089659  74.2567357  88.7366340  41.0479463  74.4204918
  88.0378578  40.1328312  73.4375603  84.9510955  38.1669394  80.2044845
  85.4265076  38.3597040  79.3963696  84.0276520  38.2228580  79.9588229
  79.5291171  30.2017238  79.1700679  80.0473115  30.9378264  78.8447167
  79.1746304  30.5081231  80.0047438  79.7803766  26.6217520  74.6901575
  80.0605519  25.9540709  75.3162002  80.5654372  26.8146616  74.1776239
  83.6512624  35.0435154  78.4373151  84.6030047  35.1433252  78.4585375
  83.4816074  34.2513423  78.9471235  81.6727003  32.1290737  78.6232551
  81.0776935  32.4095750  77.9279040  81.3876700  32.6184638  79.3949293
  86.1300702  38.2641274  77.5515450  86.0977022  37.3257274  77.7375134
  86.7401325  38.3425310  76.8181275  86.2795190  35.0552317  77.5973733
  85.7634239  34.2710774  77.4103662  87.1635139  34.7271034  77.7620253
  83.9405917  28.7993333  73.5569546  83.7430738  28.4908421  74.4412878
  84.5505623  29.5254972  73.6867476  91.9477252  39.3257281  76.6921487
  92.6780640  39.0642569  77.2529190  91.3384197  38.5886003  76.7323555
  90.0292549  37.4665143  77.2895938  89.3025712  37.3321108  76.6812430
  89.6139836  37.7741972  78.0952656  77.8522725  41.1855073  85.0543311
  78.7725735  41.3633672  85.2483358  77.8172308  40.2411118  84.9023010
  70.8484798  39.0956108  77.6966092  71.0670807  40.0273215  77.7154126
  71.2610571  38.7364082  78.4820896  77.7689015  29.6024193  69.6841781
  76.9589744  29.2571278  70.0597027  78.4573432  29.2931737  70.2729392
  79.6979564  28.6802240  71.3066077  80.2510602  29.0997693  71.9656101
  79.9349650  27.7537988  71.3489033  75.7212663  34.6689313  87.0868841
  75.6209390  35.6183670  87.0180932  75.5034205  34.3407552  86.2144911
  66.9393150  39.9996578  75.9489707  66.2456621  39.5850531  75.4359662
  67.6866141  40.0417115  75.3523126  83.0758371  30.7902765  70.8144742
  82.4957040  31.4487569  70.4322794  82.8094303  29.9680109  70.4032159
  81.5261937  30.1907822  73.0166062  82.0261715  30.3024357  72.2080381
  82.1697545  29.8868875  73.6566870  75.5843933  38.0986452  85.9033903
  75.1011015  38.8986812  86.1097792  75.6704872  38.1094397  84.9501347
  71.5117270  41.9890987  77.9402337  72.4660524  41.9574929  77.8732268
  71.3129794  41.5281611  78.7552563  72.1016653  40.5592103  80.5073134
  72.9209542  41.0536182  80.5307972  72.3753460  39.6424071  80.4790702
  81.8583249  32.9502855  69.8701090  80.9709104  33.2352506  69.6521285
  82.2737238  32.7896619  69.0228367  85.2097785  32.9749376  73.5855429
  85.9858175  33.4645829  73.8580046  84.4845919  33.4007430  74.0427299
  87.6470344  33.6876995  74.6429370  88.2414834  33.4472731  73.9322678
  87.7196927  32.9684126  75.2702906  69.8667499  47.5310606  74.9572535
  69.7321967  46.7711007  74.3910533  69.4499562  48.2551506  74.4901324
  81.8324273  38.4657391  70.0851380  81.7759474  38.9225943  69.2459012
  82.3852615  37.7048076  69.9074223  85.6429078  34.2547123  70.9101500
  85.3866013  33.8543759  71.7409707  85.0181946  34.9690917  70.7851639
  89.9541416  36.9943196  73.4172791  89.3940974  37.0636386  74.1904353
  89.3484920  36.8184181  72.6972287  73.0236625  48.4279923  75.1690977
  72.9069009  49.3725356  75.0669668  72.2029071  48.1253485  75.5576776
  82.5659052  39.6562172  67.3803909  82.5107856  39.4906444  66.4392353
  81.9405107  40.3638205  67.5366099  67.3551567  34.8930237  81.2065331
  68.0010430  34.3829191  81.6952557  67.1468718  35.6298918  81.7808757
  79.8804959  41.9611084  86.7057472  80.7496119  42.1351736  86.3444107
  79.4011710  42.7805501  86.5833201  74.0491139  49.0808185  78.3846906
  74.9518386  49.1131795  78.7013401  73.8228509  48.1508636  78.3993241
  75.8044741  47.8339172  75.0456984  74.8540372  47.8341033  74.9321357
  76.1077227  47.0871906  74.5293019  79.6907297  25.7513058  71.2135164
  78.9239693  25.1971545  71.3591847  80.1018002  25.8234927  72.0749316
  71.6949058  32.0397854  85.3040346  72.5580519  31.6834659  85.5143670
  71.1214468  31.7011749  85.9915750  91.5397435  53.6699710  76.1102747
  92.1775845  53.5506457  75.4066087  91.4218278  54.6180554  76.1690699
  88.3487141  53.6227138  76.0464271  88.0105653  53.5068203  75.1584806
  89.2176909  53.2218303  76.0265278  88.8306924  54.7761990  82.0050477
  88.8195565  54.3814788  81.1330981  88.9927563  54.0428063  82.5984248
  81.7538389  56.9713806  74.8745383  82.5459681  56.6304631  74.4591682
  81.9935039  57.0808781  75.7947536  85.5514185  57.5599102  80.9529661
  85.2604051  58.4644733  80.8376327  86.1871170  57.6015629  81.6673730
  86.4770392  54.9375950  77.5431021  87.0733964  54.7131973  76.8287984
  86.5345364  54.1960696  78.1456468  91.0938703  51.3951164  73.1855955
  91.8801792  50.9770587  72.8346372  91.3577408  52.2997256  73.3537603
  96.4947130  51.3326397  74.0888933  97.2272302  50.7625614  74.3226763
  95.7386486  50.9447998  74.5295439  88.1123250  53.7553639  71.2852276
  87.7481457  53.2284260  71.9965197  88.9690366  53.3652108  71.1118761
  94.0172551  45.0447971  78.5483542  93.6855875  45.9143382  78.3244757
  93.4218164  44.7284255  79.2277572  83.9616552  53.6974314  73.9816159
  83.0367048  53.5650528  74.1893851  84.2100965  54.4768533  74.4786101
  93.9101214  49.7643057  75.6276892  93.0018091  49.6958466  75.3335653
  93.8588810  50.2415002  76.4558717  81.3225363  53.3407588  74.8159948
  81.4517744  53.5942067  75.7299360  80.6422814  53.9335296  74.4964603
  87.9842080  51.1832703  83.5711789  87.2075414  51.7426623  83.5614654
  88.6232643  51.6689486  84.0926659  95.7762860  47.9659496  77.4054766
  95.1337241  48.2592029  76.7594560  95.2717789  47.8512416  78.2107963
  93.4303024  51.7122669  68.0940625  94.3420880  51.9450056  67.9188323
  92.9212671  52.2959713  67.5315704  86.2388452  53.9918156  83.1329756
  86.9803136  54.5303200  82.8564580  85.5325438  54.6184445  83.2901308
  91.7143792  56.1347297  81.7301918  92.1227148  55.6929707  80.9856550
  90.9921053  55.5599924  81.9836111  88.0674862  51.0719904  79.1035475
  88.9136057  51.4959317  79.2470124  88.0073499  50.4153528  79.7974038
  95.9161838  57.6302925  72.8398570  95.2312876  58.0101827  72.2895604
  96.0005688  58.2398252  73.5730518  91.2174307  48.7324272  80.7616648
  90.9735239  49.4866333  80.2250924  91.4934238  49.1109620  81.5963895
  93.1712770  55.2762884  79.4393914  93.3829665  55.9194644  78.7628295
  93.1242518  54.4425201  78.9715844  90.7738999  47.8880705  76.3430486
  89.9123478  48.1861959  76.6347224  90.8001434  48.1051104  75.4111519
  84.4824649  55.9794377  75.6884055  85.0526006  56.4081646  75.0501539
  85.0732761  55.6976962  76.3868241  86.5269454  52.5546048  69.5593857
  87.2293498  53.0067092  70.0267783  86.1950083  51.9129867  70.1873750
  84.9749816  51.1457805  83.9345066  84.3448476  51.8274085  84.1680463
  84.8685904  51.0340886  82.9898204  80.2694788  50.8129601  74.8610990
  79.4793842  51.0687129  74.3851101  80.7606036  51.6277938  74.9663031
  94.2858598  58.1534840  77.6116271  95.1076042  57.7515027  77.3298953
  94.2821001  58.0503074  78.5632387  88.0515201  57.7018883  79.7676982
  88.1159634  58.1639290  80.6035154  87.3426125  57.0716248  79.8959292
  78.5532491  51.0660091  77.2925981  78.8040530  51.9507101  77.5583557
  79.0892040  50.8864693  76.5201073 102.3764591  54.4973588  73.9601243
 101.6228299  53.9280986  73.8045247 102.5112132  54.4636253  74.9071877
  84.2530559  45.4478570  86.2970317  83.8597504  44.8944769  86.9717961
  85.0696699  45.7589149  86.6876835  87.1698520  46.8636450  83.8890574
  87.9108233  47.4643603  83.8095036  87.4016442  46.1214087  83.3308616
  82.3139858  52.0492817  82.1668804  82.1993373  51.1478074  82.4675902
  81.4584375  52.2956514  81.8153620  89.3931695  59.9910557  83.7656304
  88.9495550  59.2046936  83.4477209  90.0548909  60.1789708  83.1000195
  84.1518817  61.5206359  78.2916983  84.7026242  61.3923422  77.5193977
  83.3130292  61.8201248  77.9411875  91.4912933  60.2713357  81.7937705
  91.4731409  61.0922238  81.3017975  92.4132853  60.1467432  82.0187847
  87.9485988  57.7857487  82.6361214  88.4814324  57.0245775  82.4060522
  87.4200069  57.4931138  83.3785368  91.1155683  42.8917552  78.1654855
  90.7719952  43.7819194  78.0893966  91.4834645  42.7019210  77.3024441
  88.6653076  47.7275864  71.7312529  87.8094673  47.3382715  71.5518168
  89.0780028  47.8067825  70.8712315  90.1952223  45.2622208  76.1304089
  89.6917019  45.2252343  75.3171894  90.4882830  46.1714950  76.1900745
  86.4395109  45.3460937  75.1370270  87.3048106  45.1503746  74.7776160
  86.5072618  45.1171289  76.0639627  96.0540239  55.6358518  68.6080464
  95.2769682  55.2969678  68.1635626  96.7331720  55.6411141  67.9335429
  90.8692268  50.7553256  68.4987072  90.5642404  51.0699405  69.3497215
  91.8222711  50.8334676  68.5414405  94.2931546  55.1092499  75.2647072
  93.6355221  55.7991761  75.3527201  95.0971946  55.4988931  75.6081058
  84.0457428  47.5763145  72.5086637  84.6201180  47.3538327  71.7759830
  84.6328410  47.6451840  73.2615239  93.1037005  53.4636872  73.3151014
  93.6168887  54.0966864  73.8172724  93.7538229  52.8638068  72.9494374
  86.3480096  44.4504394  71.2361707  85.6944508  44.1353411  70.6118321
  86.3060570  43.8280135  71.9621530  89.5817836  50.9386328  75.5609354
  88.6640397  51.1601275  75.4031042  89.9977980  51.0132638  74.7021062
  90.3652884  52.3377743  70.6912035  91.1124703  52.8499141  70.3819157
  90.6344473  52.0161796  71.5516428  92.8131721  49.3734860  72.6730824
  92.0754478  48.8612246  73.0041066  93.0658494  48.9335241  71.8614101
  92.9143348  42.1511112  73.2672593  93.2202225  41.2908475  72.9798508
  93.6395953  42.7428732  73.0671587  87.1864428  52.4464905  73.7748784
  87.2413038  51.4938741  73.6991261  86.3755630  52.6024344  74.2590083
  85.1256788  51.0641964  71.5339163  84.3124653  51.3636135  71.9404355
  85.6215782  50.6697653  72.2513645  90.7231000  51.5283789  80.3654057
  91.0780387  51.7555262  81.2248523  91.3703131  51.8602166  79.7431312
  96.4528736  54.6502225  71.0703386  96.3146635  54.8403821  70.1424575
  96.0964955  55.4121608  71.5271437  84.6170863  48.6360320  77.1500398
  85.2570242  48.4949079  76.4523361  83.7848393  48.3494833  76.7739000
  96.4798116  56.7178752  76.0814658  96.9134623  56.6254041  76.9297712
  97.1929697  56.6936252  75.4434674  81.6199479  48.6060645  71.9273385
  81.8806296  49.5205978  71.8182545  82.4416651  48.1385088  72.0769998
  83.0924404  50.0198402  79.0972209  83.7647458  49.8115764  78.4484858
  82.2654191  49.8220488  78.6577442  97.3413666  56.7602452  78.6147543
  97.5349556  57.6648263  78.8606818  97.2414284  56.3009872  79.4486128
  88.9949976  46.6460343  81.1137870  88.3477891  47.3450293  81.0202347
  89.7650992  47.0796487  81.4814118  92.4028774  56.9109195  84.1888424
  92.2514281  56.6819747  83.2718507  92.3933454  57.8679797  84.2019769
  89.1714111  54.4841108  79.1734690  90.1006171  54.6352268  79.0003657
  88.7505141  54.5725129  78.3183337  83.4951902  53.2941005  79.8574647
  83.3571700  52.5621244  80.4586186  84.4056825  53.2049905  79.5758834
  86.1234202  53.0060964  79.3458326  86.8333821  52.3654157  79.3044945
  86.0803510  53.2573859  80.2684507  94.1120981  59.9428318  82.2664905
  94.0533527  59.2587538  81.5995488  94.5140499  60.6847308  81.8145531
  84.8363136  49.9926182  81.1653966  84.3000493  49.5416921  81.8175562
  84.2479845  50.1272091  80.4224430  83.1311680  66.7590232  75.0598624
  83.3708278  67.3908756  75.7377643  82.2880876  66.4078272  75.3463984
  94.1138388  57.9067902  80.4978885  93.2265167  57.5693824  80.6205284
  94.6836939  57.1750933  80.7347650  80.5702257  49.1282190  78.2506960
  80.4860446  48.5207860  77.5157370  79.7484964  49.6191208  78.2516457
  87.6439542  62.5669354  77.4640128  87.5709713  63.3724326  77.9759433
  87.2016935  62.7661320  76.6388150  90.7425971  47.6135754  73.6177155
  91.2394671  46.8605716  73.2978225  89.9712953  47.6500070  73.0520365
  98.5955729  53.3176119  75.2595447  98.5845605  54.2000835  74.8889380
  97.7273108  52.9647670  75.0649984  90.1038225  62.4656188  79.6198287
  90.8166197  63.1003653  79.5474188  89.6128254  62.5620054  78.8038289
  87.3260940  49.7553137  73.3448840  86.9558728  49.2024177  74.0329745
  87.8220033  49.1511270  72.7923840  95.2128303  52.2124760  71.7265613
  95.6788756  53.0452752  71.6525915  95.6635804  51.7469742  72.4310871
  85.1550139  60.2150632  80.4403858  85.8559598  60.8487115  80.5933252
  84.6845254  60.5565363  79.6799497  93.1844966  44.5805347  75.7656514
  92.2708046  44.8109574  75.9338721  93.6138068  44.6643791  76.6170546
  92.9551425  52.7695239  78.2656408  92.3022875  53.0171146  77.6108861
  93.3331805  51.9559377  77.9318885  89.0038998  53.5115050  84.7522445
  88.3279635  53.4109179  85.4224820  89.8266632  53.3554264  85.2158442
  80.7517857  59.7486987  77.3734960  81.3371294  59.0030675  77.5062865
  80.5542695  60.0590943  78.2571624  75.3435511  52.3192587  76.0939404
  75.3819611  51.7856178  76.8876522  74.8375804  51.7927792  75.4750381
  87.7461781  64.8181978  78.9880061  88.2980089  64.9813599  79.7529146
  88.0867974  65.4086415  78.3160086  82.7226274  47.1657127  79.5901946
  82.7867600  48.0271958  79.1779344  82.6593394  46.5531129  78.8574304
  82.1978546  49.2380260  83.2374980  82.8250585  48.8557337  83.8512504
  81.3406465  49.0194462  83.6030673  92.5972655  59.6443235  84.8428716
  93.1412559  60.2573193  84.3483670  92.0159500  60.2022813  85.3595729
  82.5038336  49.1212686  75.1520884  81.7824922  49.7348653  75.0128357
  83.2931592  49.6570450  75.0737530  92.9465076  60.5672973  77.6023293
  91.9995412  60.4478324  77.5301620  93.2947849  59.6795471  77.6849555
  85.3064650  46.4567112  81.4261535  85.8299051  46.7029409  82.1887845
  85.0876983  47.2887147  81.0064673  83.8173754  49.0143756  69.6608138
  84.1569826  49.5429678  68.9386746  84.2645874  49.3524163  70.4366704
  86.5117195  47.3980807  79.1111206  86.1714015  46.5988620  79.5131886
  85.8056201  47.6982518  78.5388039  87.1633666  44.4830120  77.5638529
  87.9859736  44.0090598  77.4417419  87.4071730  45.2620603  78.0637215
  89.9473024  48.2163527  68.7959763  90.1636638  49.0988165  68.4948591
  89.4667091  47.8249740  68.0665405  84.6872245  51.1749240  75.3730508
  84.5416826  51.4889543  76.2654789  84.2097449  51.7934141  74.8201406
  86.5468628  48.1651788  75.4211397  86.5330197  47.2692882  75.0843695
  87.2641056  48.1722452  76.0549683  88.3994759  48.5989128  77.4664524
  88.1412537  49.5206199  77.4648855  87.8679799  48.2019563  78.1564989
  79.1617907  53.7154585  78.3118169  78.6171375  54.4914393  78.4438443
  80.0397257  54.0625389  78.1537290  85.9505524  47.0466168  70.6898967
  86.0721435  46.1182815  70.8889855  85.6607566  47.0604854  69.7777283
  88.8196714  44.7321079  73.8265687  88.8418411  44.7960412  72.8717667
  89.2364773  43.8925588  74.0206193  99.1980339  54.4676338  71.8644910
  99.6411485  53.7183664  71.4664033  98.3206849  54.4586475  71.4818642
  79.9483929  52.8424481  81.2048326  79.2065665  52.9907116  81.7912956
  79.6276674  53.1032747  80.3415075  96.2307543  58.4706385  68.8738839
  96.7558867  58.8093658  68.1488159  96.1429896  57.5353401  68.6901974
  87.8927592  62.3840459  81.0028716  88.2014718  62.1389606  81.8751415
  88.6903074  62.5887098  80.5147586  85.4346604  48.5598166  84.8988900
  85.4834759  49.4360289  84.5166669  85.9769118  48.0175559  84.3260543
  95.9201449  59.1039289  84.1790037  95.1296993  59.0863428  83.6394536
  95.6834804  59.6427583  84.9339073  96.0399324  55.9531755  81.4922765
  96.0897329  55.7881763  82.4338288  95.9313248  55.0859015  81.1020646
  93.3303087  51.9362684  82.8082072  94.2312949  51.7969148  82.5166070
  93.4051061  52.1017138  83.7480250  87.6645892  49.3129538  81.6535258
  86.7949201  49.6063104  81.3817847  87.9005372  49.8969983  82.3742522
  97.5417521  58.3728697  81.7364787  97.2502329  58.7358678  82.5728248
  96.9289652  57.6595705  81.5578119  98.7413203  55.9381577  74.2567357
  99.5760095  56.3771381  74.4204918  98.8772332  55.4620230  73.4375603
  95.7904709  53.4961312  80.2044845  96.2658831  53.6888958  79.3963696
  94.8670275  53.5520497  79.9588229  90.3684926  45.5309155  79.1700679
  90.8866870  46.2670182  78.8447167  90.0140059  45.8373148  80.0047438
  90.6197520  41.9509438  74.6901575  90.8999274  41.2832627  75.3162002
  91.4048127  42.1438533  74.1776239  94.4906378  50.3727072  78.4373151
  95.4423801  50.4725169  78.4585375  94.3209829  49.5805340  78.9471235
  92.5120758  47.4582655  78.6232551  91.9170690  47.7387668  77.9279040
  92.2270455  47.9476556  79.3949293  94.2716265  60.7271452  64.3439132
  94.1929896  60.3931316  65.2374890  95.0925932  61.2193220  64.3430604
  96.9694456  53.5933191  77.5515450  96.9370776  52.6549192  77.7375134
  97.5795080  53.6717228  76.8181275  97.1188945  50.3844235  77.5973733
  96.6027993  49.6002691  77.4103662  98.0028893  50.0562951  77.7620253
  94.7799672  44.1285250  73.5569546  94.5824493  43.8200339  74.4412878
  95.3899377  44.8546889  73.6867476 102.7871006  54.6549198  76.6921487
 103.5174394  54.3934486  77.2529190 102.1777951  53.9177920  76.7323555
 100.8686303  52.7957061  77.2895938 100.1419467  52.6613026  76.6812430
 100.4533590  53.1033889  78.0952656  88.6916480  56.5146991  85.0543311
  89.6119489  56.6925590  85.2483358  88.6566063  55.5703036  84.9023010
  77.9098645  51.7085584  73.9796586  77.5901429  50.8550892  73.6870960
  77.3632073  51.9234162  74.7354553  81.6878552  54.4248025  77.6966092
  81.9064562  55.3565133  77.7154126  82.1004326  54.0656000  78.4820896
  88.6082770  44.9316110  69.6841781  87.7983498  44.5863195  70.0597027
  89.2967187  44.6223654  70.2729392  90.5373318  44.0094157  71.3066077
  91.0904357  44.4289611  71.9656101  90.7743405  43.0829905  71.3489033
  86.5606417  49.9981231  87.0868841  86.4603144  50.9475588  87.0180932
  86.3427959  49.6699470  86.2144911  77.7786905  55.3288496  75.9489707
  77.0850376  54.9142448  75.4359662  78.5259896  55.3709032  75.3523126
  93.9152125  46.1194682  70.8144742  93.3350794  46.7779486  70.4322794
  93.6488058  45.2972027  70.4032159  92.3655692  45.5199740  73.0166062
  92.8655470  45.6316275  72.2080381  93.0091300  45.2160793  73.6566870
  86.4237687  53.4278370  85.9033903  85.9404769  54.2278730  86.1097792
  86.5098626  53.4386315  84.9501347  82.3511025  57.3182904  77.9402337
  83.3054278  57.2866847  77.8732268  82.1523549  56.8573528  78.7552563
  82.9410407  55.8884021  80.5073134  83.7603296  56.3828099  80.5307972
  83.2147215  54.9715989  80.4790702  92.6977003  48.2794773  69.8701090
  91.8102858  48.5644423  69.6521285  93.1130992  48.1188536  69.0228367
  96.0491539  48.3041294  73.5855429  96.8251930  48.7937746  73.8580046
  95.3239674  48.7299348  74.0427299  98.4864098  49.0168913  74.6429370
  99.0808589  48.7764649  73.9322678  98.5590682  48.2976044  75.2702906
  80.7061254  62.8602524  74.9572535  80.5715722  62.1002925  74.3910533
  80.2893316  63.5843424  74.4901324  92.6718027  53.7949309  70.0851380
  92.6153228  54.2517860  69.2459012  93.2246369  53.0339993  69.9074223
  96.4822833  49.5839041  70.9101500  96.2259767  49.1835676  71.7409707
  95.8575701  50.2982835  70.7851639 100.7935171  52.3235114  73.4172791
 100.2334729  52.3928303  74.1904353 100.1878674  52.1476099  72.6972287
  83.8630380  63.7571841  75.1690977  83.7462764  64.7017273  75.0669668
  83.0422826  63.4545403  75.5576776  93.4052806  54.9854090  67.3803909
  93.3501610  54.8198361  66.4392353  92.7798862  55.6930123  67.5366099
  78.1945321  50.2222154  81.2065331  78.8404185  49.7121108  81.6952557
  77.9862472  50.9590836  81.7808757  90.7198714  57.2903002  86.7057472
  91.5889873  57.4643654  86.3444107  90.2405465  58.1097419  86.5833201
  86.7148932  44.4862199  66.9589228  86.7027602  45.4304039  67.1157499
  87.6072354  44.3032344  66.6648689  84.8884894  64.4100103  78.3846906
  85.7912140  64.4423713  78.7013401  84.6622264  63.4800554  78.3993241
  90.5301051  41.0804976  71.2135164  89.7633447  40.5263462  71.3591847
  90.9411756  41.1526844  72.0749316  82.5342812  47.3689771  85.3040346
  83.3974274  47.0126576  85.5143670  81.9608223  47.0303666  85.9915750
 102.3791189  68.9991628  76.1102747 103.0169599  68.8798375  75.4066087
 102.2612032  69.9472472  76.1690699  99.1880896  68.9519056  76.0464271
  98.8499407  68.8360121  75.1584806 100.0570664  68.5510221  76.0265278
  95.0467711  70.8054532  72.0361162  94.4832576  70.7144469  71.2677450
  94.9320106  69.9854437  72.5163655  99.6700679  70.1053908  82.0050477
  99.6589319  69.7106706  81.1330981  99.8321318  69.3719980  82.5984248
  92.5932143  72.3005724  74.8745383  93.3853435  71.9596549  74.4591682
  92.8328793  72.4100699  75.7947536 100.6267270  74.4725500  67.3475627
  99.9755250  75.0579580  66.9609641 101.4211633  75.0031695  67.4070665
  94.5522897  71.5614637  67.7462762  95.3253773  71.0143624  67.6075637
  94.9048296  72.4258887  67.9577223  96.3907940  72.8891019  80.9529661
  96.0997806  73.7936650  80.8376327  97.0264924  72.9307547  81.6673730
  97.3164147  70.2667868  77.5431021  97.9127719  70.0423890  76.8287984
  97.3739118  69.5252613  78.1456468  96.8889175  67.7207303  65.3781212
  97.1414696  67.1988825  64.6164675  95.9513734  67.5573449  65.4807895
 101.9332458  66.7243082  73.1855955 102.7195547  66.3062505  72.8346372
 102.1971162  67.6289174  73.3537603 102.1042535  72.1615932  67.8844612
 101.4688368  72.2350558  68.5965516 101.7739941  72.7509531  67.2063691
 107.3340885  66.6618315  74.0888933 108.0666057  66.0917532  74.3226763
 106.5780241  66.2739915  74.5295439  96.6085464  69.6235409  67.5805586
  96.4921722  68.9480313  68.2486671  96.7187724  69.1367783  66.7637740
  98.9517005  69.0845556  71.2852276  98.5875212  68.5576177  71.9965197
  99.8084120  68.6944025  71.1118761 104.8566305  60.3739889  78.5483542
 104.5249630  61.2435300  78.3244757 104.2611919  60.0576173  79.2277572
  98.5922492  64.1135456  66.2813624  98.7596894  64.9815692  66.6484095
  98.4019661  64.2762738  65.3574913 101.3497825  72.5752435  77.9479455
 101.0498548  73.4777474  77.8395262 101.0048884  72.3084618  78.8000607
 104.7494969  65.0934975  75.6276892 103.8411846  65.0250384  75.3335653
 104.6982564  65.5706920  76.4558717  98.5711712  66.5693114  67.2660291
  98.4511338  67.0150164  68.1045771  97.8764301  66.9178431  66.7073829
  96.3318605  79.3396755  70.9150422  96.2542634  80.2904580  70.9938903
  95.7280248  78.9942628  71.5725349  98.8235834  66.5124621  83.5711789
  98.0469168  67.0718541  83.5614654  99.4626397  66.9981404  84.0926659
 106.6156615  63.2951414  77.4054766 105.9730995  63.5883947  76.7594560
 106.1111543  63.1804334  78.2107963 104.2696779  67.0414587  68.0940625
 105.1814635  67.2741973  67.9188323 103.7606426  67.6251631  67.5315704
  97.0782207  69.3210074  83.1329756  97.8196891  69.8595118  82.8564580
  96.3719192  69.9476363  83.2901308 102.5537546  71.4639215  81.7301918
 102.9620902  71.0221625  80.9856550 101.8314808  70.8891842  81.9836111
  98.9068616  66.4011821  79.1035475  99.7529812  66.8251235  79.2470124
  98.8467254  65.7445446  79.7974038 102.8766361  72.0240405  75.4854207
 102.2475223  72.1886119  74.7830274 102.4892023  72.4382015  76.2565171
 106.7555593  72.9594843  72.8398570 106.0706631  73.3393744  72.2895604
 106.8399442  73.5690170  73.5730518 102.0568062  64.0616190  80.7616648
 101.8128994  64.8158250  80.2250924 102.3327992  64.4401537  81.5963895
 104.0106524  70.6054802  79.4393914 104.2223420  71.2486562  78.7628295
 103.9636273  69.7717119  78.9715844 101.6132753  63.2172623  76.3430486
 100.7517232  63.5153876  76.6347224 101.6395188  63.4343022  75.4111519
  98.4294323  71.7614813  72.7504292  98.8932668  72.0402516  71.9608914
  98.1651121  70.8598258  72.5677382  95.3218404  71.3086295  75.6884055
  95.8919761  71.7373563  75.0501539  95.9126516  71.0268880  76.3868241
  97.3663209  67.8837966  69.5593857  98.0687252  68.3359009  70.0267783
  97.0343837  67.2421785  70.1873750  95.8143570  66.4749722  83.9345066
  95.1842231  67.1566003  84.1680463  95.7079658  66.3632804  82.9898204
 105.1252352  73.4826757  77.6116271 105.9469796  73.0806945  77.3298953
 105.1214755  73.3794992  78.5632387  98.8908956  73.0310801  79.7676982
  98.9553388  73.4931208  80.6035154  98.1819880  72.4008166  79.8959292
 113.2158345  69.8265506  73.9601243 112.4622054  69.2572904  73.8045247
 113.3505887  69.7928170  74.9071877  98.6056973  74.6978908  69.6355962
  98.4702648  75.5430444  70.0640810  99.1466786  74.8998186  68.8721896
  95.0924313  60.7770488  86.2970317  94.6991259  60.2236687  86.9717961
  95.9090453  61.0881067  86.6876835  92.0586371  72.2154346  70.2083887
  92.5710891  73.0097597  70.3589452  92.7109084  71.5180637  70.1417489
  93.8681256  75.3320103  72.2906640  94.0447884  76.2538067  72.1027624
  94.6638089  75.0178522  72.7201020  98.0092274  62.1928367  83.8890574
  98.7501987  62.7935520  83.8095036  98.2410197  61.4506005  83.3308616
  93.1533612  67.3784734  82.1668804  93.0387127  66.4769992  82.4675902
  92.2978130  67.6248431  81.8153620 100.2325450  75.3202475  83.7656304
  99.7889304  74.5338853  83.4477209 100.8942663  75.5081625  83.1000195
  94.9912571  76.8498276  78.2916983  95.5419996  76.7215340  77.5193977
  94.1524047  77.1493165  77.9411875 102.3306688  75.6005275  81.7937705
 102.3125163  76.4214156  81.3017975 103.2526608  75.4759350  82.0187847
  98.7879742  73.1149404  82.6361214  99.3208079  72.3537692  82.4060522
  98.2593823  72.8223056  83.3785368 101.9549437  58.2209470  78.1654855
 101.6113706  59.1111112  78.0893966 102.3228400  58.0311128  77.3024441
  90.0235288  70.5443001  70.9843458  90.8610510  70.9540009  70.7677165
  90.2013555  69.6042443  70.9543652 101.9199720  68.2118081  66.6727291
 101.4046343  68.9822686  66.9115678 101.6477028  67.5383217  67.2960352
  99.5046831  63.0567782  71.7312529  98.6488427  62.6674632  71.5518168
  99.9173783  63.1359743  70.8712315 101.0345977  60.5914125  76.1304089
 100.5310773  60.5544260  75.3171894 101.3276584  61.5006868  76.1900745
  97.2788863  60.6752855  75.1370270  98.1441860  60.4795664  74.7776160
  97.3466372  60.4463207  76.0639627 106.8933994  70.9650436  68.6080464
 106.1163437  70.6261595  68.1635626 107.5725475  70.9703059  67.9335429
 101.7086023  66.0845173  68.4987072 101.4036158  66.3991323  69.3497215
 102.6616465  66.1626593  68.5414405 100.1532455  72.2435397  70.1480026
  99.6253816  71.5088156  69.8353263  99.6519957  73.0210073  69.9019994
 105.1325301  70.4384417  75.2647072 104.4748975  71.1283679  75.3527201
 105.9365700  70.8280849  75.6081058 103.9430760  68.7928790  73.3151014
 104.4562641  69.4258782  73.8172724 104.5931983  68.1929985  72.9494374
  98.2985055  70.0615607  63.1514999  97.3912117  69.8304860  63.3506148
  98.7956087  69.2653226  63.3388980 101.2053134  78.7713114  66.0711685
 100.5314833  79.0744811  66.6796643 101.5918956  79.5742194  65.7217142
 100.4211590  66.2678245  75.5609354  99.5034152  66.4893192  75.4031042
 100.8371734  66.3424556  74.7021062 101.2046638  67.6669661  70.6912035
 101.9518457  68.1791058  70.3819157 101.4738228  67.3453714  71.5516428
  99.4773288  70.1628202  67.6738989  98.5684508  69.8787235  67.7711459
  99.5068372  70.5827280  66.8142296 104.7092556  73.7734791  71.4430156
 104.2554883  72.9325701  71.4995347 104.0786523  74.4096190  71.7804937
 103.6525475  64.7026777  72.6730824 102.9148232  64.1904164  73.0041066
 103.9052249  64.2627159  71.8614101 103.1525495  75.6111288  72.3779975
 103.4448469  76.1716345  71.6592340 103.6624116  75.9039849  73.1333134
 103.7537103  57.4803029  73.2672593 104.0595979  56.6200393  72.9798508
 104.4789707  58.0720650  73.0671587  98.0258182  67.7756822  73.7748784
  98.0806792  66.8230659  73.6991261  97.2149384  67.9316261  74.2590083
  99.1749376  71.7036945  65.0127067  98.7368806  70.9872804  64.5532705
  99.9159817  71.9313060  64.4512159  98.1159120  76.3891639  73.4673428
  98.0735299  76.6152485  72.5381960  99.0321819  76.1555014  73.6159229
 101.5624754  66.8575707  80.3654057 101.9174142  67.0847180  81.2248523
 102.2096885  67.1894083  79.7431312 107.2922491  69.9794143  71.0703386
 107.1540390  70.1695738  70.1424575 106.9358710  70.7413525  71.5271437
 107.3191871  72.0470670  76.0814658 107.7528377  71.9545959  76.9297712
 108.0323451  72.0228170  75.4434674  96.2324921  73.2654668  73.2635391
  97.0265519  72.7704988  73.0617965  95.5216613  72.7372531  72.9003096
 101.0519765  75.6472764  77.6147758 101.1056788  76.2163700  78.3825474
 100.1834547  75.8174649  77.2501795 108.1807420  72.0894370  78.6147543
 108.3743310  72.9940181  78.8606818 108.0808038  71.6301789  79.4486128
  99.8343731  61.9752261  81.1137870  99.1871646  62.6742210  81.0202347
 100.6044746  62.4088405  81.4814118 103.2422529  72.2401113  84.1888424
 103.0908035  72.0111665  83.2718507 103.2327208  73.1971714  84.2019769
 100.0107865  69.8133026  79.1734690 100.9399925  69.9644185  79.0003657
  99.5898895  69.9017046  78.3183337  98.8096197  73.8383690  76.9433228
  98.6707283  73.4702474  77.8159166  98.0210793  74.3531330  76.7717185
  99.4044349  78.9392787  68.2858764  99.5796105  78.4680830  69.1004387
  98.7177137  79.5658553  68.5140025 100.3601412  73.2165293  74.3322065
 100.0251245  73.1766063  75.2279715  99.8605358  72.5510009  73.8592476
 103.2960604  70.5621327  64.6059125 102.6789774  69.8368155  64.5092178
 102.8277092  71.3230687  64.2626199  96.9627957  68.3352882  79.3458326
  97.6727575  67.6946074  79.3044945  96.9197265  68.5865777  80.2684507
 104.9514735  75.2720235  82.2664905 104.8927282  74.5879456  81.5995488
 105.3534254  76.0139225  81.8145531  95.6756891  65.3218100  81.1653966
  95.1394248  64.8708838  81.8175562  95.0873599  65.4564009  80.4224430
  93.9705434  82.0882149  75.0598624  94.2102032  82.7200673  75.7377643
  93.1274631  81.7370189  75.3463984 104.9532143  73.2359819  80.4978885
 104.0658921  72.8985741  80.6205284 105.5230694  72.5042851  80.7347650
  86.6061290  69.5683911  73.8221936  87.2932330  69.2545641  73.2342952
  86.4509419  70.4725276  73.5489188  98.4833296  77.8961272  77.4640128
  98.4103468  78.7016243  77.9759433  98.0410689  78.0953238  76.6388150
  98.2723076  77.1333042  70.9742950  97.4890598  77.6754722  71.0681174
  98.9715821  77.6507021  71.3737191 101.5819726  62.9427671  73.6177155
 102.0788425  62.1897634  73.2978225 100.8106707  62.9791988  73.0520365
 109.4349483  68.6468037  75.2595447 109.4239360  69.5292752  74.8889380
 108.5666863  68.2939588  75.0649984 100.9431980  77.7948106  79.6198287
 101.6559952  78.4295571  79.5474188 100.4522008  77.8911972  78.8038289
 102.6649507  71.6999358  71.1915579 101.7305785  71.8200821  71.0220283
 102.8426175  70.7971825  70.9275588  98.1654695  65.0845054  73.3448840
  97.7952482  64.5316095  74.0329745  98.6613787  64.4803188  72.7923840
 106.0522058  67.5416678  71.7265613 106.5182510  68.3744669  71.6525915
 106.5029558  67.0761659  72.4310871  95.9943893  75.5442549  80.4403858
  96.6953353  76.1779032  80.5933252  95.5239008  75.8857281  79.6799497
 104.1198289  73.8860499  68.7251765 104.3958133  73.7717094  69.6345639
 103.2502788  73.4877984  68.6863938 104.0238721  59.9097265  75.7656514
 103.1101800  60.1401492  75.9338721 104.4531822  59.9935709  76.6170546
 103.7945179  68.0987157  78.2656408 103.1416629  68.3463064  77.6108861
 104.1725559  67.2851295  77.9318885 100.7552353  78.1346850  72.3684578
 100.9374748  77.3168506  72.8312331 101.5785339  78.3514542  71.9309468
 101.0894519  77.0615035  69.6299627 101.6182285  76.5507490  69.0169789
 101.3522738  76.7457565  70.4945160  99.8432752  68.8406968  84.7522445
  99.1673389  68.7401097  85.4224820 100.6660386  68.6846181  85.2158442
  91.5911611  75.0778904  77.3734960  92.1765048  74.3322592  77.5062865
  91.3936450  75.3882861  78.2571624  94.4450266  78.1130152  72.3897403
  93.7760642  78.5976279  71.9061443  94.3063136  78.3599372  73.3040781
  86.1829266  67.6484505  76.0939404  86.2213365  67.1148095  76.8876522
  85.6769559  67.1219710  75.4750381  98.5855535  80.1473895  78.9880061
  99.1373843  80.3105517  79.7529146  98.9261728  80.7378333  78.3160086
  93.5620028  62.4949045  79.5901946  93.6261355  63.3563876  79.1779344
  93.4987149  61.8823047  78.8574304  93.0372301  64.5672178  83.2374980
  93.6644340  64.1849255  83.8512504  92.1800220  64.3486379  83.6030673
 103.4366409  74.9735153  84.8428716 103.9806313  75.5865111  84.3483670
 102.8553254  75.5314731  85.3595729 101.7223922  78.0955871  75.9743743
 101.5975062  77.2945611  75.4654689 102.3803013  78.5902064  75.4857713
 103.7858831  75.8964891  77.6023293 102.8389166  75.7770242  77.5301620
 104.1341604  75.0087389  77.6849555  96.1458404  61.7859030  81.4261535
  96.6692806  62.0321326  82.1887845  95.9270737  62.6179065  81.0064673
 100.7905264  75.6917607  73.8027646 100.6430226  74.7634314  73.9835216
 101.6158758  75.7137698  73.3184721 104.3939386  76.5146166  74.8892518
 105.3185933  76.3089027  74.7516970 104.2254689  76.2662567  75.7981860
  97.3510949  62.7272725  79.1111206  97.0107769  61.9280538  79.5131886
  96.6449955  63.0274436  78.5388039  98.0027421  59.8122037  77.5638529
  98.8253490  59.3382515  77.4417419  98.2465484  60.5912521  78.0637215
 100.7866778  63.5455445  68.7959763 101.0030393  64.4280083  68.4948591
 100.3060845  63.1541658  68.0665405  97.3862383  63.4943706  75.4211397
  97.3723951  62.5984799  75.0843695  98.1034811  63.5014370  76.0549683
  99.2388513  63.9281046  77.4664524  98.9806291  64.8498117  77.4648855
  98.7073554  63.5311481  78.1564989 104.1834702  77.0331833  70.2454610
 104.3571580  76.4678256  69.4928462 104.6763593  77.8332728  70.0634100
  90.0011662  69.0446502  78.3118169  89.4565130  69.8206310  78.4438443
  90.8791012  69.3917307  78.1537290  99.6590469  60.0612997  73.8265687
  99.6812166  60.1252330  72.8717667 100.0758528  59.2217505  74.0206193
 110.0374093  69.7968256  71.8644910 110.4805239  69.0475581  71.4664033
 109.1600604  69.7878393  71.4818642 105.1709875  76.3498598  67.3451508
 105.8660779  76.9705290  67.5638823 105.5133025  75.4993949  67.6203886
  90.7877684  68.1716399  81.2048326  90.0459420  68.3199034  81.7912956
  90.4670428  68.4324664  80.3415075 107.0701298  73.7998303  68.8738839
 107.5952622  74.1385576  68.1488159 106.9823650  72.8645318  68.6901974
  98.7321346  77.7132377  81.0028716  99.0408473  77.4681524  81.8751415
  99.5296828  77.9179015  80.5147586  98.7541958  79.8670286  73.2334092
  98.3146949  79.3746665  73.9266949  99.5050075  79.3243254  72.9926167
  91.2334297  76.0581827  73.2358720  92.0592317  75.7585599  72.8557364
  90.8828349  75.2889450  73.6848509  96.2015831  75.4108296  75.3056394
  95.5795840  74.7479001  75.0058622  96.8720697  75.4369427  74.6230042
  89.4342902  73.9768154  74.1947654  88.5974811  73.5490328  74.0131655
  89.4066548  74.1700597  75.1318445  96.2740358  63.8890084  84.8988900
  96.3228514  64.7652206  84.5166669  96.8162872  63.3467477  84.3260543
 106.7595204  74.4331207  84.1790037 105.9690747  74.4155346  83.6394536
 106.5228558  74.9719500  84.9339073 106.8793079  71.2823673  81.4922765
 106.9291084  71.1173681  82.4338288 106.7707002  70.4150932  81.1020646
  95.7629337  73.9612219  68.7814854  95.9117458  74.6447683  68.1281527
  96.5695781  73.9417309  69.2964310 104.1696841  67.2654601  82.8082072
 105.0706704  67.1261066  82.5166070 104.2444816  67.4309056  83.7480250
  98.5039646  64.6421456  81.6535258  97.6342956  64.9355022  81.3817847
  98.7399127  65.2261901  82.3742522 108.3811276  73.7020615  81.7364787
 108.0896084  74.0650595  82.5728248 107.7683407  72.9887623  81.5578119
 109.5806958  71.2673494  74.2567357 110.4153849  71.7063299  74.4204918
 109.7166087  70.7912148  73.4375603 106.6298464  68.8253229  80.2044845
 107.1052585  69.0180876  79.3963696 105.7064029  68.8812415  79.9588229
  93.5181970  69.9877396  69.7875923  93.2728012  69.0839726  69.9856133
  93.6877885  69.9894547  68.8455401 101.2078680  60.8601073  79.1700679
 101.7260624  61.5962100  78.8447167 100.8533813  61.1665066  80.0047438
 101.4591274  57.2801355  74.6901575 101.7393028  56.6124544  75.3162002
 102.2441881  57.4730451  74.1776239  99.2624743  76.4560349  66.2526602
  98.6898710  77.0750536  65.7997074  99.8357537  77.0059711  66.7866524
 105.3300133  65.7018989  78.4373151 106.2817556  65.8017087  78.4585375
 105.1603583  64.9097258  78.9471235 103.3514512  62.7874573  78.6232551
 102.7564444  63.0679585  77.9279040 103.0664209  63.2768474  79.3949293
 102.4822003  76.7397499  67.3835184 103.4152676  76.6743061  67.5868060
 102.3945216  77.5753766  66.9249717 105.1110019  76.0563370  64.3439132
 105.0323651  75.7223233  65.2374890 105.9319686  76.5485138  64.3430604
 107.8088211  68.9225109  77.5515450 107.7764531  67.9841110  77.7375134
 108.4188834  69.0009146  76.8181275  99.6471541  67.7921162  63.5942654
 100.5930646  67.6627370  63.6631072  99.2685786  67.0535824  64.0712082
 107.9582699  65.7136153  77.5973733 107.4421748  64.9294609  77.4103662
 108.8422648  65.3854869  77.7620253 105.6193426  59.4577168  73.5569546
 105.4218247  59.1492256  74.4412878 106.2293132  60.1838807  73.6867476
 113.6264760  69.9841116  76.6921487 114.3568149  69.7226404  77.2529190
 113.0171706  69.2469838  76.7323555 111.7080058  68.1248979  77.2895938
 110.9813221  67.9904943  76.6812430 111.2927344  68.4325807  78.0952656
  99.5310234  71.8438908  85.0543311 100.4513243  72.0217507  85.2483358
  99.4959817  70.8994954  84.9023010  97.8314459  65.7171138  63.5297539
  96.9245914  65.4204251  63.6060253  98.1090440  65.4200957  62.6631826
  99.4476524  60.2608028  69.6841781  98.6377253  59.9155113  70.0597027
 100.1360941  59.9515572  70.2729392 101.3767073  59.3386075  71.3066077
 101.9298111  59.7581528  71.9656101 101.6137159  58.4121823  71.3489033
  97.4000172  65.3273149  87.0868841  97.2996899  66.2767506  87.0180932
  97.1821714  64.9991388  86.2144911  96.6013243  62.5758074  63.6709519
  97.4632407  62.9012972  63.9305336  96.7863587  61.7889570  63.1582584
  88.6180659  70.6580413  75.9489707  87.9244130  70.2434366  75.4359662
  89.3653650  70.7000950  75.3523126 104.7545880  61.4486600  70.8144742
 104.1744549  62.1071404  70.4322794 104.4881812  60.6263945  70.4032159
 103.2049446  60.8491658  73.0166062 103.7049224  60.9608192  72.2080381
 103.8485054  60.5452711  73.6566870  97.2631442  68.7570287  85.9033903
  96.7798524  69.5570648  86.1097792  97.3492381  68.7678232  84.9501347
  90.5317402  70.5898667  73.8255722  90.5088090  70.6886354  72.8737605
  90.8418038  71.4363818  74.1472888  93.1904779  72.6474822  77.9402337
  94.1448033  72.6158764  77.8732268  92.9917303  72.1865446  78.7552563
  93.7804162  71.2175938  80.5073134  94.5997051  71.7120017  80.5307972
  94.0540969  70.3007906  80.4790702 103.5370758  63.6086691  69.8701090
 102.6496613  63.8936341  69.6521285 103.9524747  63.4480454  69.0228367
 106.8885294  63.6333211  73.5855429 107.6645684  64.1229664  73.8580046
 106.1633428  64.0591266  74.0427299 109.3257853  64.3460831  74.6429370
 109.9202343  64.1056567  73.9322678 109.3984436  63.6267961  75.2702906
  91.5455008  78.1894442  74.9572535  91.4109476  77.4294843  74.3910533
  91.1287070  78.9135342  74.4901324 102.6813971  73.3731365  63.9649110
 103.3849821  73.5781368  64.5806766 101.9576620  73.9408127  64.2298193
 103.5111782  69.1241226  70.0851380 103.4546983  69.5809778  69.2459012
 104.0640124  68.3631911  69.9074223 107.3216587  64.9130958  70.9101500
 107.0653522  64.5127594  71.7409707 106.6969455  65.6274752  70.7851639
 111.6328925  67.6527032  73.4172791 111.0728483  67.7220221  74.1904353
 111.0272429  67.4768016  72.6972287  94.7024134  79.0863759  75.1690977
  94.5856518  80.0309191  75.0669668  93.8816580  78.7837320  75.5576776
 104.5900669  73.8113894  66.0147570 105.4246273  73.3795093  65.8325045
 104.4285012  73.6395908  66.9424464 104.2446561  70.3146008  67.3803909
 104.1895365  70.1490279  66.4392353 103.6192616  71.0222041  67.5366099
  89.0339076  65.5514072  81.2065331  89.6797939  65.0413026  81.6952557
  88.8256227  66.2882754  81.7808757 101.5592468  72.6194920  86.7057472
 102.4283628  72.7935572  86.3444107 101.0799219  73.4389336  86.5833201
  97.5542686  59.8154117  66.9589228  97.5421356  60.7595957  67.1157499
  98.4466108  59.6324262  66.6648689  95.7278648  79.7392021  78.3846906
  96.6305895  79.7715631  78.7013401  95.5016018  78.8092472  78.3993241
  97.4832250  78.4923007  75.0456984  96.5327881  78.4924869  74.9321357
  97.7864736  77.7455742  74.5293019 101.3694806  56.4096893  71.2135164
 100.6027202  55.8555380  71.3591847 101.7805511  56.4818762  72.0749316
  93.3736567  62.6981689  85.3040346  94.2368028  62.3418494  85.5143670
  92.8001977  62.3595584  85.9915750 113.2184944  84.3283545  76.1102747
 113.8563354  84.2090293  75.4066087 113.1005787  85.2764389  76.1690699
 110.0274650  84.2810974  76.0464271 109.6893162  84.1652038  75.1584806
 110.8964418  83.8802139  76.0265278 105.8861466  86.1346450  72.0361162
 105.3226331  86.0436387  71.2677450 105.7713861  85.3146354  72.5163655
 110.5094433  85.4345825  82.0050477 110.4983074  85.0398624  81.1330981
 110.6715072  84.7011898  82.5984248 103.4325898  87.6297642  74.8745383
 104.2247190  87.2888466  74.4591682 103.6722548  87.7392617  75.7947536
 111.4661024  89.8017418  67.3475627 110.8149004  90.3871498  66.9609641
 112.2605387  90.3323613  67.4070665 105.3916652  86.8906555  67.7462762
 106.1647528  86.3435542  67.6075637 105.7442050  87.7550804  67.9577223
 107.2301694  88.2182937  80.9529661 106.9391560  89.1228568  80.8376327
 107.8658678  88.2599465  81.6673730 108.1557901  85.5959786  77.5431021
 108.7521473  85.3715808  76.8287984 108.2132873  84.8544531  78.1456468
 107.7282929  83.0499221  65.3781212 107.9808450  82.5280742  64.6164675
 106.7907488  82.8865366  65.4807895 112.7726212  82.0534999  73.1855955
 113.5589301  81.6354423  72.8346372 113.0364917  82.9581092  73.3537603
 112.9436290  87.4907850  67.8844612 112.3082123  87.5642476  68.5965516
 112.6133696  88.0801448  67.2063691 118.1734639  81.9910233  74.0888933
 118.9059811  81.4209449  74.3226763 117.4173995  81.6031833  74.5295439
 107.4479218  84.9527327  67.5805586 107.3315476  84.2772230  68.2486671
 107.5581478  84.4659701  66.7637740 109.7910759  84.4137474  71.2852276
 109.4268966  83.8868095  71.9965197 110.6477875  84.0235943  71.1118761
 115.6960060  75.7031807  78.5483542 115.3643384  76.5727218  78.3244757
 115.1005673  75.3868091  79.2277572 109.4316246  79.4427374  66.2813624
 109.5990648  80.3107610  66.6484095 109.2413415  79.6054655  65.3574913
 112.1891579  87.9044353  77.9479455 111.8892302  88.8069391  77.8395262
 111.8442639  87.6376536  78.8000607 105.6404061  84.3558149  73.9816159
 104.7154557  84.2234364  74.1893851 105.8888474  85.1352369  74.4786101
 115.5888723  80.4226893  75.6276892 114.6805600  80.3542301  75.3335653
 115.5376319  80.8998838  76.4558717 109.4105467  81.8985031  67.2660291
 109.2905092  82.3442082  68.1045771 108.7158055  82.2470349  66.7073829
 103.0012872  83.9991423  74.8159948 103.1305253  84.2525902  75.7299360
 102.3210323  84.5919131  74.4964603 107.1712359  94.6688673  70.9150422
 107.0936389  95.6196498  70.9938903 106.5674003  94.3234545  71.5725349
 109.6629589  81.8416538  83.5711789 108.8862923  82.4010459  83.5614654
 110.3020152  82.3273321  84.0926659 117.4550369  78.6243331  77.4054766
 116.8124750  78.9175864  76.7594560 116.9505298  78.5096252  78.2107963
 115.1090533  82.3706504  68.0940625 116.0208389  82.6033891  67.9188323
 114.6000180  82.9543549  67.5315704 107.9175961  84.6501992  83.1329756
 108.6590645  85.1887036  82.8564580 107.2112947  85.2768281  83.2901308
 113.3931301  86.7931132  81.7301918 113.8014657  86.3513543  80.9856550
 112.6708562  86.2183760  81.9836111 109.7462371  81.7303739  79.1035475
 110.5923566  82.1543153  79.2470124 109.6861008  81.0737363  79.7974038
 113.7160115  87.3532323  75.4854207 113.0868978  87.5178037  74.7830274
 113.3285777  87.7673932  76.2565171 117.5949347  88.2886761  72.8398570
 116.9100385  88.6685662  72.2895604 117.6793197  88.8982087  73.5730518
 112.8961816  79.3908107  80.7616648 112.6522748  80.1450168  80.2250924
 113.1721747  79.7693455  81.5963895 114.8500279  85.9346720  79.4393914
 115.0617174  86.5778480  78.7628295 114.8030027  85.1009036  78.9715844
 112.4526508  78.5464540  76.3430486 111.5910987  78.8445794  76.6347224
 112.4788943  78.7634939  75.4111519 109.2688077  87.0906731  72.7504292
 109.7326423  87.3694434  71.9608914 109.0044875  86.1890176  72.5677382
 106.1612158  86.6378212  75.6884055 106.7313515  87.0665481  75.0501539
 106.7520270  86.3560797  76.3868241 108.2056963  83.2129883  69.5593857
 108.9081007  83.6650927  70.0267783 107.8737592  82.5713702  70.1873750
 106.6537325  81.8041640  83.9345066 106.0235985  82.4857921  84.1680463
 106.5473413  81.6924722  82.9898204 101.9482297  81.4713436  74.8610990
 101.1581351  81.7270965  74.3851101 102.4393545  82.2861774  74.9663031
 115.9646107  88.8118675  77.6116271 116.7863551  88.4098862  77.3298953
 115.9608510  88.7086909  78.5632387 103.8997043  81.8358015  71.8194467
 103.1028206  81.9476709  72.3377963 103.6722635  82.1744667  70.9535358
 109.7302710  88.3602718  79.7676982 109.7947143  88.8223126  80.6035154
 109.0213634  87.7300083  79.8959292 100.2320000  81.7243926  77.2925981
 100.4828039  82.6090936  77.5583557 100.7679549  81.5448528  76.5201073
 109.4450728  90.0270826  69.6355962 109.3096403  90.8722362  70.0640810
 109.9860540  90.2290104  68.8721896 105.9318068  76.1062406  86.2970317
 105.5385013  75.5528604  86.9717961 106.7484208  76.4172984  86.6876835
 102.8980125  87.5446264  70.2083887 103.4104646  88.3389514  70.3589452
 103.5502838  86.8472554  70.1417489 104.7075010  90.6612020  72.2906640
 104.8841638  91.5829985  72.1027624 105.5031844  90.3470439  72.7201020
 108.8486029  77.5220285  83.8890574 109.5895742  78.1227438  83.8095036
 109.0803951  76.7797923  83.3308616 103.9927367  82.7076652  82.1668804
 103.8780882  81.8061909  82.4675902 103.1371884  82.9540349  81.8153620
 111.0719204  90.6494392  83.7656304 110.6283059  89.8630771  83.4477209
 111.7336418  90.8373543  83.1000195 105.8306326  92.1790194  78.2916983
 106.3813751  92.0507257  77.5193977 104.9917801  92.4785083  77.9411875
 113.1700442  90.9297192  81.7937705 113.1518918  91.7506073  81.3017975
 114.0920362  90.8051268  82.0187847 109.6273497  88.4441322  82.6361214
 110.1601833  87.6829610  82.4060522 109.0987578  88.1514974  83.3785368
 112.7943192  73.5501388  78.1654855 112.4507461  74.4403030  78.0893966
 113.1622154  73.3603045  77.3024441 100.8629042  85.8734918  70.9843458
 101.7004264  86.2831927  70.7677165 101.0407310  84.9334360  70.9543652
 112.7593474  83.5409999  66.6727291 112.2440098  84.3114604  66.9115678
 112.4870783  82.8675135  67.2960352 110.3440585  78.3859700  71.7312529
 109.4882182  77.9966550  71.5518168 110.7567537  78.4651661  70.8712315
 111.8739732  75.9206043  76.1304089 111.3704527  75.8836178  75.3171894
 112.1670339  76.8298786  76.1900745 108.1182618  76.0044773  75.1370270
 108.9835615  75.8087581  74.7776160 108.1860127  75.7755124  76.0639627
 117.7327748  86.2942354  68.6080464 116.9557191  85.9553513  68.1635626
 118.4119229  86.2994977  67.9335429 112.5479777  81.4137091  68.4987072
 112.2429913  81.7283240  69.3497215 113.5010220  81.4918511  68.5414405
 110.9926209  87.5727314  70.1480026 110.4647571  86.8380074  69.8353263
 110.4913712  88.3501991  69.9019994 115.9719055  85.7676335  75.2647072
 115.3142730  86.4575596  75.3527201 116.7759454  86.1572767  75.6081058
 105.7244937  78.2346981  72.5086637 106.2988689  78.0122162  71.7759830
 106.3115919  78.3035675  73.2615239 114.7824514  84.1220708  73.3151014
 115.2956396  84.7550699  73.8172724 115.4325738  83.5221903  72.9494374
 106.0514524  80.2651442  66.5282523 105.2151836  80.6026128  66.8491797
 105.9119294  80.1300421  65.5909660 108.0267605  75.1088230  71.2361707
 107.3732017  74.7937247  70.6118321 107.9848079  74.4863970  71.9621530
 109.1378809  85.3907525  63.1514999 108.2305871  85.1596778  63.3506148
 109.6349841  84.5945144  63.3388980 112.0446888  94.1005032  66.0711685
 111.3708587  94.4036729  66.6796643 112.4312710  94.9034112  65.7217142
 111.2605345  81.5970163  75.5609354 110.3427906  81.8185110  75.4031042
 111.6765489  81.6716474  74.7021062 112.0440393  82.9961579  70.6912035
 112.7912212  83.5082976  70.3819157 112.3131982  82.6745631  71.5516428
 110.3167043  85.4920119  67.6738989 109.4078262  85.2079152  67.7711459
 110.3462127  85.9119198  66.8142296 115.5486310  89.1026709  71.4430156
 115.0948637  88.2617619  71.4995347 114.9180277  89.7388107  71.7804937
 114.4919230  80.0318695  72.6730824 113.7541987  79.5196081  73.0041066
 114.7446003  79.5919077  71.8614101 113.9919250  90.9403206  72.3779975
 114.2842224  91.5008263  71.6592340 114.5017870  91.2331767  73.1333134
 114.5930857  72.8094947  73.2672593 114.8989734  71.9492310  72.9798508
 115.3183462  73.4012567  73.0671587 100.8855213  83.2125634  71.6554191
 100.6879613  82.6194994  70.9305258 100.3301877  82.9077844  72.3730130
 108.8651937  83.1048740  73.7748784 108.9200547  82.1522576  73.6991261
 108.0543139  83.2608179  74.2590083 110.0143131  87.0328863  65.0127067
 109.5762561  86.3164722  64.5532705 110.7553572  87.2604978  64.4512159
 106.8044297  81.7225800  71.5339163 105.9912162  82.0219970  71.9404355
 107.3003291  81.3281489  72.2513645 108.9552875  91.7183557  73.4673428
 108.9129054  91.9444403  72.5381960 109.8715574  91.4846931  73.6159229
 112.4018509  82.1867624  80.3654057 112.7567896  82.4139097  81.2248523
 113.0490640  82.5186001  79.7431312 118.1316245  85.3086060  71.0703386
 117.9934144  85.4987656  70.1424575 117.7752464  86.0705443  71.5271437
 106.2958372  79.2944155  77.1500398 106.9357751  79.1532914  76.4523361
 105.4635902  79.0078669  76.7739000 118.1585625  87.3762587  76.0814658
 118.5922132  87.2837876  76.9297712 118.8717206  87.3520088  75.4434674
 107.0718675  88.5946586  73.2635391 107.8659274  88.0996906  73.0617965
 106.3610368  88.0664449  72.9003096 111.8913520  90.9764681  77.6147758
 111.9450542  91.5455618  78.3825474 111.0228301  91.1466566  77.2501795
 103.3801439  82.7389668  69.3395143 102.4499027  82.6774123  69.5565105
 103.4758911  82.2165620  68.5431784 103.2986988  79.2644480  71.9273385
 103.5593805  80.1789814  71.8182545 104.1204160  78.7968923  72.0769998
 104.7711913  80.6782238  79.0972209 105.4434967  80.4699600  78.4484858
 103.9441700  80.4804324  78.6577442 119.0201175  87.4186288  78.6147543
 119.2137065  88.3232098  78.8606818 118.9201793  86.9593707  79.4486128
 110.6737485  77.3044178  81.1137870 110.0265400  78.0034128  81.0202347
 111.4438501  77.7380322  81.4814118 114.0816283  87.5693031  84.1888424
 113.9301790  87.3403582  83.2718507 114.0720963  88.5263632  84.2019769
 110.8501620  85.1424943  79.1734690 111.7793680  85.2936103  79.0003657
 110.4292650  85.2308964  78.3183337 109.6489951  89.1675608  76.9433228
 109.5101037  88.7994392  77.8159166 108.8604548  89.6823247  76.7717185
 110.2438103  94.2684704  68.2858764 110.4189859  93.7972747  69.1004387
 109.5570891  94.8950470  68.5140025 111.1995167  88.5457210  74.3322065
 110.8644999  88.5057980  75.2279715 110.6999112  87.8801926  73.8592476
 105.1739411  83.9524840  79.8574647 105.0359209  83.2205079  80.4586186
 106.0844334  83.8633741  79.5758834 114.1354358  85.8913245  64.6059125
 113.5183529  85.1660073  64.5092178 113.6670847  86.6522605  64.2626199
 107.8021711  83.6644800  79.3458326 108.5121330  83.0237992  79.3044945
 107.7591019  83.9157695  80.2684507 115.7908490  90.6012153  82.2664905
 115.7321036  89.9171373  81.5995488 116.1928008  91.3431143  81.8145531
 106.5150645  80.6510018  81.1653966 105.9788002  80.2000756  81.8175562
 105.9267354  80.7855927  80.4224430 104.8099189  97.4174067  75.0598624
 105.0495787  98.0492591  75.7377643 103.9668385  97.0662107  75.3463984
 105.9252904  80.1098669  63.7280429 105.0482371  79.9887470  63.3642676
 106.4010657  79.3184747  63.4759318 115.7925897  88.5651737  80.4978885
 114.9052676  88.2277659  80.6205284 116.3624448  87.8334768  80.7347650
  97.4455044  84.8975829  73.8221936  98.1326084  84.5837559  73.2342952
  97.2903173  85.8017193  73.5489188 102.2489766  79.7866025  78.2506960
 102.1647955  79.1791695  77.5157370 101.4272473  80.2775044  78.2516457
 109.3227051  93.2253189  77.4640128 109.2497222  94.0308161  77.9759433
 108.8804444  93.4245155  76.6388150 109.1116830  92.4624959  70.9742950
 108.3284352  93.0046640  71.0681174 109.8109575  92.9798939  71.3737191
 112.4213480  78.2719589  73.6177155 112.9182180  77.5189551  73.2978225
 111.6500462  78.3083906  73.0520365 120.2743238  83.9759954  75.2595447
 120.2633114  84.8584670  74.8889380 119.4060617  83.6231505  75.0649984
 111.7825734  93.1240023  79.6198287 112.4953706  93.7587488  79.5474188
 111.2915763  93.2203889  78.8038289 113.5043261  87.0291276  71.1915579
 112.5699540  87.1492739  71.0220283 113.6819929  86.1263743  70.9275588
 109.0048449  80.4136972  73.3448840 108.6346237  79.8608012  74.0329745
 109.5007542  79.8095105  72.7923840 116.8915812  82.8708595  71.7265613
 117.3576265  83.7036587  71.6525915 117.3423313  82.4053577  72.4310871
 106.8337648  90.8734467  80.4403858 107.5347107  91.5070950  80.5933252
 106.3632763  91.2149198  79.6799497 114.9592043  89.2152417  68.7251765
 115.2351887  89.1009011  69.6345639 114.0896542  88.8169902  68.6863938
 114.8632475  75.2389182  75.7656514 113.9495555  75.4693409  75.9338721
 115.2925577  75.3227626  76.6170546 114.6338934  83.4279074  78.2656408
 113.9810384  83.6754982  77.6108861 115.0119314  82.6143213  77.9318885
 111.5946108  93.4638768  72.3684578 111.7768502  92.6460423  72.8312331
 112.4179094  93.6806460  71.9309468 111.9288273  92.3906953  69.6299627
 112.4576039  91.8799407  69.0169789 112.1916493  92.0749483  70.4945160
 110.6826507  84.1698885  84.7522445 110.0067144  84.0693015  85.4224820
 111.5054141  84.0138099  85.2158442 102.4305366  90.4070822  77.3734960
 103.0158803  89.6614510  77.5062865 102.2330204  90.7174779  78.2571624
 105.2844021  93.4422069  72.3897403 104.6154396  93.9268197  71.9061443
 105.1456891  93.6891290  73.3040781  97.0223020  82.9776422  76.0939404
  97.0607120  82.4440013  76.8876522  96.5163313  82.4511628  75.4750381
 109.4249290  95.4765813  78.9880061 109.9767598  95.6397434  79.7529146
 109.7655483  96.0670251  78.3160086 104.4013783  77.8240963  79.5901946
 104.4655109  78.6855794  79.1779344 104.3380903  77.2114964  78.8574304
 103.8766055  79.8964095  83.2374980 104.5038094  79.5141173  83.8512504
 103.0193974  79.6778297  83.6030673 114.2760164  90.3027070  84.8428716
 114.8200068  90.9157029  84.3483670 113.6947009  90.8606649  85.3595729
 100.6531598  81.7040524  69.1693335 100.9485039  80.7951203  69.1160389
  99.7519634  81.6828264  68.8474337 112.5617677  93.4247788  75.9743743
 112.4368816  92.6237528  75.4654689 113.2196768  93.9193982  75.4857713
 104.1825845  79.7796521  75.1520884 103.4612431  80.3932489  75.0128357
 104.9719101  80.3154286  75.0737530 114.6252585  91.2256808  77.6023293
 113.6782921  91.1062160  77.5301620 114.9735358  90.3379307  77.6849555
 106.9852159  77.1150947  81.4261535 107.5086560  77.3613244  82.1887845
 106.7664492  77.9470982  81.0064673 102.3819440  79.3854622  69.2932660
 102.0532146  78.5052001  69.1107766 102.7358810  79.3302291  70.1809049
 111.6299018  91.0209525  73.8027646 111.4823981  90.0926232  73.9835216
 112.4552512  91.0429615  73.3184721 105.4961263  79.6727592  69.6608138
 105.8357335  80.2013513  68.9386746 105.9433383  80.0107998  70.4366704
 115.2333140  91.8438083  74.8892518 116.1579688  91.6380945  74.7516970
 115.0648444  91.5954485  75.7981860 108.1904704  78.0564643  79.1111206
 107.8501524  77.2572456  79.5131886 107.4843710  78.3566353  78.5388039
 108.8421175  75.1413955  77.5638529 109.6647245  74.6674433  77.4417419
 109.0859239  75.9204439  78.0637215 107.4829410  78.1702213  67.8601431
 108.2037772  78.5483466  67.3565147 106.8594714  78.8891090  67.9636409
 111.6260533  78.8747362  68.7959763 111.8424147  79.7572000  68.4948591
 111.1454600  78.4833576  68.0665405 106.3659754  81.8333076  75.3730508
 106.2204335  82.1473379  76.2654789 105.8884958  82.4517976  74.8201406
 108.2256137  78.8235624  75.4211397 108.2117706  77.9276717  75.0843695
 108.9428565  78.8306287  76.0549683 110.0782268  79.2572964  77.4664524
 109.8200046  80.1790034  77.4648855 109.5467308  78.8603398  78.1564989
 115.0228457  92.3623751  70.2454610 115.1965334  91.7970173  69.4928462
 115.5157348  93.1624646  70.0634100 100.8405416  84.3738420  78.3118169
 100.2958884  85.1498228  78.4438443 101.7184766  84.7209224  78.1537290
 107.6293033  77.7050004  70.6898967 107.7508944  76.7766650  70.8889855
 107.3395075  77.7188690  69.7777283 110.4984223  75.3904914  73.8265687
 110.5205920  75.4544247  72.8717667 110.9152282  74.5509423  74.0206193
 120.8767848  85.1260174  71.8644910 121.3198994  84.3767499  71.4664033
 119.9994358  85.1170310  71.4818642 116.0103629  91.6790515  67.3451508
 116.7054534  92.2997208  67.5638823 116.3526779  90.8285867  67.6203886
 101.6271438  83.5008316  81.2048326 100.8853174  83.6490952  81.7912956
 101.3064182  83.7616582  80.3415075 117.9095052  89.1290221  68.8738839
 118.4346376  89.4677494  68.1488159 117.8217405  88.1937236  68.6901974
 109.5715101  93.0424294  81.0028716 109.8802227  92.7973441  81.8751415
 110.3690583  93.2470933  80.5147586 109.5935713  95.1962204  73.2334092
 109.1540703  94.7038583  73.9266949 110.3443830  94.6535172  72.9926167
 102.0728052  91.3873745  73.2358720 102.8986072  91.0877517  72.8557364
 101.7222104  90.6181367  73.6848509 107.0409585  90.7400213  75.3056394
 106.4189594  90.0770918  75.0058622 107.7114452  90.7661345  74.6230042
 100.2736657  89.3060071  74.1947654  99.4368565  88.8782246  74.0131655
 100.2460302  89.4992515  75.1318445 107.1134113  79.2182001  84.8988900
 107.1622268  80.0944124  84.5166669 107.6556627  78.6759394  84.3260543
 117.5988958  89.7623124  84.1790037 116.8084502  89.7447263  83.6394536
 117.3622313  90.3011418  84.9339073 117.7186833  86.6115591  81.4922765
 117.7684838  86.4465598  82.4338288 117.6100757  85.7442850  81.1020646
 106.6023092  89.2904137  68.7814854 106.7511212  89.9739601  68.1281527
 107.4089535  89.2709227  69.2964310 115.0090596  82.5946519  82.8082072
 115.9100458  82.4552984  82.5166070 115.0838570  82.7600974  83.7480250
 109.3433401  79.9713374  81.6535258 108.4736710  80.2646940  81.3817847
 109.5792881  80.5553819  82.3742522 119.2205030  89.0312532  81.7364787
 118.9289838  89.3942513  82.5728248 118.6077161  88.3179541  81.5578119
 120.4200712  86.5965412  74.2567357 121.2547604  87.0355216  74.4204918
 120.5559841  86.1204065  73.4375603 117.4692218  84.1545147  80.2044845
 117.9446340  84.3472793  79.3963696 116.5457784  84.2104333  79.9588229
 104.3575725  85.3169314  69.7875923 104.1121767  84.4131644  69.9856133
 104.5271639  85.3186465  68.8455401 112.0472435  76.1892991  79.1700679
 112.5654379  76.9254017  78.8447167 111.6927568  76.4956984  80.0047438
 103.6271372  81.0497672  67.2862085 102.9340617  81.1242027  66.6302121
 103.3823124  80.2858015  67.8083602 112.2985029  72.6093273  74.6901575
 112.5786783  71.9416462  75.3162002 113.0835636  72.8022369  74.1776239
 110.1018497  91.7852267  66.2526602 109.5292465  92.4042454  65.7997074
 110.6751291  92.3351629  66.7866524 116.1693887  81.0310907  78.4373151
 117.1211310  81.1309005  78.4585375 115.9997338  80.2389176  78.9471235
 114.1908267  78.1166490  78.6232551 113.5958199  78.3971503  77.9279040
 113.9057964  78.6060391  79.3949293 113.3215757  92.0689417  67.3835184
 114.2546430  92.0034979  67.5868060 113.2338970  92.9045684  66.9249717
 115.9503774  91.3855287  64.3439132 115.8717405  91.0515151  65.2374890
 116.7713441  91.8777055  64.3430604 118.6481965  84.2517027  77.5515450
 118.6158285  83.3133027  77.7375134 119.2582589  84.3301063  76.8181275
 110.4865296  83.1213080  63.5942654 111.4324401  82.9919288  63.6631072
 110.1079541  82.3827742  64.0712082 118.7976454  81.0428070  77.5973733
 118.2815502  80.2586527  77.4103662 119.6816402  80.7146787  77.7620253
 116.4587181  74.7869086  73.5569546 116.2612002  74.4784174  74.4412878
 117.0686886  75.5130725  73.6867476 110.3703989  87.1730826  85.0543311
 111.2906998  87.3509425  85.2483358 110.3353572  86.2286871  84.9023010
 108.6708213  81.0463056  63.5297539 107.7639669  80.7496169  63.6060253
 108.9484194  80.7492874  62.6631826  99.5886154  82.3669420  73.9796586
  99.2688938  81.5134728  73.6870960  99.0419582  82.5817998  74.7354553
 103.3666061  85.0831861  77.6966092 103.5852071  86.0148968  77.7154126
 103.7791835  84.7239835  78.4820896 110.2870279  75.5899946  69.6841781
 109.4771007  75.2447031  70.0597027 110.9754696  75.2807490  70.2729392
 112.2160827  74.6677993  71.3066077 112.7691866  75.0873446  71.9656101
 112.4530914  73.7413741  71.3489033 108.2393926  80.6565066  87.0868841
 108.1390653  81.6059423  87.0180932 108.0215468  80.3283305  86.2144911
 107.4406998  77.9049991  63.6709519 108.3026162  78.2304890  63.9305336
 107.6257342  77.1181487  63.1582584  99.4574414  85.9872331  75.9489707
  98.7637885  85.5726284  75.4359662 100.2047405  86.0292868  75.3523126
 115.5939634  76.7778518  70.8144742 115.0138303  77.4363322  70.4322794
 115.3275567  75.9555862  70.4032159 114.0443201  76.1783576  73.0166062
 114.5442979  76.2900110  72.2080381 114.6878809  75.8744628  73.6566870
 108.1025196  84.0862205  85.9033903 107.6192278  84.8862565  86.1097792
 108.1886135  84.0970150  84.9501347 101.3711156  85.9190585  73.8255722
 101.3481844  86.0178272  72.8737605 101.6811793  86.7655736  74.1472888
 104.0298534  87.9766740  77.9402337 104.9841787  87.9450682  77.8732268
 103.8311058  87.5157364  78.7552563 104.6197916  86.5467856  80.5073134
 105.4390805  87.0411935  80.5307972 104.8934724  85.6299824  80.4790702
 114.3764512  78.9378608  69.8701090 113.4890367  79.2228259  69.6521285
 114.7918501  78.7772372  69.0228367 117.7279048  78.9625129  73.5855429
 118.5039439  79.4521582  73.8580046 117.0027183  79.3883183  74.0427299
 120.1651607  79.6752748  74.6429370 120.7596098  79.4348484  73.9322678
 120.2378191  78.9559879  75.2702906 102.3848763  93.5186359  74.9572535
 102.2503231  92.7586760  74.3910533 101.9680825  94.2427259  74.4901324
 113.5207726  88.7023283  63.9649110 114.2243576  88.9073285  64.5806766
 112.7970374  89.2700045  64.2298193 114.3505536  84.4533144  70.0851380
 114.2940737  84.9101696  69.2459012 114.9033878  83.6923829  69.9074223
 118.1610342  80.2422876  70.9101500 117.9047276  79.8419512  71.7409707
 117.5363210  80.9566670  70.7851639 122.4722680  82.9818949  73.4172791
 121.9122238  83.0512139  74.1904353 121.8666183  82.8059934  72.6972287
 105.5417889  94.4155676  75.1690977 105.4250273  95.3601109  75.0669668
 104.7210335  94.1129238  75.5576776 115.4294423  89.1405812  66.0147570
 116.2640027  88.7087011  65.8325045 115.2678766  88.9687826  66.9424464
 115.0840315  85.6437925  67.3803909 115.0289119  85.4782197  66.4392353
 114.4586371  86.3513958  67.5366099  99.8732830  80.8805990  81.2065331
 100.5191694  80.3704944  81.6952557  99.6649981  81.6174671  81.7808757
 112.3986222  87.9486837  86.7057472 113.2677382  88.1227490  86.3444107
 111.9192974  88.7681254  86.5833201 108.3936441  75.1446034  66.9589228
 108.3815111  76.0887874  67.1157499 109.2859863  74.9616180  66.6648689
 106.5672403  95.0683938  78.3846906 107.4699649  95.1007549  78.7013401
 106.3409773  94.1384389  78.3993241 108.3226005  93.8214925  75.0456984
 107.3721636  93.8216786  74.9321357 108.6258491  93.0747659  74.5293019
 112.2088560  71.7388811  71.2135164 111.4420956  71.1847298  71.3591847
 112.6199265  71.8110680  72.0749316 104.2130321  78.0273607  85.3040346
 105.0761783  77.6710412  85.5143670 103.6395732  77.6887502  85.9915750
 120.8668405  99.6102891  76.0464271 120.5286916  99.4943956  75.1584806
 121.7358173  99.2094056  76.0265278 116.7255220 101.4638368  72.0361162
 116.1620085 101.3728305  71.2677450 116.6107615 100.6438272  72.5163655
 121.3488187 100.7637743  82.0050477 121.3376828 100.3690541  81.1330981
 121.5108827 100.0303816  82.5984248 114.2719652 102.9589559  74.8745383
 115.0640944 102.6180384  74.4591682 114.5116302 103.0684534  75.7947536
 116.2310406 102.2198473  67.7462762 117.0041282 101.6727460  67.6075637
 116.5835805 103.0842722  67.9577223 118.0695449 103.5474855  80.9529661
 117.7785315 104.4520486  80.8376327 118.7052433 103.5891382  81.6673730
 118.9951655 100.9251703  77.5431021 119.5915228 100.7007726  76.8287984
 119.0526627 100.1836449  78.1456468 118.5676684  98.3791139  65.3781212
 118.8202205  97.8572660  64.6164675 117.6301243  98.2157284  65.4807895
 118.2872973 100.2819245  67.5805586 118.1709231  99.6064148  68.2486671
 118.3975233  99.7951619  66.7637740 120.6304514  99.7429392  71.2852276
 120.2662721  99.2160013  71.9965197 121.4871629  99.3527861  71.1118761
 120.2710001  94.7719291  66.2813624 120.4384403  95.6399528  66.6484095
 120.0807170  94.9346573  65.3574913 116.4797815  99.6850067  73.9816159
 115.5548312  99.5526281  74.1893851 116.7282228 100.4644286  74.4786101
 120.2499221  97.2276949  67.2660291 120.1298847  97.6734000  68.1045771
 119.5551810  97.5762267  66.7073829 113.8406626  99.3283341  74.8159948
 113.9699007  99.5817820  75.7299360 113.1604078  99.9211049  74.4964603
 120.5023343  97.1708456  83.5711789 119.7256677  97.7302376  83.5614654
 121.1413906  97.6565239  84.0926659 118.7569716  99.9793909  83.1329756
 119.4984400 100.5178953  82.8564580 118.0506701 100.6060198  83.2901308
 120.5856125  97.0595657  79.1035475 121.4317320  97.4835070  79.2470124
 120.5254763  96.4029281  79.7974038 120.1081832 102.4198649  72.7504292
 120.5720177 102.6986352  71.9608914 119.8438630 101.5182093  72.5677382
 117.0005913 101.9670130  75.6884055 117.5707270 102.3957399  75.0501539
 117.5914025 101.6852715  76.3868241 119.0450718  98.5421801  69.5593857
 119.7474761  98.9942845  70.0267783 118.7131346  97.9005620  70.1873750
 117.4931079  97.1333558  83.9345066 116.8629740  97.8149838  84.1680463
 117.3867167  97.0216639  82.9898204 112.7876052  96.8005354  74.8610990
 111.9975106  97.0562882  74.3851101 113.2787299  97.6153692  74.9663031
 114.7390797  97.1649933  71.8194467 113.9421960  97.2768627  72.3377963
 114.5116389  97.5036585  70.9535358 120.5696465 103.6894636  79.7676982
 120.6340897 104.1515043  80.6035154 119.8607389 103.0592001  79.8959292
 111.0713755  97.0535844  77.2925981 111.3221793  97.9382854  77.5583557
 111.6073303  96.8740446  76.5201073 120.2844482 105.3562744  69.6355962
 120.1490157 106.2014279  70.0640810 120.8254295 105.5582021  68.8721896
 116.7711822  91.4354323  86.2970317 116.3778768  90.8820522  86.9717961
 117.5877962  91.7464902  86.6876835 113.7373880 102.8738182  70.2083887
 114.2498400 103.6681432  70.3589452 114.3896593 102.1764472  70.1417489
 115.5468765 105.9903938  72.2906640 115.7235393 106.9121903  72.1027624
 116.3425598 105.6762357  72.7201020 119.6879783  92.8512203  83.8890574
 120.4289496  93.4519356  83.8095036 119.9197706  92.1089840  83.3308616
 114.8321121  98.0368570  82.1668804 114.7174636  97.1353827  82.4675902
 113.9765639  98.2832267  81.8153620 116.6700080 107.5082112  78.2916983
 117.2207505 107.3799175  77.5193977 115.8311556 107.8077001  77.9411875
 120.4667251 103.7733240  82.6361214 120.9995588 103.0121528  82.4060522
 119.9381332 103.4806891  83.3785368 111.7022797 101.2026836  70.9843458
 112.5398019 101.6123844  70.7677165 111.8801064 100.2626278  70.9543652
 121.1834340  93.7151617  71.7312529 120.3275936  93.3258468  71.5518168
 121.5961292  93.7943578  70.8712315 118.9576372  91.3336690  75.1370270
 119.8229369  91.1379499  74.7776160 119.0253881  91.1047042  76.0639627
 121.8319964 102.9019232  70.1480026 121.3041325 102.1671992  69.8353263
 121.3307466 103.6793908  69.9019994 116.5638691  93.5638898  72.5086637
 117.1382443  93.3414080  71.7759830 117.1509674  93.6327593  73.2615239
 116.8908278  95.5943359  66.5282523 116.0545591  95.9318046  66.8491797
 116.7513048  95.4592339  65.5909660 118.8661359  90.4380147  71.2361707
 118.2125771  90.1229164  70.6118321 118.8241833  89.8155888  71.9621530
 119.9772564 100.7199442  63.1514999 119.0699626 100.4888696  63.3506148
 120.4743596  99.9237062  63.3388980 121.1560797 100.8212037  67.6738989
 120.2472017 100.5371070  67.7711459 121.1855881 101.2411116  66.8142296
 111.7248968  98.5417551  71.6554191 111.5273368  97.9486912  70.9305258
 111.1695632  98.2369761  72.3730130 119.7045691  98.4340658  73.7748784
 119.7594301  97.4814494  73.6991261 118.8936893  98.5900097  74.2590083
 120.8536885 102.3620781  65.0127067 120.4156315 101.6456640  64.5532705
 121.5947326 102.5896896  64.4512159 117.6438051  97.0517717  71.5339163
 116.8305917  97.3511888  71.9404355 118.1397046  96.6573406  72.2513645
 117.1352126  94.6236073  77.1500398 117.7751505  94.4824832  76.4523361
 116.3029657  94.3370586  76.7739000 117.9112430 103.9238503  73.2635391
 118.7053028 103.4288824  73.0617965 117.2004122 103.3956367  72.9003096
 114.2195193  98.0681585  69.3395143 113.2892782  98.0066041  69.5565105
 114.3152665  97.5457538  68.5431784 114.1380742  94.5936398  71.9273385
 114.3987560  95.5081731  71.8182545 114.9597915  94.1260841  72.0769998
 115.6105668  96.0074155  79.0972209 116.2828721  95.7991517  78.4484858
 114.7835454  95.8096241  78.6577442 121.5131240  92.6336096  81.1137870
 120.8659155  93.3326046  81.0202347 122.2832255  93.0672240  81.4814118
 120.4883706 104.4967525  76.9433228 120.3494792 104.1286310  77.8159166
 119.6998302 105.0115165  76.7717185 122.0388921 103.8749128  74.3322065
 121.7038754 103.8349898  75.2279715 121.5392867 103.2093844  73.8592476
 116.0133165  99.2816758  79.8574647 115.8752963  98.5496997  80.4586186
 116.9238089  99.1925658  79.5758834 118.6415466  98.9936717  79.3458326
 119.3515084  98.3529910  79.3044945 118.5984774  99.2449612  80.2684507
 117.3544400  95.9801935  81.1653966 116.8181757  95.5292674  81.8175562
 116.7661108  96.1147844  80.4224430 116.7646659  95.4390587  63.7280429
 115.8876125  95.3179388  63.3642676 117.2404412  94.6476665  63.4759318
 108.2848799 100.2267746  73.8221936 108.9719839  99.9129477  73.2342952
 108.1296928 101.1309111  73.5489188 113.0883521  95.1157943  78.2506960
 113.0041710  94.5083613  77.5157370 112.2666227  95.6066961  78.2516457
 119.8442204  95.7428890  73.3448840 119.4739991  95.1899930  74.0329745
 120.3401296  95.1387023  72.7923840 117.6731402 106.2026385  80.4403858
 118.3740862 106.8362868  80.5933252 117.2026517 106.5441116  79.6799497
 121.5220261  99.4990803  84.7522445 120.8460898  99.3984932  85.4224820
 122.3447895  99.3430017  85.2158442 113.2699120 105.7362740  77.3734960
 113.8552557 104.9906428  77.5062865 113.0723959 106.0466696  78.2571624
 116.1237775 108.7713987  72.3897403 115.4548151 109.2560115  71.9061443
 115.9850645 109.0183207  73.3040781 107.8616775  98.3068340  76.0939404
 107.9000874  97.7731931  76.8876522 107.3557068  97.7803545  75.4750381
 115.2407537  93.1532880  79.5901946 115.3048864  94.0147711  79.1779344
 115.1774657  92.5406882  78.8574304 114.7159810  95.2256013  83.2374980
 115.3431849  94.8433090  83.8512504 113.8587729  95.0070215  83.6030673
 111.4925353  97.0332442  69.1693335 111.7878794  96.1243120  69.1160389
 110.5913388  97.0120181  68.8474337 115.0219600  95.1088439  75.1520884
 114.3006185  95.7224406  75.0128357 115.8112855  95.6446203  75.0737530
 117.8245913  92.4442865  81.4261535 118.3480315  92.6905162  82.1887845
 117.6058246  93.2762900  81.0064673 113.2213194  94.7146540  69.2932660
 112.8925900  93.8343919  69.1107766 113.5752565  94.6594208  70.1809049
 116.3355017  95.0019509  69.6608138 116.6751090  95.5305431  68.9386746
 116.7827138  95.3399916  70.4366704 119.0298458  93.3856560  79.1111206
 118.6895278  92.5864373  79.5131886 118.3237464  93.6858271  78.5388039
 119.6814930  90.4705873  77.5638529 120.5040999  89.9966351  77.4417419
 119.9252993  91.2496356  78.0637215 118.3223164  93.4994131  67.8601431
 119.0431527  93.8775384  67.3565147 117.6988469  94.2183008  67.9636409
 117.2053509  97.1624993  75.3730508 117.0598089  97.4765296  76.2654789
 116.7278712  97.7809894  74.8201406 119.0649892  94.1527541  75.4211397
 119.0511460  93.2568635  75.0843695 119.7822320  94.1598205  76.0549683
 120.9176022  94.5864881  77.4664524 120.6593800  95.5081952  77.4648855
 120.3861063  94.1895316  78.1564989 111.6799171  99.7030338  78.3118169
 111.1352639 100.4790146  78.4438443 112.5578521 100.0501142  78.1537290
 118.4686787  93.0341922  70.6898967 118.5902699  92.1058568  70.8889855
 118.1788830  93.0480607  69.7777283 121.3377978  90.7196832  73.8265687
 121.3599675  90.7836165  72.8717667 121.7546037  89.8801341  74.0206193
 112.4665193  98.8300234  81.2048326 111.7246929  98.9782869  81.7912956
 112.1457937  99.0908500  80.3415075 112.9121806 106.7165663  73.2358720
 113.7379826 106.4169435  72.8557364 112.5615858 105.9473285  73.6848509
 117.8803340 106.0692131  75.3056394 117.2583349 105.4062836  75.0058622
 118.5508206 106.0953263  74.6230042 111.1130411 104.6351989  74.1947654
 110.2762320 104.2074163  74.0131655 111.0854057 104.8284432  75.1318445
 117.9527867  94.5473919  84.8988900 118.0016023  95.4236042  84.5166669
 118.4950381  94.0051312  84.3260543 117.4416846 104.6196054  68.7814854
 117.5904967 105.3031519  68.1281527 118.2483290 104.6001144  69.2964310
 120.1827155  95.3005291  81.6535258 119.3130465  95.5938857  81.3817847
 120.4186636  95.8845736  82.3742522 115.1969479 100.6461232  69.7875923
 114.9515521  99.7423562  69.9856133 115.3665394 100.6478382  68.8455401
 114.4665127  96.3789589  67.2862085 113.7734372  96.4533944  66.6302121
 114.2216879  95.6149933  67.8083602 121.3259050  98.4504997  63.5942654
 122.2718155  98.3211206  63.6631072 120.9473295  97.7119659  64.0712082
 121.2097743 102.5022744  85.0543311 122.1300752 102.6801343  85.2483358
 121.1747326 101.5578789  84.9023010 119.5101968  96.3754974  63.5297539
 118.6033423  96.0788087  63.6060253 119.7877949  96.0784792  62.6631826
 110.4279908  97.6961337  73.9796586 110.1082692  96.8426645  73.6870960
 109.8813336  97.9109915  74.7354553 114.2059816 100.4123778  77.6966092
 114.4245825 101.3440886  77.7154126 114.6185589 100.0531753  78.4820896
 121.1264033  90.9191864  69.6841781 120.3164762  90.5738948  70.0597027
 121.8148450  90.6099407  70.2729392 119.0787681  95.9856984  87.0868841
 118.9784408  96.9351341  87.0180932 118.8609223  95.6575223  86.2144911
 118.2800752  93.2341909  63.6709519 119.1419916  93.5596807  63.9305336
 118.4651096  92.4473405  63.1582584 110.2968168 101.3164249  75.9489707
 109.6031639 100.9018201  75.4359662 111.0441159 101.3584785  75.3523126
 118.9418951  99.4154123  85.9033903 118.4586033 100.2154483  86.1097792
 119.0279890  99.4262068  84.9501347 112.2104911 101.2482502  73.8255722
 112.1875599 101.3470190  72.8737605 112.5205547 102.0947653  74.1472888
 114.8692288 103.3058658  77.9402337 115.8235542 103.2742600  77.8732268
 114.6704812 102.8449281  78.7552563 115.4591671 101.8759774  80.5073134
 116.2784560 102.3703852  80.5307972 115.7328478 100.9591742  80.4790702
 113.2242517 108.8478277  74.9572535 113.0896985 108.0878678  74.3910533
 112.8074579 109.5719177  74.4901324 110.7126585  96.2097907  81.2065331
 111.3585448  95.6996861  81.6952557 110.5043736  96.9466589  81.7808757
 119.2330195  90.4737952  66.9589228 119.2208865  91.4179792  67.1157499
 120.1253617  90.2908097  66.6648689 115.0524076  93.3565524  85.3040346
 115.9155537  93.0002329  85.5143670 114.4789486  93.0179419  85.9915750
  52.9743588  -4.9708793  57.6395729  52.8967618  -4.0200968  57.7184209
  52.3705231  -5.3162920  58.2970655  50.6130418  -2.2223399  61.7843931
  50.8527016  -1.5904875  62.4622950  49.7699614  -2.5735359  62.0709290
  51.0875250  -6.1975396  59.1142709  50.4185625  -5.7129269  58.6306750
  50.9488119  -5.9506176  60.0286088  55.2280518  -4.1631653  65.7125368
  55.7798826  -4.0000031  66.4774453  55.5686712  -3.5727215  65.0405393
  55.3966942  -4.4435262  59.9579399  54.9571932  -4.9358883  60.6512255
  56.1475059  -4.9862294  59.7171474  48.1879992  -6.1211106  61.6817841
  48.0534459  -6.8810706  61.1155839  47.7712054  -5.3970207  61.2146630
  51.3449117  -5.2241789  61.8936284  51.2281502  -4.2796357  61.7914974
  50.5241564  -5.5268228  62.2822083  52.3703632  -4.5713528  65.1092212
  53.2730878  -4.5389917  65.4258707  52.1441002  -5.5013077  65.1238548
  66.6699633  -0.0294575  62.7709578  66.3318145  -0.1453510  61.8830113
  67.5389401  -0.4303409  62.7510584  62.5286449   1.8240902  58.7606469
  61.9651314   1.7330839  57.9922757  62.4138844   1.0040806  59.2408962
  67.1519416   1.1240277  68.7295784  67.1408057   0.7293075  67.8576287
  67.3140056   0.3906350  69.3229555  60.0750881   3.3192093  61.5990689
  60.8672173   2.9782918  61.1836989  60.3147531   3.4287069  62.5192843
  68.1086008   5.4911870  54.0720934  67.4573987   6.0765950  53.6854948
  68.9030371   6.0218065  54.1315971  62.0341635   2.5801007  54.4708068
  62.8072511   2.0329994  54.3320944  62.3867034   3.4445256  54.6822530
  63.8726677   3.9077389  67.6774968  63.5816543   4.8123020  67.5621634
  64.5083662   3.9493917  68.3919037  64.7982884   1.2854238  64.2676327
  65.3946457   1.0610260  63.5533290  64.8557856   0.5438983  64.8701775
  64.3707913  -1.2606327  52.1026518  64.6233433  -1.7824806  51.3409981
  63.4332472  -1.4240182  52.2053202  69.5861273   3.1802302  54.6089918
  68.9507106   3.2536928  55.3210823  69.2558679   3.7695900  53.9308997
  64.0904201   0.6421779  54.3050893  63.9740460  -0.0333318  54.9731977
  64.2006461   0.1554153  53.4883046  66.4335742   0.1031926  58.0097582
  66.0693950  -0.4237453  58.7210504  67.2902858  -0.2869605  57.8364068
  68.8316563   3.5938805  64.6724761  68.5317286   4.4963843  64.5640568
  68.4867622   3.3270988  65.5245914  62.2829044   0.0452601  60.7061466
  61.3579540  -0.0871185  60.9139157  62.5313457   0.8246821  61.2031408
  59.6437855  -0.3114125  61.5405255  59.7730236  -0.0579646  62.4544666
  58.9635306   0.2813583  61.2209910  63.8137342  10.3583125  57.6395729
  63.7361372  11.3090950  57.7184209  63.2098986  10.0128997  58.2970655
  64.5600944   0.3396444  69.8575063  65.3015629   0.8781488  69.5809886
  63.8537930   0.9662732  70.0146615  70.0356284   2.4825584  68.4547224
  70.4439640   2.0407995  67.7101857  69.3133546   1.9078212  68.7081417
  70.3585099   3.0426775  62.2099513  69.7293961   3.2072489  61.5075581
  69.9710761   3.4568384  62.9810477  74.2374331   3.9781213  59.5643877
  73.5525369   4.3580114  59.0140910  74.3218180   4.5876539  60.2975825
  71.4925262   1.6241172  66.1639220  71.7042157   2.2672932  65.4873602
  71.4455010   0.7903488  65.6961151  65.9113061   2.7801183  59.4749598
  66.3751406   3.0588886  58.6854221  65.6469859   1.8784627  59.2922689
  62.8037142   2.3272664  62.4129362  63.3738499   2.7559933  61.7746846
  63.3945253   2.0455249  63.1113547  64.8481947  -1.0975665  56.2839163
  65.5505990  -0.6454621  56.7513090  64.5162575  -1.7391846  56.9119057
  63.2962308  -2.5063908  70.6590373  62.6660969  -1.8247627  70.8925770
  63.1898396  -2.6180827  69.7143511  58.5907281  -2.8392112  61.5856297
  57.8006335  -2.5834584  61.1096408  59.0818528  -2.0243774  61.6908338
  72.6071090   4.5013127  64.3361578  73.4288534   4.0993314  64.0544259
  72.6033493   4.3981361  65.2877694  60.5422026  -2.4747533  58.5439774
  59.7453189  -2.3628839  59.0623269  60.3147618  -2.1360881  57.6780664
  66.3727694   4.0497170  66.4922288  66.4372126   4.5117578  67.3280460
  65.6638617   3.4194535  66.6204598  56.8744984  -2.5861622  64.0171288
  57.1253022  -1.7014612  64.2828864  57.4104532  -2.7657020  63.2446380
  66.0875711   5.7165278  56.3601269  65.9521386   6.5616814  56.7886116
  66.6285524   5.9184555  55.5967202  59.5405109   3.2340716  56.9329194
  60.0529629   4.0283966  57.0834758  60.1927821   2.5367006  56.8662795
  61.3499993   6.3506472  59.0151947  61.5266622   7.2724437  58.8272931
  62.1456827   6.0364891  59.4446327  60.6352350  -1.6028896  68.8914110
  60.5205865  -2.5043639  69.1921209  59.7796868  -1.3565199  68.5398927
  67.7144188   6.3388844  70.4901611  67.2708042   5.5525223  70.1722515
  68.3761401   6.5267995  69.8245502  62.4731309   7.8684646  65.0162289
  63.0238734   7.7401709  64.2439283  61.6342785   8.1679535  64.6657182
  69.8125426   6.6191644  68.5183012  69.7943901   7.4400525  68.0263281
  70.7345346   6.4945719  68.7433153  66.2698480   4.1335774  69.3606520
  66.8026817   3.3724062  69.1305828  65.7412561   3.8409426  70.1030675
  57.5054025   1.5629370  57.7088764  58.3429247   1.9726379  57.4922472
  57.6832293   0.6228812  57.6788958  74.3752732   1.9836805  55.3325771
  73.5982174   1.6447965  54.8880933  75.0544213   1.9889429  54.6580736
  67.6351193   3.2621766  56.8725332  67.1072554   2.5274526  56.5598570
  67.1338695   4.0396443  56.6265301  72.6144039   1.4570787  61.9892379
  71.9567713   2.1470048  62.0772507  73.4184438   1.8467219  62.3326365
  65.7803793   1.0801977  49.8760305  64.8730854   0.8491230  50.0751454
  66.2774825   0.2839596  50.0634287  68.6871872   9.7899484  52.7956992
  68.0133570  10.0931180  53.4041949  69.0737694  10.5928564  52.4462449
  66.9592026   1.1814571  54.3984296  66.0503245   0.8973604  54.4956765
  66.9887110   1.6013650  53.5387602  72.1911294   4.7921161  58.1675463
  71.7373621   3.9512071  58.2240654  71.5605260   5.4282559  58.5050243
  70.6344233   6.6297658  59.1025281  70.9267207   7.1902715  58.3837647
  71.1442853   6.9226219  59.8578440  57.5280197  -1.0979915  58.3799498
  57.3304596  -1.6910554  57.6550564  56.9726861  -1.4027704  59.0975437
  66.6568114   2.7223315  51.7372374  66.2187544   2.0059174  51.2778011
  67.3978555   2.9499430  51.1757465  65.5977858   7.4078009  60.1918734
  65.5554037   7.6338855  59.2627266  66.5140557   7.1741383  60.3404536
  74.8010608   3.0657039  62.8059964  75.2347115   2.9732328  63.6543018
  75.5142189   3.0414540  62.1679980  63.7143659   4.2841038  59.9880697
  64.5084257   3.7891358  59.7863272  63.0035351   3.7558901  59.6248403
  68.5338503   6.6659133  64.3393065  68.5875526   7.2350070  65.1070781
  67.6653285   6.8361018  63.9747102  60.0226422  -1.5715881  56.0640450
  59.0924010  -1.6331425  56.2810412  60.1183894  -2.0939928  55.2677091
  75.6626158   3.1080740  65.3392850  75.8562048   4.0126550  65.5852124
  75.5626776   2.6488159  66.1731435  70.7241267   3.2587482  70.9133730
  70.5726773   3.0298034  69.9963814  70.7145946   4.2158084  70.9265075
  67.4926603   0.8319395  65.8979997  68.4218663   0.9830555  65.7248964
  67.0717633   0.9203416  65.0428643  66.2914935   4.8570060  63.6678534
  66.1526020   4.4888844  64.5404472  65.5029531   5.3717699  63.4962492
  66.8863087   9.9579156  55.0104071  67.0614842   9.4867199  55.8249693
  66.1995875  10.5844922  55.2385331  67.8420150   4.2351662  61.0567372
  67.5069983   4.1952432  61.9525022  67.3424096   3.5696378  60.5837782
  61.8164394  -0.3580708  66.5819953  61.6784192  -1.0900469  67.1831492
  62.7269317  -0.4471808  66.3004141  70.7779342   1.5807697  51.3304432
  70.1608512   0.8554525  51.2337484  70.3095830   2.3417057  50.9871506
  64.4446695  -0.6460748  66.0703633  65.1546313  -1.2867556  66.0290251
  64.4016003  -0.3947853  66.9929814  72.4333473   6.2906605  68.9910212
  72.3746019   5.6065825  68.3240795  72.8352992   7.0325595  68.5390838
  61.4524172  13.1068519  61.7843931  61.6920770  13.7387043  62.4622950
  60.6093369  12.7556559  62.0709290  72.4350881   4.2546189  67.2224192
  71.5477659   3.9172111  67.3450591  73.0049432   3.5229220  67.4592957
  54.0880028   0.5870281  60.5467243  54.7751067   0.2732011  59.9588258
  53.9328156   1.4911645  60.2734495  65.9652034   8.9147641  64.1885435
  65.8922205   9.7202613  64.7004739  65.5229427   9.1139607  63.3633456
  65.7541814   8.1519411  57.6988256  64.9709335   8.6941092  57.7926481
  66.4534559   8.6693391  58.0982498  68.4250717   8.8134475  66.3443594
  69.1378690   9.4481940  66.2719495  67.9340746   8.9098341  65.5283595
  70.1468244   2.7185728  57.9160885  69.2124523   2.8387190  57.7465590
  70.3244913   1.8158195  57.6520895  63.4762631   6.5628919  67.1649164
  64.1772090   7.1965402  67.3178559  63.0057746   6.9043650  66.4044804
  71.6017027   4.9046869  55.4497071  71.8776871   4.7903463  56.3590946
  70.7321526   4.5064353  55.4109245  68.2371091   9.1533219  59.0929885
  68.4193485   8.3354875  59.5557637  69.0604077   9.3700912  58.6554775
  68.5713256   8.0801405  56.3544934  69.1001023   7.5693859  55.7415096
  68.8341476   7.7643935  57.2190467  67.3251490  -0.1406663  71.4767752
  66.6492127  -0.2412533  72.1470127  68.1479124  -0.2967449  71.9403749
  59.0730349   6.0965274  64.0980267  59.6583786   5.3508962  64.2308171
  58.8755187   6.4069231  64.9816931  61.9269004   9.1316521  59.1142709
  61.2579380   9.6162649  58.6306750  61.7881874   9.3785742  60.0286088
  53.6648004  -1.3329126  62.8184710  53.7032103  -1.8665535  63.6121828
  53.1588297  -1.8593920  62.1995687  66.0674273  11.1660265  65.7125368
  66.6192581  11.3291886  66.4774453  66.4080466  11.7564703  65.0405393
  70.9185147   5.9921522  71.5674022  71.4625051   6.6051481  71.0728977
  70.3371992   6.5501101  72.0841035  57.2956581  -2.6065024  55.8938642
  57.5910022  -3.5154345  55.8405695  56.3944617  -2.6277284  55.5719644
  69.2042660   9.1142240  62.6989050  69.0793800   8.3131980  62.1899995
  69.8621751   9.6088434  62.2103020  71.2677568   6.9151260  64.3268600
  70.3207904   6.7956612  64.2546927  71.6160342   6.0273758  64.4094862
  68.2724002   6.7103977  60.5272952  68.1248964   5.7820684  60.7080522
  69.0977495   6.7324067  60.0430028  71.8758124   7.5332535  61.6137825
  72.8004671   7.3275397  61.4762276  71.7073427   7.2848936  62.5227167
  63.0084737  -2.4772473  62.0975814  62.8629318  -2.1632169  62.9900096
  62.5309941  -1.8587572  61.5446713  71.6653440   8.0518203  56.9699917
  71.8390317   7.4864625  56.2173769  72.1582331   8.8519098  56.7879406
  57.4830400   0.0632872  65.0363475  56.9383868   0.8392680  65.1683750
  58.3609750   0.4103676  64.8782597  72.6528612   7.3684967  54.0696815
  73.3479517   7.9891660  54.2884129  72.9951762   6.5180318  54.3449193
  58.2696422  -0.8097232  67.9293632  57.5278158  -0.6614597  68.5158263
  57.9489166  -0.5488966  67.0660382  74.5520035   4.8184673  55.5984146
  75.0771360   5.1571945  54.8733466  74.4642388   3.8831688  55.4147280
  66.2140084   8.7318746  67.7274022  66.5227211   8.4867893  68.5996722
  67.0115566   8.9365385  67.2392892  66.2360696  10.8856656  59.9579399
  65.7965686  10.3933035  60.6512255  66.9868813  10.3429624  59.7171474
  58.7153035   7.0768197  59.9604027  59.5411055   6.7771969  59.5802670
  58.3647087   6.3075819  60.4093815  63.6834568   6.4294665  62.0301700
  63.0614578   5.7665370  61.7303928  64.3539435   6.4555797  61.3475348
  56.9161640   4.9954523  60.9192960  56.0793549   4.5676698  60.7376962
  56.8885286   5.1886967  61.8563752  74.2413942   5.4517576  70.9035344
  73.4509485   5.4341715  70.3639843  74.0047296   5.9905870  71.6584380
  74.3611817   2.3010043  68.2168072  74.4109821   2.1360050  69.1583595
  74.2525740   1.4337302  67.8265953  63.2448075   4.9798588  55.5060161
  63.3936196   5.6634053  54.8526834  64.0514519   4.9603678  56.0209617
  75.8630013   4.7206984  68.4610094  75.5714822   5.0836965  69.2973555
  75.2502145   4.0073993  68.2823426  61.0000708   1.0063766  56.5121230
  60.7546750   0.1026096  56.7101440  61.1696623   1.0080917  55.5700708
  66.7443481   7.4746719  52.9771908  66.1717448   8.0936906  52.5242380
  67.3176274   8.0246081  53.5111830  69.9640741   7.7583869  54.1080491
  70.8971414   7.6929431  54.3113366  69.8763953   8.5940136  53.6495023
  72.5928757   7.0749739  51.0684438  72.5142389   6.7409603  51.9620196
  73.4138424   7.5671507  51.0675911  67.0128972   2.8625278  71.7788618
  67.9331981   3.0403877  71.9728664  66.9778555   1.9181323  71.6268317
  56.2311137  -1.9436129  60.7041893  55.9113921  -2.7970820  60.4116267
  55.6844565  -1.7287550  61.4599860  60.0091044   0.7726312  64.4211399
  60.2277054   1.7043420  64.4399433  60.4216818   0.4134287  65.2066203
  56.0999397   1.6766783  62.6735014  55.4062868   1.2620736  62.1604969
  56.8472388   1.7187319  62.0768433  64.7450180  -0.2243343  72.6279210
  64.2617261   0.5757017  72.8343099  64.8311119  -0.2135398  71.6746654
  58.0136139   1.6085037  60.5501029  57.9906827   1.7072724  59.5982912
  58.3236776   2.4550187  60.8718195  60.6723517   3.6661192  64.6647643
  61.6266771   3.6345134  64.5977575  60.4736041   3.2051815  65.4797869
  61.2622899   2.2362308  67.2318441  62.0815788   2.7306386  67.2553278
  61.5359707   1.3194276  67.2036009  59.0273746   9.2080811  61.6817841
  58.8928214   8.4481212  61.1155839  58.6105808   9.9321711  61.2146630
  70.1632709   4.3917735  50.6894417  70.8668559   4.5967737  51.3052072
  69.4395358   4.9594497  50.9543500  62.1842872  10.1050128  61.8936284
  62.0675256  11.0495561  61.7914974  61.3635318   9.8023690  62.2822083
  72.0719406   4.8300264  52.7392877  72.9065010   4.3981462  52.5570351
  71.9103749   4.6582278  53.6669771  71.7265299   1.3332377  54.1049216
  71.6714102   1.1676649  53.1637660  71.1011354   2.0408410  54.2611406
  56.5157814  -3.4299558  67.9310638  57.1616677  -3.9400604  68.4197863
  56.3074965  -2.6930877  68.5054063  69.0411206   3.6381289  73.4302779
  69.9102365   3.8121941  73.0689414  68.5617957   4.4575706  73.3078508
  63.2097386  10.7578390  65.1092212  64.1124633  10.7902000  65.4258707
  62.9834756   9.8278841  65.1238548  64.9650988   9.5109377  61.7702291
  64.0146619   9.5111238  61.6566663  65.2683474   8.7642111  61.2538326
  80.7003682  15.3469915  62.8348053  81.3382091  15.2276662  62.1311393
  80.5824524  16.2950759  62.8936006  77.5093388  15.2997343  62.7709578
  77.1711899  15.1838408  61.8830113  78.3783156  14.8988508  62.7510584
  73.3680203  17.1532820  58.7606469  72.8045069  17.0622757  57.9922757
  73.2532599  16.3332724  59.2408962  77.9913171  16.4532195  68.7295784
  77.9801812  16.0584993  67.8576287  78.1533810  15.7198268  69.3229555
  70.9144635  18.6484011  61.5990689  71.7065927  18.3074836  61.1836989
  71.1541286  18.7578986  62.5192843  78.9479762  20.8203787  54.0720934
  78.2967742  21.4057868  53.6854948  79.7424125  21.3509982  54.1315971
  72.8735389  17.9092924  54.4708068  73.6466265  17.3621912  54.3320944
  73.2260788  18.7737174  54.6822530  74.7120432  19.2369307  67.6774968
  74.4210298  20.1414938  67.5621634  75.3477416  19.2785834  68.3919037
  75.6376639  16.6146155  64.2676327  76.2340211  16.3902178  63.5533290
  75.6951610  15.8730901  64.8701775  75.2101667  14.0685591  52.1026518
  75.4627188  13.5467112  51.3409981  74.2726226  13.9051736  52.2053202
  80.2544950  13.0721369  59.9101261  81.0408039  12.6540792  59.5591678
  80.5183654  13.9767461  60.0782910  80.4255027  18.5094219  54.6089918
  79.7900860  18.5828846  55.3210823  80.0952434  19.0987818  53.9308997
  85.6553377  13.0096602  60.8134240  86.3878549  12.4395819  61.0472069
  84.8992733  12.6218203  61.2540745  74.9297956  15.9713697  54.3050893
  74.8134214  15.2958600  54.9731977  75.0400216  15.4846070  53.4883046
  77.2729497  15.4323844  58.0097582  76.9087704  14.9054465  58.7210504
  78.1296613  15.0422313  57.8364068  83.1778797   6.7218176  65.2728849
  82.8462122   7.5913587  65.0490063  82.5824411   6.4054460  65.9522879
  76.9134984  10.4613743  53.0058931  77.0809386  11.3293980  53.3729402
  76.7232153  10.6241025  52.0820220  79.6710317  18.9230722  64.6724761
  79.3711040  19.8255761  64.5640568  79.3261377  18.6562905  65.5245914
  73.1222798  15.3744519  60.7061466  72.1973295  15.2420733  60.9139157
  73.3707212  16.1538738  61.2031408  83.0707461  11.4413262  62.3522199
  82.1624338  11.3728671  62.0580960  83.0195057  11.9185207  63.1804024
  76.8924205  12.9171401  53.9905598  76.7723830  13.3628452  54.8291078
  76.1976793  13.2656718  53.4319136  70.4831610  15.0177793  61.5405255
  70.6123991  15.2712272  62.4544666  69.8029061  15.6105501  61.2209910
  77.1448327  12.8602908  70.2957096  76.3681661  13.4196828  70.2859960
  77.7838890  13.3459691  70.8171966  84.9369107   9.6429701  64.1300072
  84.2943487   9.9362234  63.4839867  84.4324036   9.5282621  64.9353269
  82.5909271  13.3892874  54.8185932  83.5027127  13.6220261  54.6433629
  82.0818918  13.9729918  54.2561010  75.3994699  15.6688361  69.8575063
  76.1409383  16.2073405  69.5809886  74.6931684  16.2954650  70.0146615
  80.8750039  17.8117502  68.4547224  81.2833395  17.3699912  67.7101857
  80.1527300  17.2370129  68.7081417  77.2281109  12.7490109  65.8280781
  78.0742304  13.1729522  65.9715430  77.1679746  12.0923733  66.5219344
  81.1978853  18.3718692  62.2099513  80.5687716  18.5364407  61.5075581
  80.8104515  18.7860302  62.9810477  85.0768085  19.3073130  59.5643877
  84.3919123  19.6872032  59.0140910  85.1611934  19.9168457  60.2975825
  80.3780554  10.4094477  67.4861955  80.1341486  11.1636537  66.9496231
  80.6540484  10.7879825  68.3209202  82.3319017  16.9533089  66.1639220
  82.5435912  17.5964849  65.4873602  82.2848765  16.1195406  65.6961151
  79.9345246   9.5650910  63.0675793  79.0729725   9.8632164  63.3592530
  79.9607680   9.7821309  62.1356825  76.7506815  18.1093101  59.4749598
  77.2145161  18.3880804  58.6854221  76.4863613  17.2076545  59.2922689
  73.6430896  17.6564582  62.4129362  74.2132253  18.0851850  61.7746846
  74.2339008  17.3747167  63.1113547  75.6875701  14.2316253  56.2839163
  76.3899744  14.6837297  56.7513090  75.3556330  13.5900072  56.9119057
  74.1356063  12.8228010  70.6590373  73.5054723  13.5044290  70.8925770
  74.0292151  12.7111091  69.7143511  69.4301035  12.4899806  61.5856297
  68.6400089  12.7457334  61.1096408  69.9212282  13.3048143  61.6908338
  83.4464845  19.8305045  64.3361578  84.2682288  19.4285232  64.0544259
  83.4427247  19.7273279  65.2877694  71.3815780  12.8544385  58.5439774
  70.5846944  12.9663079  59.0623269  71.1541373  13.1931037  57.6780664
  77.2121448  19.3789088  66.4922288  77.2765881  19.8409495  67.3280460
  76.5032372  18.7486453  66.6204598  67.7138738  12.7430296  64.0171288
  67.9646776  13.6277306  64.2828864  68.2498286  12.5634898  63.2446380
  91.5370838  16.1743793  60.6846549  90.7834546  15.6051191  60.5290554
  91.6718379  16.1406458  61.6317184  76.9269466  21.0457196  56.3601269
  76.7915141  21.8908731  56.7886116  77.4679278  21.2476473  55.5967202
  73.4136805   7.1248775  73.0215624  73.0203751   6.5714974  73.6963268
  74.2302946   7.4359354  73.4122141  70.3798863  18.5632634  56.9329194
  70.8923384  19.3575884  57.0834758  71.0321576  17.8658924  56.8662795
  72.1893748  21.6798390  59.0151947  72.3660376  22.6016355  58.8272931
  72.9850581  21.3656809  59.4446327  76.3304766   8.5406654  70.6135880
  77.0714480   9.1413808  70.5340343  76.5622689   7.7984292  70.0553923
  71.4746104  13.7263022  68.8914110  71.3599619  12.8248279  69.1921209
  70.6190622  13.9726718  68.5398927  78.5537942  21.6680762  70.4901611
  78.1101796  20.8817141  70.1722515  79.2155156  21.8559913  69.8245502
  73.3125063  23.1976564  65.0162289  73.8632488  23.0693627  64.2439283
  72.4736539  23.4971453  64.6657182  80.6519180  21.9483562  68.5183012
  80.6337656  22.7692443  68.0263281  81.5739100  21.8237637  68.7433153
  77.1092234  19.4627691  69.3606520  77.6420571  18.7015980  69.1305828
  76.5806315  19.1701343  70.1030675  80.2761929   4.5687757  64.8900162
  79.9326199   5.4589399  64.8139273  80.6440892   4.3789415  64.0269747
  68.3447780  16.8921288  57.7088764  69.1823002  17.3018296  57.4922472
  68.5226048  15.9520730  57.6788958  80.2412212  14.5596368  53.3972597
  79.7258835  15.3300973  53.6360985  79.9689520  13.8861505  54.0205659
  77.8259323   9.4046069  58.4557836  76.9700919   9.0152920  58.2763474
  78.2386275   9.4838030  57.5957621  79.3558470   6.9392413  62.8549395
  78.8523265   6.9022548  62.0417201  79.6489077   7.8485155  62.9146052
  75.6001356   7.0231142  61.8615577  76.4654352   6.8273951  61.5021467
  75.6678864   6.7941494  62.7884934  85.2146486  17.3128723  55.3325771
  84.4375929  16.9739883  54.8880933  85.8937967  17.3181346  54.6580736
  80.0298515  12.4323461  55.2232378  79.7248651  12.7469610  56.0742522
  80.9828957  12.5104880  55.2659711  78.4744947  18.5913684  56.8725332
  77.9466309  17.8566443  56.5598570  77.9732450  19.3688360  56.6265301
  83.4537793  16.7862704  61.9892379  82.7961467  17.4761966  62.0772507
  84.2578192  17.1759136  62.3326365  73.2063675   9.2533350  59.2331944
  73.7807427   9.0308532  58.5005137  73.7934657   9.3222045  59.9860545
  82.2643252  15.1407077  60.0396320  82.7775134  15.7737069  60.5418030
  82.9144476  14.5408273  59.6739680  73.5333262  11.2837811  53.2527829
  72.6970574  11.6212498  53.5737104  73.3938031  11.1486791  52.3154966
  75.5086342   6.1274599  57.9607013  74.8550755   5.8123616  57.3363628
  75.4666816   5.5050340  58.6866836  76.6197547  16.4093894  49.8760305
  75.7124609  16.1783148  50.0751454  77.1168579  15.6131513  50.0634287
  78.7424083  12.6156533  62.2854661  77.8246644  12.8371480  62.1276349
  79.1584226  12.6902843  61.4266368  79.5259130  14.0147948  57.4157341
  80.2730949  14.5269346  57.1064463  79.7950720  13.6932001  58.2761735
  77.7985781  16.5106489  54.3984296  76.8897000  16.2265522  54.4956765
  77.8280864  16.9305568  53.5387602  83.0305048  20.1213079  58.1675463
  82.5767375  19.2803988  58.2240654  82.3999015  20.7574477  58.5050243
  81.9737968  11.0505065  59.3976131  81.2360724  10.5382451  59.7286373
  82.2264741  10.6105446  58.5859407  81.4737987  21.9589575  59.1025281
  81.7660962  22.5194632  58.3837647  81.9836608  22.2518136  59.8578440
  68.3673951  14.2312003  58.3799498  68.1698351  13.6381364  57.6550564
  67.8120615  13.9264213  59.0975437  76.3470675  14.1235110  60.4994091
  76.4019284  13.1708946  60.4236567  75.5361877  14.2794549  60.9835389
  77.4961868  18.0515233  51.7372374  77.0581298  17.3351092  51.2778011
  78.2372309  18.2791348  51.1757465  74.2863035  12.7412169  58.2584470
  73.4730900  13.0406340  58.6649662  74.7822029  12.3467858  58.9758952
  76.4371612  22.7369926  60.1918734  76.3947791  22.9630773  59.2627266
  77.3534311  22.5033301  60.3404536  79.8837246  13.2053994  67.0899364
  80.2386634  13.4325467  67.9493829  80.5309378  13.5372371  66.4676619
  85.6134983  16.3272430  57.7948693  85.4752882  16.5174026  56.8669882
  85.2571202  17.0891813  58.2516744  73.7777109  10.3130525  63.8745705
  74.4176489  10.1719284  63.1768668  72.9454640  10.0265038  63.4984307
  85.6404363  18.3948957  62.8059964  86.0740870  18.3024246  63.6543018
  86.3535944  18.3706457  62.1679980  74.5537413  19.6132955  59.9880697
  75.3478012  19.1183275  59.7863272  73.8429106  19.0850818  59.6248403
  79.3732258  21.9951051  64.3393065  79.4269280  22.5641987  65.1070781
  78.5047039  22.1652936  63.9747102  70.8620177  13.7576037  56.0640450
  69.9317765  13.6960493  56.2810412  70.9577649  13.2351990  55.2677091
  70.7805726  10.2830850  58.6518691  71.0412543  11.1976183  58.5427852
  71.6022898   9.8155292  58.8015304  72.2530651  11.6968607  65.8217516
  72.9253705  11.4885969  65.1730165  71.4260438  11.4990693  65.3822748
  86.5019912  18.4372657  65.3392850  86.6955802  19.3418468  65.5852124
  86.4020531  17.9780076  66.1731435  78.1556223   8.3230548  67.8383177
  77.5084138   9.0220498  67.7447653  78.9257239   8.7566692  68.2059425
  81.5635021  18.5879400  70.9133730  81.4120527  18.3589952  69.9963814
  81.5539701  19.5450002  70.9265075  78.3320357  16.1611313  65.8979997
  79.2612417  16.3122473  65.7248964  77.9111388  16.2495334  65.0428643
  77.1308689  20.1861977  63.6678534  76.9919775  19.8180762  64.5404472
  76.3423286  20.7009617  63.4962492  78.6813904  19.5643580  61.0567372
  78.3463737  19.5244350  61.9525022  78.1817850  18.8988296  60.5837782
  72.6558148  14.9711210  66.5819953  72.5177946  14.2391449  67.1831492
  73.5663072  14.8820110  66.3004141  81.6173096  16.9099614  51.3304432
  81.0002267  16.1846443  51.2337484  81.1489585  17.6708975  50.9871506
  75.2840449  14.6831169  66.0703633  75.9940068  14.0424362  66.0290251
  75.2409757  14.9344064  66.9929814  83.2727228  21.6198523  68.9910212
  83.2139774  20.9357743  68.3240795  83.6746746  22.3617513  68.5390838
  73.9969383  11.6696387  67.8899272  73.4606740  11.2187126  68.5420869
  73.4086091  11.8042296  67.1469737  73.4071642  11.1285039  50.4525736
  72.5301108  11.0073839  50.0887983  73.8829395  10.3371117  50.2004625
  83.2744635  19.5838107  67.2224192  82.3871414  19.2464028  67.3450591
  83.8443186  18.8521138  67.4592957  64.9273782  15.9162198  60.5467243
  65.6144822  15.6023928  59.9588258  64.7721911  16.8203563  60.2734495
  69.7308504  10.8052395  64.9752267  69.6466693  10.1978065  64.2402677
  68.9091211  11.2961413  64.9761763  76.8045788  24.2439559  64.1885435
  76.7315960  25.0494530  64.7004739  76.3623181  24.4431525  63.3633456
  76.5935568  23.4811329  57.6988256  75.8103090  24.0233009  57.7926481
  77.2928313  23.9985309  58.0982498  79.9032218   9.2905958  60.3422462
  80.4000918   8.5375921  60.0223532  79.1319200   9.3270275  59.7765671
  87.7561976  14.9946324  61.9840753  87.7451852  15.8771039  61.6134686
  86.8879355  14.6417875  61.7895290  79.2644472  24.1426393  66.3443594
  79.9772444  24.7773858  66.2719495  78.7734501  24.2390259  65.5283595
  80.9861999  18.0477646  57.9160885  80.0518278  18.1679108  57.7465590
  81.1638667  17.1450112  57.6520895  76.4867187  11.4323341  60.0694146
  76.1164974  10.8794382  60.7575052  76.9826279  10.8281475  59.5169146
  84.3734550  13.8894965  58.4510919  84.8395002  14.7222957  58.3771222
  84.8242051  13.4239947  59.1556178  74.3156385  21.8920836  67.1649164
  75.0165845  22.5257319  67.3178559  73.8451500  22.2335568  66.4044804
  82.4410781  20.2338786  55.4497071  82.7170625  20.1195381  56.3590946
  81.5715280  19.8356271  55.4109245  82.3451213   6.2575552  62.4901821
  81.4314293   6.4879779  62.6584028  82.7744314   6.3413996  63.3415853
  82.1157671  14.4465444  64.9901715  81.4629122  14.6941351  64.3354168
  82.4938051  13.6329582  64.6564192  79.0764845  24.4825137  59.0929885
  79.2587240  23.6646793  59.5557637  79.8997831  24.6992829  58.6554775
  79.4107011  23.4093322  56.3544934  79.9394777  22.8985777  55.7415096
  79.6735230  23.0935852  57.2190467  78.1645244  15.1885255  71.4767752
  77.4885881  15.0879384  72.1470127  78.9872878  15.0324469  71.9403749
  69.9124104  21.4257192  64.0980267  70.4977540  20.6800879  64.2308171
  69.7148942  21.7361148  64.9816931  64.5041758  13.9962792  62.8184710
  64.5425858  13.4626382  63.6121828  63.9982051  13.4697997  62.1995687
  76.9068027  26.4952182  65.7125368  77.4586335  26.6583804  66.4774453
  77.2474221  27.0856620  65.0405393  71.8832521   8.8427332  66.3147253
  71.9473847   9.7042163  65.9024650  71.8199641   8.2301334  65.5819611
  71.3584793  10.9150465  69.9620287  71.9856832  10.5327542  70.5757811
  70.5012712  10.6964667  70.3275979  81.7578902  21.3213440  71.5674022
  82.3018806  21.9343398  71.0728977  81.1765746  21.8793018  72.0841035
  68.1350336  12.7226894  55.8938642  68.4303777  11.8137572  55.8405695
  67.2338372  12.7014633  55.5719644  80.0436415  24.4434158  62.6989050
  79.9187554  23.6423898  62.1899995  80.7015506  24.9380351  62.2103020
  71.6644583  10.7982890  61.8766190  70.9431169  11.4118858  61.7373664
  72.4537839  11.3340655  61.7982836  82.1071323  22.2443178  64.3268600
  81.1601659  22.1248529  64.2546927  82.4554096  21.3565676  64.4094862
  74.4670896   8.1337317  68.1506842  74.9905298   8.3799614  68.9133151
  74.2483230   8.9657352  67.7309979  69.8638177  10.4040992  56.0177967
  69.5350884   9.5238370  55.8353073  70.2177548  10.3488660  56.9054356
  79.1117756  22.0395894  60.5272952  78.9642719  21.1112602  60.7080522
  79.9371250  22.0615985  60.0430028  72.9780001  10.6913961  56.3853444
  73.3176073  11.2199883  55.6632053  73.4252121  11.0294367  57.1612011
  82.7151878  22.8624453  61.6137825  83.6398426  22.6567314  61.4762276
  82.5467181  22.6140854  62.5227167  75.6723441   9.0751012  65.8356513
  75.3320262   8.2758825  66.2377192  74.9662448   9.3752723  65.2633346
  76.3239913   6.1600324  64.2883836  77.1465983   5.6860803  64.1662726
  76.5677977   6.9390808  64.7882522  74.9648148   9.1888583  54.5846737
  75.6856510   9.5669836  54.0810454  74.3413452   9.9077460  54.6881715
  79.1079271   9.8933732  55.5205070  79.3242885  10.7758370  55.2193898
  78.6273338   9.5019945  54.7910712  73.8478492  12.8519445  62.0975814
  73.7023073  13.1659748  62.9900096  73.3703696  13.4704345  61.5446713
  75.7074875   9.8421993  62.1456704  75.6936444   8.9463086  61.8089002
  76.4247303   9.8492657  62.7794990  77.5601006  10.2759333  64.1909831
  77.3018783  11.1976404  64.1894162  77.0286046   9.8789768  64.8810295
  82.5047194  23.3810120  56.9699917  82.6784072  22.8156543  56.2173769
  82.9976086  24.1811015  56.7879406  68.3224154  15.3924790  65.0363475
  67.7777622  16.1684598  65.1683750  69.2003504  15.7395594  64.8782597
  75.1111771   8.7236373  57.4144274  75.2327682   7.7953020  57.6135161
  74.8213813   8.7375059  56.5022589  77.9802961   6.4091284  60.5510994
  78.0024658   6.4730617  59.5962973  78.3971020   5.5695792  60.7451500
  88.3586586  16.1446543  58.5890216  88.8017732  15.3953869  58.1909340
  87.4813096  16.1356680  58.2063948  69.1090176  14.5194686  67.9293632
  68.3671912  14.6677321  68.5158263  68.7882920  14.7802951  67.0660382
  85.3913790  20.1476590  55.5984146  85.9165114  20.4863863  54.8733466
  85.3036142  19.2123606  55.4147280  77.0533839  24.0610664  67.7274022
  77.3620965  23.8159811  68.5996722  77.8509321  24.2657303  67.2392892
  77.0754451  26.2148574  59.9579399  76.6359441  25.7224952  60.6512255
  77.8262568  25.6721541  59.7171474  69.5546790  22.4060115  59.9604027
  70.3804810  22.1063886  59.5802670  69.2040842  21.6367737  60.4093815
  74.5228323  21.7586583  62.0301700  73.9008332  21.0957288  61.7303928
  75.1933190  21.7847715  61.3475348  67.7555395  20.3246441  60.9192960
  66.9187303  19.8968615  60.7376962  67.7279040  20.5178884  61.8563752
  74.5952850  10.2368371  71.6234206  74.6441006  11.1130494  71.2411976
  75.1375365   9.6945764  71.0505850  85.0807696  20.7809494  70.9035344
  84.2903240  20.7633633  70.3639843  84.8441051  21.3197788  71.6584380
  85.2005571  17.6301960  68.2168072  85.2503576  17.4651968  69.1583595
  85.0919494  16.7629219  67.8265953  74.0841830  20.3090506  55.5060161
  74.2329950  20.9925970  54.8526834  74.8908273  20.2895596  56.0209617
  82.4909333  13.6132888  69.5327379  83.3919196  13.4739353  69.2411377
  82.5657308  13.7787343  70.4725556  76.8252139  10.9899743  68.3780565
  75.9555448  11.2833309  68.1063154  77.0611619  11.5740188  69.0987829
  86.7023768  20.0498902  68.4610094  86.4108576  20.4128882  69.2973555
  86.0895899  19.3365910  68.2823426  87.9019450  17.6151782  60.9812664
  88.7366342  18.0541586  61.1450224  88.0378579  17.1390435  60.1620910
  84.9510956  15.1731517  66.9290152  85.4265078  15.3659163  66.1209003
  84.0276522  15.2290702  66.6833535  71.8394463  16.3355684  56.5121230
  71.5940505  15.4318014  56.7101440  72.0090377  16.3372834  55.5700708
  79.5291173   7.2079360  65.8945986  80.0473116   7.9440387  65.5692474
  79.1746305   7.5143353  66.7292745  71.1090110  12.0684041  54.0107391
  70.4159355  12.1428396  53.3547427  70.8641862  11.3044385  54.5328908
  77.5837235  22.8038637  52.9771908  77.0111202  23.4228824  52.5242380
  78.1570029  23.3537998  53.5111830  83.6512625  12.0497277  65.1618457
  84.6030048  12.1495374  65.1830681  83.4816076  11.2575545  65.6716542
  81.6727005   9.1352860  65.3477858  81.0776937   9.4157873  64.6524347
  81.3876701   9.6246761  66.1194599  86.1300703  15.2703396  64.2760757
  86.0977023  14.3319397  64.4620441  86.7401327  15.3487433  63.5426582
  77.9684034  14.1399449  50.3187961  78.9143138  14.0105657  50.3876379
  77.5898279  13.4014111  50.7957389  86.2795191  12.0614440  64.3219040
  85.7634240  11.2772896  64.1348969  87.1635140  11.7333156  64.4865560
  83.9405918   5.8055455  60.2814853  83.7430739   5.4970544  61.1658185
  84.5505624   6.5317094  60.4112783  91.9477253  16.3319403  63.4166794
  92.6780641  16.0704691  63.9774497  91.3384198  15.5948125  63.4568862
  90.0292550  14.4727266  64.0141245  89.3025713  14.3383231  63.4057736
  89.6139837  14.7804094  64.8197963  77.8522726  18.1917195  71.7788618
  78.7725736  18.3695794  71.9728664  77.8172309  17.2473241  71.6268317
  76.1526951  12.0649426  50.2542846  75.2458406  11.7682538  50.3305560
  76.4302932  11.7679244  49.3877132  67.0704891  13.3855789  60.7041893
  66.7507676  12.5321097  60.4116267  66.5238319  13.6004367  61.4599860
  70.8484799  16.1018230  64.4211399  71.0670809  17.0335338  64.4399433
  71.2610573  15.7426204  65.2066203  77.7689017   6.6086315  56.4087087
  76.9589745   6.2633400  56.7842333  78.4573434   6.2993859  56.9974699
  79.6979565   5.6864362  58.0311384  80.2510604   6.1059816  58.6901407
  79.9349651   4.7600110  58.0734340  75.7212664  11.6751436  73.8114148
  75.6209391  12.6245793  73.7426239  75.5034206  11.3469675  72.9390218
  74.9225736   8.9236361  50.3954825  75.7844900   9.2491259  50.6550643
  75.1076080   8.1367857  49.8827891  66.9393151  17.0058701  62.6735014
  66.2456623  16.5912653  62.1604969  67.6866142  17.0479237  62.0768433
  83.0758372   7.7964887  57.5390048  82.4957041   8.4549691  57.1568101
  82.8094305   6.9742232  57.1277466  81.5261938   7.1969945  59.7411369
  82.0261717   7.3086480  58.9325687  82.1697546   6.8930998  60.3812177
  75.5843934  15.1048575  72.6279210  75.1011016  15.9048935  72.8343099
  75.6704873  15.1156520  71.6746654  68.8529894  16.9376954  60.5501029
  68.8300582  17.0364642  59.5982912  69.1630530  17.7842105  60.8718195
  71.5117272  18.9953109  64.6647643  72.4660525  18.9637052  64.5977575
  71.3129795  18.5343733  65.4797869  72.1016654  17.5654225  67.2318441
  72.9209543  18.0598304  67.2553278  72.3753462  16.6486194  67.2036009
  81.8583250   9.9564978  56.5946397  80.9709105  10.2414628  56.3766591
  82.2737239   9.7958741  55.7473673  85.2097786   9.9811499  60.3100736
  85.9858176  10.4707951  60.5825353  84.4845920  10.4069553  60.7672605
  87.6470345  10.6939118  61.3674676  88.2414836  10.4534854  60.6567985
  87.7196929   9.9746249  61.9948213  69.8667501  24.5372729  61.6817841
  69.7321968  23.7773130  61.1155839  69.4499563  25.2613629  61.2146630
  81.0026464  19.7209652  50.6894417  81.7062314  19.9259655  51.3052072
  80.2789112  20.2886414  50.9543500  81.8324274  15.4719514  56.8096687
  81.7759475  15.9288065  55.9704319  82.3852616  14.7110198  56.6319529
  85.6429080  11.2609246  57.6346806  85.3866014  10.8605881  58.4655014
  85.0181948  11.9753039  57.5096945  89.9541418  14.0005319  60.1418098
  89.3940976  14.0698508  60.9149660  89.3484921  13.8246303  59.4217594
  82.9113161  20.1592182  52.7392877  83.7458765  19.7273380  52.5570351
  82.7497504  19.9874195  53.6669771  82.5659053  16.6624295  54.1049216
  82.5107857  16.4968566  53.1637660  81.9405108  17.3700328  54.2611406
  67.3551568  11.8992359  67.9310638  68.0010432  11.3891313  68.4197863
  67.1468719  12.6361041  68.5054063  79.8804960  18.9673207  73.4302779
  80.7496120  19.1413859  73.0689414  79.4011712  19.7867624  73.3078508
  75.8755179   6.1632404  53.6834534  75.8633848   7.1074244  53.8402805
  76.7678600   5.9802549  53.3893996  71.6949059   9.0459976  72.0285652
  72.5580521   8.6896781  72.2388977  71.1214470   8.7073871  72.7161057
  91.5397436  30.6761833  62.8348053  92.1775846  30.5568580  62.1311393
  91.4218279  31.6242677  62.8936006  88.8306925  31.7824113  68.7295784
  88.8195566  31.3876911  67.8576287  88.9927565  31.0490185  69.3229555
  85.5514186  34.5661224  67.6774968  85.2604052  35.4706855  67.5621634
  86.1871171  34.6077752  68.3919037  91.0938704  28.4013287  59.9101261
  91.8801794  27.9832710  59.5591678  91.3577409  29.3059379  60.0782910
  96.4947132  28.3388520  60.8134240  97.2272304  27.7687737  61.0472069
  95.7386487  27.9510120  61.2540745  94.0172552  22.0510094  65.2728849
  93.6855877  22.9205505  65.0490063  93.4218165  21.7346378  65.9522879
  87.7528738  25.7905661  53.0058931  87.9203141  26.6585897  53.3729402
  87.5625907  25.9532943  52.0820220  90.5104072  34.2522640  64.6724761
  90.2104795  35.1547679  64.5640568  90.1655131  33.9854823  65.5245914
  93.9101215  26.7705180  62.3522199  93.0018093  26.7020588  62.0580960
  93.8588811  27.2477125  63.1804024  87.9842081  28.1894826  70.2957096
  87.2075415  28.7488746  70.2859960  88.6232644  28.6751609  70.8171966
  95.7762862  24.9721618  64.1300072  95.1337242  25.2654152  63.4839867
  95.2717790  24.8574539  64.9353269  93.4303025  28.7184792  54.8185932
  94.3420881  28.9512178  54.6433629  92.9212672  29.3021836  54.2561010
  86.2388453  30.9980279  69.8575063  86.9803138  31.5365323  69.5809886
  85.5325439  31.6246568  70.0146615  91.7143793  33.1409419  68.4547224
  92.1227149  32.6991830  67.7101857  90.9921055  32.5662047  68.7081417
  88.0674863  28.0782026  65.8280781  88.9136058  28.5021440  65.9715430
  88.0073501  27.4215651  66.5219344  92.0372608  33.7010610  62.2099513
  91.4081470  33.8656324  61.5075581  91.6498270  34.1152220  62.9810477
  95.9161840  34.6365048  59.5643877  95.2312878  35.0163949  59.0140910
  96.0005689  35.2460375  60.2975825  91.2174308  25.7386395  67.4861955
  90.9735240  26.4928455  66.9496231  91.4934239  26.1171742  68.3209202
  93.1712771  32.2825007  66.1639220  93.3829666  32.9256767  65.4873602
  93.1242519  31.4487324  65.6961151  90.7739000  24.8942828  63.0675793
  89.9123479  25.1924081  63.3592530  90.8001435  25.1113227  62.1356825
  84.9749817  28.1519927  70.6590373  84.3448478  28.8336208  70.8925770
  84.8685905  28.0403009  69.7143511  94.2858599  35.1596962  64.3361578
  95.1076043  34.7577150  64.0544259  94.2821002  35.0565197  65.2877694
  88.0515203  34.7081006  66.4922288  88.1159635  35.1701413  67.3280460
  87.3426126  34.0778371  66.6204598  78.5532493  28.0722214  64.0171288
  78.8040531  28.9569224  64.2828864  79.0892041  27.8926815  63.2446380
 102.3764592  31.5035711  60.6846549 101.6228301  30.9343109  60.5290554
 102.5112133  31.4698375  61.6317184  84.2530560  22.4540693  73.0215624
  83.8597505  21.9006892  73.6963268  85.0696700  22.7651272  73.4122141
  87.1698521  23.8698572  70.6135880  87.9108234  24.4705725  70.5340343
  87.4016444  23.1276210  70.0553923  82.3139859  29.0554939  68.8914110
  82.1993374  28.1540197  69.1921209  81.4584377  29.3018636  68.5398927
  89.3931697  36.9972680  70.4901611  88.9495551  36.2109058  70.1722515
  90.0548910  37.1851830  69.8245502  91.4912935  37.2775480  68.5183012
  91.4731410  38.0984361  68.0263281  92.4132855  37.1529555  68.7433153
  87.9485989  34.7919609  69.3606520  88.4814326  34.0307897  69.1305828
  87.4200070  34.4993261  70.1030675  91.1155684  19.8979675  64.8900162
  90.7719953  20.7881317  64.8139273  91.4834646  19.7081333  64.0269747
  91.0805967  29.8888286  53.3972597  90.5652590  30.6592891  53.6360985
  90.8083275  29.2153422  54.0205659  88.6653078  24.7337987  58.4557836
  87.8094674  24.3444837  58.2763474  89.0780029  24.8129948  57.5957621
  90.1952224  22.2684330  62.8549395  89.6917020  22.2314465  62.0417201
  90.4882831  23.1777073  62.9146052  86.4395110  22.3523060  61.8615577
  87.3048107  22.1565869  61.5021467  86.5072619  22.1233412  62.7884934
  96.0540241  32.6420641  55.3325771  95.2769683  32.3031800  54.8880933
  96.7331722  32.6473264  54.6580736  90.8692270  27.7615378  55.2232378
  90.5642405  28.0761527  56.0742522  91.8222712  27.8396798  55.2659711
  94.2931548  32.1154622  61.9892379  93.6355222  32.8053883  62.0772507
  95.0971947  32.5051054  62.3326365  84.0457429  24.5825268  59.2331944
  84.6201181  24.3600449  58.5005137  84.6328412  24.6513962  59.9860545
  93.1037006  30.4698995  60.0396320  93.6168888  31.1028987  60.5418030
  93.7538230  29.8700190  59.6739680  86.3480097  21.4566517  57.9607013
  85.6944509  21.1415534  57.3363628  86.3060571  20.8342257  58.6866836
  90.3652885  29.3439866  57.4157341  91.1124704  29.8561263  57.1064463
  90.6344475  29.0223919  58.2761735  93.8698803  35.4504996  58.1675463
  93.4161130  34.6095906  58.2240654  93.2392769  36.0866395  58.5050243
  92.8131722  26.3796982  59.3976131  92.0754479  25.8674368  59.7286373
  93.0658496  25.9397364  58.5859407  92.3131742  37.2881493  59.1025281
  92.6054716  37.8486550  58.3837647  92.8230362  37.5810054  59.8578440
  92.9143349  19.1573234  59.9917900  93.2202226  18.2970598  59.7043815
  93.6395954  19.7490854  59.7916894  90.7231001  28.5345912  67.0899364
  91.0780389  28.7617385  67.9493829  91.3703132  28.8664288  66.4676619
  96.4528738  31.6564347  57.7948693  96.3146636  31.8465943  56.8669882
  96.0964957  32.4183730  58.2516744  84.6170864  25.6422443  63.8745705
  85.2570243  25.5011202  63.1768668  83.7848394  25.3556956  63.4984307
  96.4798117  33.7240874  62.8059964  96.9134624  33.6316164  63.6543018
  97.1929698  33.6998375  62.1679980  81.6199480  25.6122768  58.6518691
  81.8806298  26.5268101  58.5427852  82.4416653  25.1447210  58.8015304
  83.0924406  27.0260525  65.8217516  83.7647459  26.8177887  65.1730165
  82.2654192  26.8282611  65.3822748  97.3413667  33.7664575  65.3392850
  97.5349557  34.6710386  65.5852124  97.2414285  33.3071994  66.1731435
  88.9949978  23.6522466  67.8383177  88.3477893  24.3512415  67.7447653
  89.7650993  24.0858610  68.2059425  92.4028776  33.9171318  70.9133730
  92.2514282  33.6881870  69.9963814  92.3933455  34.8741919  70.9265075
  89.1714112  31.4903231  65.8979997  90.1006172  31.6414390  65.7248964
  88.7505142  31.5787251  65.0428643  83.4951903  30.3003128  66.5819953
  83.3571701  29.5683367  67.1831492  84.4056826  30.2112028  66.3004141
  94.1120982  36.9490440  68.9910212  94.0533528  36.2649661  68.3240795
  94.5140501  37.6909430  68.5390838  84.8363138  26.9988305  67.8899272
  84.3000495  26.5479043  68.5420869  84.2479846  27.1334214  67.1469737
  94.1138389  34.9130024  67.2224192  93.2265168  34.5755946  67.3450591
  94.6836941  34.1813056  67.4592957  80.5702259  26.1344313  64.9752267
  80.4860447  25.5269982  64.2402677  79.7484965  26.6253331  64.9761763
  90.7425973  24.6197876  60.3422462  91.2394672  23.8667838  60.0223532
  89.9712954  24.6562193  59.7765671  98.5955730  30.3238242  61.9840753
  98.5845606  31.2062957  61.6134686  97.7273109  29.9709793  61.7895290
  91.8255753  33.3769563  57.9160885  90.8912032  33.4971026  57.7465590
  92.0032422  32.4742030  57.6520895  95.2128305  29.2186883  58.4510919
  95.6788757  30.0514874  58.3771222  95.6635805  28.7531864  59.1556178
  93.1844967  21.5867470  62.4901821  92.2708047  21.8171696  62.6584028
  93.6138069  21.6705914  63.3415853  92.9551426  29.7757362  64.9901715
  92.3022876  30.0233269  64.3354168  93.3331806  28.9621500  64.6564192
  89.9158600  39.8117055  59.0929885  90.0980994  38.9938711  59.5557637
  90.7391586  40.0284747  58.6554775  89.0038999  30.5177173  71.4767752
  88.3279636  30.4171302  72.1470127  89.8266633  30.3616386  71.9403749
  82.7226275  24.1719250  66.3147253  82.7867602  25.0334081  65.9024650
  82.6593395  23.5593252  65.5819611  82.1978548  26.2442382  69.9620287
  82.8250586  25.8619460  70.5757811  81.3406466  26.0256584  70.3275979
  92.5972656  36.6505358  71.5674022  93.1412560  37.2635316  71.0728977
  92.0159501  37.2084936  72.0841035  82.5038337  26.1274808  61.8766190
  81.7824923  26.7410776  61.7373664  83.2931593  26.6632573  61.7982836
  92.9465077  37.5735096  64.3268600  91.9995413  37.4540447  64.2546927
  93.2947851  36.6857594  64.4094862  85.3064651  23.4629235  68.1506842
  85.8299053  23.7091531  68.9133151  85.0876984  24.2949269  67.7309979
  80.7031932  25.7332909  56.0177967  80.3744638  24.8530288  55.8353073
  81.0571303  25.6780578  56.9054356  83.8173755  26.0205879  56.3853444
  84.1569828  26.5491800  55.6632053  84.2645876  26.3586285  57.1612011
  93.5545633  38.1916371  61.6137825  94.4792180  37.9859232  61.4762276
  93.3860936  37.9432772  62.5227167  86.5117196  24.4042930  65.8356513
  86.1714016  23.6050743  66.2377192  85.8056202  24.7044641  65.2633346
  87.1633668  21.4892242  64.2883836  87.9859737  21.0152720  64.1662726
  87.4071731  22.2682726  64.7882522  85.8041902  24.5180501  54.5846737
  86.5250265  24.8961753  54.0810454  85.1807206  25.2369377  54.6881715
  89.9473025  25.2225650  55.5205070  90.1636639  26.1050287  55.2193898
  89.4667092  24.8311863  54.7910712  86.5468629  25.1713911  62.1456704
  86.5330198  24.2755004  61.8089002  87.2641057  25.1784575  62.7794990
  88.3994760  25.6051251  64.1909831  88.1412538  26.5268322  64.1894162
  87.8679800  25.2081686  64.8810295  85.9505525  24.0528291  57.4144274
  86.0721436  23.1244937  57.6135161  85.6607568  24.0666977  56.5022589
  88.8196716  21.7383202  60.5510994  88.8418412  21.8022535  59.5962973
  89.2364775  20.8987710  60.7451500  99.1980340  31.4738461  58.5890216
  99.6411486  30.7245786  58.1909340  98.3206850  31.4648597  58.2063948
  79.9483930  29.8486603  67.9293632  79.2065667  29.9969239  68.5158263
  79.6276675  30.1094869  67.0660382  96.2307544  35.4768508  55.5984146
  96.7558869  35.8155781  54.8733466  96.1429897  34.5415523  55.4147280
  87.8927593  39.3902582  67.7274022  88.2014720  39.1451728  68.5996722
  88.6903075  39.5949220  67.2392892  85.4346605  25.5660288  71.6234206
  85.4834760  26.4422411  71.2411976  85.9769119  25.0237682  71.0505850
  95.9201450  36.1101412  70.9035344  95.1296994  36.0925551  70.3639843
  95.6834805  36.6489705  71.6584380  96.0399326  32.9593878  68.2168072
  96.0897330  32.7943886  69.1583595  95.9313249  32.0921137  67.8265953
  93.3303088  28.9424806  69.5327379  94.2312951  28.8031271  69.2411377
  93.4051062  29.1079261  70.4725556  87.6645893  26.3191661  68.3780565
  86.7949203  26.6125227  68.1063154  87.9005374  26.9032106  69.0987829
  97.5417522  35.3790820  68.4610094  97.2502331  35.7420800  69.2973555
  96.9289654  34.6657828  68.2823426  98.7413205  32.9443699  60.9812664
  99.5760096  33.3833503  61.1450224  98.8772333  32.4682353  60.1620910
  95.7904711  30.5023434  66.9290152  96.2658832  30.6951081  66.1209003
  94.8670276  30.5582620  66.6833535  90.3684927  22.5371278  65.8945986
  90.8866871  23.2732305  65.5692474  90.0140060  22.8435271  66.7292745
  90.6197521  18.9571560  61.4146882  90.8999275  18.2894749  62.0407309
  91.4048128  19.1500656  60.9021546  94.4906380  27.3789194  65.1618457
  95.4423803  27.4787292  65.1830681  94.3209830  26.5867463  65.6716542
  92.5120759  24.4644778  65.3477858  91.9170691  24.7449790  64.6524347
  92.2270456  24.9538678  66.1194599  96.9694457  30.5995314  64.2760757
  96.9370778  29.6611315  64.4620441  97.5795081  30.6779351  63.5426582
  97.1188946  27.3906357  64.3219040  96.6027995  26.6064814  64.1348969
  98.0028894  27.0625074  64.4865560  94.7799673  21.1347373  60.2814853
  94.5824494  20.8262461  61.1658185  95.3899378  21.8609012  60.4112783
 102.7871007  31.6611321  63.4166794 103.5174396  31.3996609  63.9774497
 102.1777953  30.9240043  63.4568862 100.8686304  29.8019183  64.0141245
 100.1419468  29.6675148  63.4057736 100.4533591  30.1096012  64.8197963
  88.6916481  33.5209113  71.7788618  89.6119490  33.6987712  71.9728664
  88.6566064  32.5765158  71.6268317  88.6082771  21.9378233  56.4087087
  87.7983499  21.5925318  56.7842333  89.2967188  21.6285777  56.9974699
  90.5373319  21.0156280  58.0311384  91.0904358  21.4351733  58.6901407
  90.7743406  20.0892028  58.0734340  86.5606419  27.0043354  73.8114148
  86.4603146  27.9537710  73.7426239  86.3427961  26.6761592  72.9390218
  93.9152127  23.1256805  57.5390048  93.3350796  23.7841609  57.1568101
  93.6488059  22.3034150  57.1277466  92.3655693  22.5261863  59.7411369
  92.8655471  22.6378397  58.9325687  93.0091301  22.2222916  60.3812177
  86.4237689  30.4340492  72.6279210  85.9404770  31.2340852  72.8343099
  86.5098628  30.4448437  71.6746654  92.6977005  25.2856895  56.5946397
  91.8102860  25.5706546  56.3766591  93.1130994  25.1250659  55.7473673
  96.0491541  25.3103416  60.3100736  96.8251931  25.7999869  60.5825353
  95.3239675  25.7361471  60.7672605  98.4864099  26.0231036  61.3674676
  99.0808590  25.7826772  60.6567985  98.5590683  25.3038166  61.9948213
  92.6718028  30.8011431  56.8096687  92.6153230  31.2579983  55.9704319
  93.2246371  30.0402116  56.6319529  96.4822834  26.5901163  57.6346806
  96.2259768  26.1897799  58.4655014  95.8575702  27.3044957  57.5096945
 100.7935172  29.3297236  60.1418098 100.2334730  29.3990426  60.9149660
 100.1878675  29.1538221  59.4217594  78.1945323  27.2284277  67.9310638
  78.8404186  26.7183231  68.4197863  77.9862474  27.9652959  68.5054063
  90.7198715  34.2965124  73.4302779  91.5889874  34.4705777  73.0689414
  90.2405466  35.1159541  73.3078508  86.7148933  21.4924322  53.6834534
  86.7027603  22.4366162  53.8402805  87.6072355  21.3094467  53.3893996
  90.5301053  18.0867098  57.9380471  89.7633448  17.5325585  58.0837153
  90.9411757  18.1588967  58.7994623  82.5342814  24.3751894  72.0285652
  83.3974275  24.0188699  72.2388977  81.9608224  24.0365789  72.7161057
 102.3791190  46.0053750  62.8348053 103.0169600  45.8860498  62.1311393
 102.2612033  46.9534594  62.8936006  99.1880897  45.9581179  62.7709578
  98.8499408  45.8422243  61.8830113 100.0570665  45.5572344  62.7510584
  99.6700680  47.1116030  68.7295784  99.6589321  46.7168829  67.8576287
  99.8321319  46.3782103  69.3229555 100.6267271  51.4787623  54.0720934
  99.9755251  52.0641703  53.6854948 101.4211634  52.0093818  54.1315971
  96.3907941  49.8953142  67.6774968  96.0997807  50.7998773  67.5621634
  97.0264925  49.9369670  68.3919037  97.3164148  47.2729991  64.2676327
  97.9127720  47.0486013  63.5533290  97.3739119  46.5314736  64.8701775
  96.8889176  44.7269426  52.1026518  97.1414697  44.2050947  51.3409981
  95.9513735  44.5635571  52.2053202 101.9332459  43.7305204  59.9101261
 102.7195548  43.3124627  59.5591678 102.1971163  44.6351296  60.0782910
 102.1042536  49.1678055  54.6089918 101.4688369  49.2412681  55.3210823
 101.7739943  49.7571653  53.9308997 107.3340886  43.6680437  60.8134240
 108.0666058  43.0979654  61.0472069 106.5780242  43.2802038  61.2540745
  96.6085465  46.6297532  54.3050893  96.4921723  45.9542435  54.9731977
  96.7187725  46.1429906  53.4883046  98.9517006  46.0907679  58.0097582
  98.5875213  45.5638300  58.7210504  99.8084122  45.7006148  57.8364068
 104.8566306  37.3802012  65.2728849 104.5249631  38.2497423  65.0490063
 104.2611920  37.0638296  65.9522879  98.5922493  41.1197579  53.0058931
  98.7596895  41.9877815  53.3729402  98.4019662  41.2824860  52.0820220
 101.3497826  49.5814558  64.6724761 101.0498549  50.4839596  64.5640568
 101.0048886  49.3146741  65.5245914  94.8010307  46.0328354  60.7061466
  93.8760804  45.9004569  60.9139157  95.0494721  46.8122574  61.2031408
 104.7494970  42.0997098  62.3522199 103.8411847  42.0312506  62.0580960
 104.6982566  42.5769043  63.1804024  98.5711714  43.5755236  53.9905598
  98.4511339  44.0212287  54.8291078  97.8764302  43.9240554  53.4319136
  92.1619119  45.6761628  61.5405255  92.2911500  45.9296107  62.4544666
  91.4816570  46.2689336  61.2209910  98.8235836  43.5186743  70.2957096
  98.0469170  44.0780663  70.2859960  99.4626399  44.0043526  70.8171966
 106.6156616  40.3013536  64.1300072 105.9730996  40.5946069  63.4839867
 106.1111545  40.1866456  64.9353269 104.2696780  44.0476709  54.8185932
 105.1814636  44.2804096  54.6433629 103.7606427  44.6313754  54.2561010
  97.0782208  46.3272197  69.8575063  97.8196892  46.8657241  69.5809886
  96.3719193  46.9538485  70.0146615 102.5537548  48.4701337  68.4547224
 102.9620904  48.0283748  67.7101857 101.8314809  47.8953965  68.7081417
  98.9068618  43.4073944  65.8280781  99.7529813  43.8313357  65.9715430
  98.8467255  42.7507568  66.5219344 102.8766362  49.0302528  62.2099513
 102.2475225  49.1948242  61.5075581 102.4892024  49.4444137  62.9810477
 106.7555594  49.9656966  59.5643877 106.0706632  50.3455867  59.0140910
 106.8399443  50.5752292  60.2975825 102.0568063  41.0678312  67.4861955
 101.8128995  41.8220373  66.9496231 102.3327993  41.4463660  68.3209202
 104.0106526  47.6116925  66.1639220 104.2223421  48.2548685  65.4873602
 103.9636274  46.7779241  65.6961151 101.6132755  40.2234745  63.0675793
 100.7517234  40.5215999  63.3592530 101.6395189  40.4405144  62.1356825
  98.4294324  48.7676936  59.4749598  98.8932670  49.0464639  58.6854221
  98.1651122  47.8660380  59.2922689  97.3663210  44.8900088  56.2839163
  98.0687253  45.3421132  56.7513090  97.0343839  44.2483907  56.9119057
  95.8143572  43.4811845  70.6590373  95.1842232  44.1628126  70.8925770
  95.7079660  43.3694926  69.7143511 105.1252354  50.4888880  64.3361578
 105.9469797  50.0869067  64.0544259 105.1214756  50.3857114  65.2877694
  93.0603289  43.5128220  58.5439774  92.2634453  43.6246914  59.0623269
  92.8328882  43.8514872  57.6780664  98.8908957  50.0372923  66.4922288
  98.9553390  50.4993331  67.3280460  98.1819881  49.4070288  66.6204598
 113.2158347  46.8327629  60.6846549 112.4622055  46.2635027  60.5290554
 113.3505888  46.7990293  61.6317184  98.6056975  51.7041031  56.3601269
  98.4702649  52.5492567  56.7886116  99.1466787  51.9060309  55.5967202
  95.0924314  37.7832611  73.0215624  94.6991260  37.2298809  73.6963268
  95.9090455  38.0943189  73.4122141  98.0092275  39.1990490  70.6135880
  98.7501989  39.7997643  70.5340343  98.2410198  38.4568128  70.0553923
  93.1533613  44.3846857  68.8914110  93.0387128  43.4832114  69.1921209
  92.2978131  44.6310554  68.5398927 100.2325451  52.3264597  70.4901611
  99.7889305  51.5400976  70.1722515 100.8942665  52.5143748  69.8245502
  94.9912572  53.8560399  65.0162289  95.5419997  53.7277462  64.2439283
  94.1524048  54.1555288  64.6657182 102.3306689  52.6067397  68.5183012
 102.3125165  53.4276278  68.0263281 103.2526609  52.4821473  68.7433153
  98.7879743  50.1211527  69.3606520  99.3208080  49.3599815  69.1305828
  98.2593824  49.8285179  70.1030675 101.9549438  35.2271593  64.8900162
 101.6113708  36.1173234  64.8139273 102.3228401  35.0373250  64.0269747
 101.9199721  45.2180204  53.3972597 101.4046344  45.9884808  53.6360985
 101.6477029  44.5445340  54.0205659  99.5046832  40.0629905  58.4557836
  98.6488428  39.6736755  58.2763474  99.9173784  40.1421865  57.5957621
 101.0345979  37.5976248  62.8549395 100.5310774  37.5606383  62.0417201
 101.3276586  38.5068991  62.9146052  97.2788865  37.6814978  61.8615577
  98.1441861  37.4857786  61.5021467  97.3466373  37.4525329  62.7884934
 106.8933995  47.9712559  55.3325771 106.1163438  47.6323718  54.8880933
 107.5725476  47.9765182  54.6580736 101.7086024  43.0907296  55.2232378
 101.4036160  43.4053445  56.0742522 102.6616466  43.1688716  55.2659711
 100.1532456  49.2497519  56.8725332  99.6253818  48.5150279  56.5598570
  99.6519959  50.0272196  56.6265301 105.1325302  47.4446540  61.9892379
 104.4748976  48.1345801  62.0772507 105.9365701  47.8342972  62.3326365
  94.8851184  39.9117186  59.2331944  95.4594936  39.6892367  58.5005137
  95.4722166  39.9805880  59.9860545 103.9430761  45.7990912  60.0396320
 104.4562643  46.4320904  60.5418030 104.5931985  45.1992108  59.6739680
  95.2120771  41.9421647  53.2527829  94.3758083  42.2796333  53.5737104
  95.0725540  41.8070626  52.3154966  97.1873851  36.7858434  57.9607013
  96.5338264  36.4707452  57.3363628  97.1454325  36.1634175  58.6866836
  98.2985056  47.0677730  49.8760305  97.3912118  46.8366983  50.0751454
  98.7956088  46.2715349  50.0634287 100.4211592  43.2740368  62.2854661
  99.5034153  43.4955315  62.1276349 100.8371735  43.3486678  61.4266368
 101.2046639  44.6731784  57.4157341 101.9518458  45.1853181  57.1064463
 101.4738229  44.3515836  58.2761735  99.4773290  47.1690324  54.3984296
  98.5684509  46.8849357  54.4956765  99.5068373  47.5889403  53.5387602
 104.7092557  50.7796914  58.1675463 104.2554884  49.9387824  58.2240654
 104.0786524  51.4158312  58.5050243 103.6525477  41.7088900  59.3976131
 102.9148233  41.1966286  59.7286373 103.9052250  41.2689282  58.5859407
 103.1525496  52.6173411  59.1025281 103.4448471  53.1778468  58.3837647
 103.6624117  52.9101972  59.8578440 103.7537104  34.4865152  59.9917900
 104.0595981  33.6262515  59.7043815 104.4789709  35.0782772  59.7916894
  98.0258184  44.7818945  60.4994091  98.0806793  43.8292781  60.4236567
  97.2149386  44.9378384  60.9835389  99.1749377  48.7099068  51.7372374
  98.7368807  47.9934927  51.2778011  99.9159818  48.9375183  51.1757465
  95.9650544  43.3996005  58.2584470  95.1518409  43.6990175  58.6649662
  96.4609538  43.0051694  58.9758952 101.5624755  43.8637829  67.0899364
 101.9174143  44.0909302  67.9493829 102.2096887  44.1956206  66.4676619
 107.2922492  46.9856265  57.7948693 107.1540391  47.1757861  56.8669882
 106.9358711  47.7475648  58.2516744  95.4564618  40.9714360  63.8745705
  96.0963998  40.8303119  63.1768668  94.6242149  40.6848874  63.4984307
 107.3191872  49.0532792  62.8059964 107.7528378  48.9608081  63.6543018
 108.0323453  49.0290293  62.1679980 101.0519767  52.6534886  64.3393065
 101.1056789  53.2225823  65.1070781 100.1834548  52.8236771  63.9747102
  92.5407686  44.4159872  56.0640450  91.6105274  44.3544328  56.2810412
  92.6365158  43.8935825  55.2677091  92.4593235  40.9414685  58.6518691
  92.7200052  41.8560019  58.5427852  93.2810407  40.4739128  58.8015304
  93.9318160  42.3552442  65.8217516  94.6041214  42.1469805  65.1730165
  93.1047947  42.1574528  65.3822748 108.1807421  49.0956493  65.3392850
 108.3743311  50.0002303  65.5852124 108.0808040  48.6363912  66.1731435
  99.8343732  38.9814383  67.8383177  99.1871647  39.6804333  67.7447653
 100.6044748  39.4150527  68.2059425 103.2422530  49.2463236  70.9133730
 103.0908036  49.0173787  69.9963814 103.2327210  50.2033837  70.9265075
 100.0107866  46.8195148  65.8979997 100.9399926  46.9706308  65.7248964
  99.5898896  46.9079169  65.0428643  98.8096198  50.8445813  63.6678534
  98.6707284  50.4764597  64.5404472  98.0210794  51.3593452  63.4962492
  99.4044350  55.9454909  55.0104071  99.5796106  55.4742952  55.8249693
  98.7177138  56.5720675  55.2385331 100.3601413  50.2227415  61.0567372
 100.0251246  50.1828185  61.9525022  99.8605359  49.5572131  60.5837782
  94.3345657  45.6295045  66.5819953  94.1965455  44.8975284  67.1831492
  95.2450581  45.5403946  66.3004141 103.2960605  47.5683450  51.3304432
 102.6789776  46.8430278  51.2337484 102.8277094  48.3292810  50.9871506
  96.9627958  45.3415005  66.0703633  97.6727577  44.7008197  66.0290251
  96.9197266  45.5927900  66.9929814 104.9514737  52.2782358  68.9910212
 104.8927283  51.5941578  68.3240795 105.3534255  53.0201348  68.5390838
  95.6756892  42.3280223  67.8899272  95.1394249  41.8770961  68.5420869
  95.0873600  42.4626131  67.1469737  95.0859151  41.7868874  50.4525736
  94.2088617  41.6657675  50.0887983  95.5616904  40.9954952  50.2004625
 104.9532144  50.2421942  67.2224192 104.0658923  49.9047864  67.3450591
 105.5230695  49.5104973  67.4592957  98.4833297  54.9023394  64.1885435
  98.4103469  55.7078366  64.7004739  98.0410690  55.1015360  63.3633456
 101.5819727  39.9489794  60.3422462 102.0788427  39.1959756  60.0223532
 100.8106709  39.9854110  59.7765671 109.4349485  45.6530159  61.9840753
 109.4239361  46.5354875  61.6134686 108.5666864  45.3001710  61.7895290
 100.9431981  54.8010228  66.3443594 101.6559953  55.4357693  66.2719495
 100.4522010  54.8974094  65.5283595 102.6649508  48.7061481  57.9160885
 101.7305787  48.8262944  57.7465590 102.8426176  47.8033948  57.6520895
  98.1654696  42.0907177  60.0694146  97.7952483  41.5378217  60.7575052
  98.6613788  41.4865310  59.5169146 106.0522059  44.5478800  58.4510919
 106.5182511  45.3806792  58.3771222 106.5029560  44.0823782  59.1556178
  95.9943894  52.5504672  67.1649164  96.6953354  53.1841155  67.3178559
  95.5239009  52.8919403  66.4044804 104.1198290  50.8922622  55.4497071
 104.3958134  50.7779216  56.3590946 103.2502789  50.4940106  55.4109245
 104.0238722  36.9159387  62.4901821 103.1101802  37.1463614  62.6584028
 104.4531823  36.9997831  63.3415853 103.7945180  45.1049279  64.9901715
 103.1416631  45.3525187  64.3354168 104.1725560  44.2913417  64.6564192
 100.7552354  55.1408972  59.0929885 100.9374749  54.3230628  59.5557637
 101.5785340  55.3576665  58.6554775 101.0894520  54.0677158  56.3544934
 101.6182286  53.5569612  55.7415096 101.3522739  53.7519688  57.2190467
  99.8432753  45.8469090  71.4767752  99.1673390  45.7463220  72.1470127
 100.6660387  45.6908304  71.9403749  98.5855536  57.1536018  65.7125368
  99.1373844  57.3167639  66.4774453  98.9261730  57.7440456  65.0405393
  93.5620030  39.5011168  66.3147253  93.6261356  40.3625999  65.9024650
  93.4987150  38.8885169  65.5819611  93.0372302  41.5734300  69.9620287
  93.6644341  41.1911377  70.5757811  92.1800221  41.3548502  70.3275979
 103.4366411  51.9797275  71.5674022 103.9806315  52.5927234  71.0728977
 102.8553255  52.5376854  72.0841035 101.7223924  55.1017993  62.6989050
 101.5975063  54.3007733  62.1899995 102.3803015  55.5964187  62.2103020
  93.3432092  41.4566726  61.8766190  92.6218678  42.0702694  61.7373664
  94.1325348  41.9924491  61.7982836 103.7858832  52.9027013  64.3268600
 102.8389167  52.7832365  64.2546927 104.1341605  52.0149511  64.4094862
  96.1458405  38.7921152  68.1506842  96.6692807  39.0383449  68.9133151
  95.9270739  39.6241187  67.7309979 100.7905265  52.6979730  60.5272952
 100.6430228  51.7696437  60.7080522 101.6158759  52.7199820  60.0430028
  94.6567510  41.3497797  56.3853444  94.9963582  41.8783718  55.6632053
  95.1039630  41.6878203  57.1612011 104.3939387  53.5208288  61.6137825
 105.3185935  53.3151150  61.4762276 104.2254690  53.2724690  62.5227167
  97.3510950  39.7334847  65.8356513  97.0107771  38.9342661  66.2377192
  96.6449957  40.0336558  65.2633346  98.0027422  36.8184160  64.2883836
  98.8253492  36.3444638  64.1662726  98.2465486  37.5974644  64.7882522
  96.6435657  39.8472418  54.5846737  97.3644019  40.2253671  54.0810454
  96.0200961  40.5661295  54.6881715 100.7866780  40.5517567  55.5205070
 101.0030394  41.4342205  55.2193898 100.3060847  40.1603781  54.7910712
  95.5266001  43.5103281  62.0975814  95.3810582  43.8243584  62.9900096
  95.0491205  44.1288181  61.5446713  97.3862384  40.5005828  62.1456704
  97.3723953  39.6046922  61.8089002  98.1034812  40.5076492  62.7794990
  99.2388515  40.9343169  64.1909831  98.9806292  41.8560239  64.1894162
  98.7073555  40.5373603  64.8810295 104.1834703  54.0393956  56.9699917
 104.3571581  53.4740378  56.2173769 104.6763595  54.8394851  56.7879406
  96.7899280  39.3820209  57.4144274  96.9115191  38.4536855  57.6135161
  96.5001322  39.3958895  56.5022589  99.6590470  37.0675119  60.5510994
  99.6812167  37.1314452  59.5962973 100.0758529  36.2279628  60.7451500
 110.0374094  46.8030379  58.5890216 110.4805241  46.0537704  58.1909340
 109.1600605  46.7940515  58.2063948 105.1709876  53.3560720  54.0696815
 105.8660780  53.9767413  54.2884129 105.5133026  52.5056071  54.3449193
  90.7877685  45.1778521  67.9293632  90.0459421  45.3261157  68.5158263
  90.4670429  45.4386787  67.0660382 107.0701299  50.8060426  55.5984146
 107.5952623  51.1447699  54.8733466 106.9823651  49.8707441  55.4147280
  98.7321348  54.7194499  67.7274022  99.0408474  54.4743646  68.5996722
  99.5296830  54.9241138  67.2392892  98.7541960  56.8732409  59.9579399
  98.3146950  56.3808788  60.6512255  99.5050077  56.3305377  59.7171474
  96.2740359  40.8952206  71.6234206  96.3228515  41.7714329  71.2411976
  96.8162874  40.3529599  71.0505850 106.7595205  51.4393329  70.9035344
 105.9690749  51.4217468  70.3639843 106.5228560  51.9781623  71.6584380
 106.8793080  48.2885796  68.2168072 106.9291085  48.1235803  69.1583595
 106.7707003  47.4213055  67.8265953 104.1696842  44.2716724  69.5327379
 105.0706705  44.1323189  69.2411377 104.2444817  44.4371179  70.4725556
  98.5039648  41.6483579  68.3780565  97.6342957  41.9417145  68.1063154
  98.7399128  42.2324024  69.0987829 108.3811277  50.7082737  68.4610094
 108.0896085  51.0712718  69.2973555 107.7683408  49.9949746  68.2823426
 109.5806959  48.2735617  60.9812664 110.4153851  48.7125421  61.1450224
 109.7166088  47.7974270  60.1620910 106.6298465  45.8315352  66.9290152
 107.1052587  46.0242998  66.1209003 105.7064030  45.8874538  66.6833535
 101.2078682  37.8663195  65.8945986 101.7260625  38.6024222  65.5692474
 100.8533814  38.1727189  66.7292745 101.4591276  34.2863478  61.4146882
 101.7393030  33.6186667  62.0407309 102.2441883  34.4792574  60.9021546
 105.3300134  42.7081112  65.1618457 106.2817557  42.8079210  65.1830681
 105.1603585  41.9159381  65.6716542 103.3514514  39.7936695  65.3477858
 102.7564446  40.0741708  64.6524347 103.0664210  40.2830596  66.1194599
 102.4822004  53.7459622  54.1080491 103.4152677  53.6805184  54.3113366
 102.3945217  54.5815889  53.6495023 105.1110021  53.0625492  51.0684438
 105.0323652  52.7285356  51.9620196 105.9319687  53.5547260  51.0675911
 107.8088212  45.9287232  64.2760757 107.7764532  44.9903232  64.4620441
 108.4188836  46.0071268  63.5426582  99.6471543  44.7983285  50.3187961
 100.5930647  44.6689493  50.3876379  99.2685788  44.0597947  50.7957389
 107.9582700  42.7198275  64.3219040 107.4421749  41.9356732  64.1348969
 108.8422649  42.3916992  64.4865560 105.6193427  36.4639291  60.2814853
 105.4218248  36.1554379  61.1658185 106.2293133  37.1900930  60.4112783
 113.6264762  46.9903239  63.4166794 114.3568150  46.7288527  63.9774497
 113.0171707  46.2531960  63.4568862 111.7080059  45.1311101  64.0141245
 110.9813222  44.9967066  63.4057736 111.2927346  45.4387930  64.8197963
  99.5310235  48.8501031  71.7788618 100.4513245  49.0279630  71.9728664
  99.4959818  47.9057076  71.6268317  97.8314460  42.7233261  50.2542846
  96.9245915  42.4266374  50.3305560  98.1090441  42.4263079  49.3877132
  92.5272308  46.7602065  64.4211399  92.7458318  47.6919173  64.4399433
  92.9398082  46.4010040  65.2066203  99.4476526  37.2670151  56.4087087
  98.6377254  36.9217236  56.7842333 100.1360943  36.9577694  56.9974699
 101.3767074  36.3448198  58.0311384 101.9298113  36.7643651  58.6901407
 101.6137160  35.4183946  58.0734340  97.4000173  42.3335271  73.8114148
  97.2996900  43.2829628  73.7426239  97.1821715  42.0053510  72.9390218
 104.7545881  38.4548723  57.5390048 104.1744550  39.1133527  57.1568101
 104.4881814  37.6326067  57.1277466 103.2049447  37.8553780  59.7411369
 103.7049226  37.9670315  58.9325687 103.8485055  37.5514833  60.3812177
  97.2631443  45.7632410  72.6279210  96.7798525  46.5632770  72.8343099
  97.3492382  45.7740355  71.6746654  93.7804163  48.2238061  67.2318441
  94.5997052  48.7182139  67.2553278  94.0540971  47.3070029  67.2036009
 103.5370759  40.6148813  56.5946397 102.6496614  40.8998464  56.3766591
 103.9524748  40.4542576  55.7473673 106.8885295  40.6395334  60.3100736
 107.6645685  41.1291787  60.5825353 106.1633429  41.0653388  60.7672605
 109.3257854  41.3522953  61.3674676 109.9202345  41.1118689  60.6567985
 109.3984437  40.6330084  61.9948213 102.6813972  50.3793488  50.6894417
 103.3849823  50.5843490  51.3052072 101.9576621  50.9470250  50.9543500
 103.5111783  46.1303349  56.8096687 103.4546984  46.5871900  55.9704319
 104.0640125  45.3694034  56.6319529 107.3216589  41.9193081  57.6346806
 107.0653523  41.5189717  58.4655014 106.6969457  42.6336875  57.5096945
 111.6328927  44.6589154  60.1418098 111.0728485  44.7282343  60.9149660
 111.0272430  44.4830139  59.4217594 104.5900670  50.8176017  52.7392877
 105.4246274  50.3857215  52.5570351 104.4285013  50.6458031  53.6669771
 104.2446562  47.3208130  54.1049216 104.1895366  47.1552402  53.1637660
 103.6192617  48.0284163  54.2611406  89.0339077  42.5576195  67.9310638
  89.6797941  42.0475149  68.4197863  88.8256228  43.2944876  68.5054063
 101.5592469  49.6257042  73.4302779 102.4283629  49.7997694  73.0689414
 101.0799221  50.4451459  73.3078508  95.7278649  56.7454143  65.1092212
  96.6305896  56.7777753  65.4258707  95.5016020  55.8154594  65.1238548
 101.3694807  33.4159016  57.9380471 100.6027203  32.8617503  58.0837153
 101.7805512  33.4880885  58.7994623  93.3736568  39.7043812  72.0285652
  94.2368030  39.3480617  72.2388977  92.8001979  39.3657707  72.7161057
 113.2184945  61.3345668  62.8348053 113.8563355  61.2152415  62.1311393
 113.1005788  62.2826512  62.8936006 110.0274651  61.2873096  62.7709578
 109.6893163  61.1714161  61.8830113 110.8964419  60.8864261  62.7510584
 105.8861467  63.1408573  58.7606469 105.3226332  63.0498510  57.9922757
 105.7713862  62.3208477  59.2408962 110.5094434  62.4407948  68.7295784
 110.4983075  62.0460746  67.8576287 110.6715074  61.7074021  69.3229555
 103.4325899  64.6359764  61.5990689 104.2247191  64.2950589  61.1836989
 103.6722549  64.7454739  62.5192843 111.4661026  66.8079540  54.0720934
 110.8149005  67.3933621  53.6854948 112.2605388  67.3385735  54.1315971
 105.3916653  63.8968677  54.4708068 106.1647529  63.3497665  54.3320944
 105.7442052  64.7612927  54.6822530 107.2301695  65.2245060  67.6774968
 106.9391561  66.1290691  67.5621634 107.8658680  65.2661587  68.3919037
 108.1557902  62.6021908  64.2676327 108.7521475  62.3777931  63.5533290
 108.2132874  61.8606654  64.8701775 107.7282931  60.0561344  52.1026518
 107.9808451  59.5342865  51.3409981 106.7907490  59.8927489  52.2053202
 112.7726213  59.0597122  59.9101261 113.5589303  58.6416545  59.5591678
 113.0364918  59.9643214  60.0782910 112.9436291  64.4969972  54.6089918
 112.3082124  64.5704599  55.3210823 112.6133697  65.0863571  53.9308997
 118.1734641  58.9972355  60.8134240 118.9059813  58.4271572  61.0472069
 117.4173996  58.6093956  61.2540745 107.4479219  61.9589450  54.3050893
 107.3315477  61.2834353  54.9731977 107.5581479  61.4721823  53.4883046
 109.7910760  61.4199597  58.0097582 109.4268968  60.8930218  58.7210504
 110.6477876  61.0298066  57.8364068 115.6960061  52.7093929  65.2728849
 115.3643386  53.5789340  65.0490063 115.1005674  52.3930213  65.9522879
 109.4316247  56.4489496  53.0058931 109.5990650  57.3169733  53.3729402
 109.2413416  56.6116778  52.0820220 112.1891580  64.9106475  64.6724761
 111.8892304  65.8131514  64.5640568 111.8442640  64.6438658  65.5245914
 105.6404062  61.3620272  60.7061466 104.7154558  61.2296486  60.9139157
 105.8888475  62.1414491  61.2031408 115.5888724  57.4289015  62.3522199
 114.6805602  57.3604424  62.0580960 115.5376320  57.9060960  63.1804024
 109.4105468  58.9047154  53.9905598 109.2905093  59.3504205  54.8291078
 108.7158057  59.2532472  53.4319136 103.0012873  61.0053546  61.5405255
 103.1305254  61.2588025  62.4544666 102.3210324  61.5981254  61.2209910
 107.1712360  71.6750796  57.6395729 107.0936390  72.6258621  57.7184209
 106.5674004  71.3296668  58.2970655 109.6629590  58.8478661  70.2957096
 108.8862924  59.4072581  70.2859960 110.3020153  59.3335444  70.8171966
 117.4550371  55.6305454  64.1300072 116.8124751  55.9237987  63.4839867
 116.9505299  55.5158374  64.9353269 115.1090534  59.3768627  54.8185932
 116.0208390  59.6096014  54.6433629 114.6000181  59.9605671  54.2561010
 107.9175962  61.6564114  69.8575063 108.6590647  62.1949158  69.5809886
 107.2112948  62.2830403  70.0146615 113.3931302  63.7993255  68.4547224
 113.8014658  63.3575665  67.7101857 112.6708564  63.2245882  68.7081417
 109.7462372  58.7365862  65.8280781 110.5923567  59.1605275  65.9715430
 109.6861010  58.0799486  66.5219344 113.7160117  64.3594445  62.2099513
 113.0868979  64.5240160  61.5075581 113.3285779  64.7736055  62.9810477
 117.5949349  65.2948883  59.5643877 116.9100387  65.6747785  59.0140910
 117.6793198  65.9044210  60.2975825 112.8961817  56.3970230  67.4861955
 112.6522749  57.1512290  66.9496231 113.1721748  56.7755578  68.3209202
 114.8500280  62.9408842  66.1639220 115.0617175  63.5840602  65.4873602
 114.8030028  62.1071159  65.6961151 112.4526509  55.5526663  63.0675793
 111.5910988  55.8507917  63.3592530 112.4788944  55.7697062  62.1356825
 109.2688079  64.0968854  59.4749598 109.7326424  64.3756557  58.6854221
 109.0044877  63.1952298  59.2922689 106.1612160  63.6440335  62.4129362
 106.7313517  64.0727603  61.7746846 106.7520271  63.3622920  63.1113547
 108.2056965  60.2192006  56.2839163 108.9081008  60.6713050  56.7513090
 107.8737593  59.5775825  56.9119057 106.6537326  58.8103763  70.6590373
 106.0235987  59.4920043  70.8925770 106.5473414  58.6986844  69.7143511
 101.9482299  58.4775559  61.5856297 101.1581353  58.7333087  61.1096408
 102.4393546  59.2923896  61.6908338 115.9646108  65.8180798  64.3361578
 116.7863552  65.4160985  64.0544259 115.9608511  65.7149032  65.2877694
 103.8997044  58.8420138  58.5439774 103.1028207  58.9538832  59.0623269
 103.6722636  59.1806790  57.6780664 109.7302712  65.3664841  66.4922288
 109.7947144  65.8285248  67.3280460 109.0213635  64.7362206  66.6204598
 100.2320002  58.7306049  64.0171288 100.4828040  59.6153059  64.2828864
 100.7679550  58.5510651  63.2446380 109.4450729  67.0332949  56.3601269
 109.3096404  67.8784484  56.7886116 109.9860542  67.2352226  55.5967202
 105.9318069  53.1124528  73.0215624 105.5385014  52.5590727  73.6963268
 106.7484209  53.4235107  73.4122141 102.8980127  64.5508387  56.9329194
 103.4104647  65.3451637  57.0834758 103.5502839  63.8534677  56.8662795
 104.7075011  67.6674143  59.0151947 104.8841640  68.5892108  58.8272931
 105.5031845  67.3532562  59.4446327 108.8486030  54.5282407  70.6135880
 109.5895743  55.1289561  70.5340343 109.0803953  53.7860045  70.0553923
 103.9927368  59.7138775  68.8914110 103.8780883  58.8124032  69.1921209
 103.1371886  59.9602472  68.5398927 111.0719206  67.6556515  70.4901611
 110.6283060  66.8692894  70.1722515 111.7336419  67.8435666  69.8245502
 105.8306327  69.1852317  65.0162289 106.3813752  69.0569380  64.2439283
 104.9917803  69.4847206  64.6657182 113.1700444  67.9359315  68.5183012
 113.1518919  68.7568196  68.0263281 114.0920364  67.8113390  68.7433153
 109.6273498  65.4503444  69.3606520 110.1601835  64.6891733  69.1305828
 109.0987579  65.1577096  70.1030675 112.7943193  50.5563510  64.8900162
 112.4507462  51.4465152  64.8139273 113.1622155  50.3665168  64.0269747
 100.8629043  62.8797041  57.7088764 101.7004265  63.2894049  57.4922472
 101.0407311  61.9396483  57.6788958 112.7593475  60.5472122  53.3972597
 112.2440099  61.3176726  53.6360985 112.4870784  59.8737258  54.0205659
 110.3440587  55.3921822  58.4557836 109.4882183  55.0028673  58.2763474
 110.7567538  55.4713783  57.5957621 111.8739733  52.9268166  62.8549395
 111.3704529  52.8898301  62.0417201 112.1670340  53.8360908  62.9146052
 108.1182619  53.0106895  61.8615577 108.9835616  52.8149704  61.5021467
 108.1860128  52.7817247  62.7884934 117.7327750  63.3004476  55.3325771
 116.9557192  62.9615636  54.8880933 118.4119231  63.3057099  54.6580736
 112.5479779  58.4199214  55.2232378 112.2429914  58.7345363  56.0742522
 113.5010221  58.4980634  55.2659711 110.9926211  64.5789437  56.8725332
 110.4647572  63.8442197  56.5598570 110.4913713  65.3564113  56.6265301
 115.9719057  62.7738457  61.9892379 115.3142731  63.4637719  62.0772507
 116.7759456  63.1634889  62.3326365 105.7244938  55.2409103  59.2331944
 106.2988690  55.0184285  58.5005137 106.3115921  55.3097798  59.9860545
 114.7824515  61.1282830  60.0396320 115.2956397  61.7612822  60.5418030
 115.4325739  60.5284026  59.6739680 106.0514525  57.2713564  53.2527829
 105.2151837  57.6088251  53.5737104 105.9119295  57.1362544  52.3154966
 108.0267606  52.1150352  57.9607013 107.3732018  51.7999369  57.3363628
 107.9848080  51.4926093  58.6866836 109.1378811  62.3969647  49.8760305
 108.2305872  62.1658901  50.0751454 109.6349843  61.6007266  50.0634287
 112.0446890  71.1067154  52.7956992 111.3708588  71.4098851  53.4041949
 112.4312712  71.9096235  52.4462449 111.2605346  58.6032286  62.2854661
 110.3427908  58.8247233  62.1276349 111.6765490  58.6778596  61.4266368
 112.0440394  60.0023701  57.4157341 112.7912213  60.5145099  57.1064463
 112.3131983  59.6807754  58.2761735 110.3167044  62.4982242  54.3984296
 109.4078263  62.2141275  54.4956765 110.3462128  62.9181321  53.5387602
 115.5486312  66.1088832  58.1675463 115.0948639  65.2679741  58.2240654
 114.9180278  66.7450230  58.5050243 114.4919231  57.0380818  59.3976131
 113.7541988  56.5258204  59.7286373 114.7446005  56.5981199  58.5859407
 113.9919251  67.9465328  59.1025281 114.2842225  68.5070385  58.3837647
 114.5017871  68.2393889  59.8578440 114.5930858  49.8157070  59.9917900
 114.8989735  48.9554433  59.7043815 115.3183463  50.4074690  59.7916894
 100.8855215  60.2187756  58.3799498 100.6879614  59.6257117  57.6550564
 100.3301878  59.9139966  59.0975437 108.8651938  60.1110863  60.4994091
 108.9200548  59.1584699  60.4236567 108.0543140  60.2670302  60.9835389
 110.0143132  64.0390986  51.7372374 109.5762562  63.3226845  51.2778011
 110.7553573  64.2667101  51.1757465 106.8044298  58.7287922  58.2584470
 105.9912164  59.0282093  58.6649662 107.3003292  58.3343611  58.9758952
 108.9552876  68.7245679  60.1918734 108.9129055  68.9506526  59.2627266
 109.8715575  68.4909054  60.3404536 112.4018510  59.1929747  67.0899364
 112.7567897  59.4201220  67.9493829 113.0490641  59.5248124  66.4676619
 118.1316247  62.3148183  57.7948693 117.9934145  62.5049779  56.8669882
 117.7752466  63.0767566  58.2516744 106.2958373  56.3006278  63.8745705
 106.9357752  56.1595037  63.1768668 105.4635903  56.0140791  63.4984307
 118.1585626  64.3824710  62.8059964 118.5922133  64.2899999  63.6543018
 118.8717207  64.3582210  62.1679980 107.0718677  65.6008708  59.9880697
 107.8659275  65.1059029  59.7863272 106.3610369  65.0726571  59.6248403
 111.8913521  67.9826804  64.3393065 111.9450544  68.5517740  65.1070781
 111.0228303  68.1528689  63.9747102 103.3801440  59.7451790  56.0640450
 102.4499028  59.6836246  56.2810412 103.4758912  59.2227743  55.2677091
 103.2986989  56.2706603  58.6518691 103.5593807  57.1851936  58.5427852
 104.1204162  55.8031045  58.8015304 104.7711915  57.6844360  65.8217516
 105.4434968  57.4761722  65.1730165 103.9441701  57.4866446  65.3822748
 119.0201176  64.4248410  65.3392850 119.2137066  65.3294221  65.5852124
 118.9201794  63.9655830  66.1731435 110.6737487  54.3106301  67.8383177
 110.0265402  55.0096251  67.7447653 111.4438502  54.7442445  68.2059425
 114.0816285  64.5755153  70.9133730 113.9301791  64.3465705  69.9963814
 114.0720964  65.5325755  70.9265075 110.8501621  62.1487066  65.8979997
 111.7793681  62.2998226  65.7248964 110.4292651  62.2371087  65.0428643
 109.6489953  66.1737730  63.6678534 109.5101038  65.8056515  64.5404472
 108.8604549  66.6885370  63.4962492 110.2438105  71.2746827  55.0104071
 110.4189860  70.8034870  55.8249693 109.5570893  71.9012593  55.2385331
 111.1995168  65.5519333  61.0567372 110.8645000  65.5120103  61.9525022
 110.6999114  64.8864049  60.5837782 105.1739412  60.9586963  66.5819953
 105.0359210  60.2267202  67.1831492 106.0844335  60.8695863  66.3004141
 114.1354360  62.8975367  51.3304432 113.5183530  62.1722196  51.2337484
 113.6670848  63.6584728  50.9871506 107.8021713  60.6706922  66.0703633
 108.5121331  60.0300115  66.0290251 107.7591021  60.9219817  66.9929814
 115.7908491  67.6074276  68.9910212 115.7321037  66.9233496  68.3240795
 116.1928010  68.3493266  68.5390838 106.5150646  57.6572140  67.8899272
 105.9788004  57.2062879  68.5420869 105.9267355  57.7918049  67.1469737
 104.8099190  74.4236190  61.7843931 105.0495788  75.0554714  62.4622950
 103.9668386  74.0724230  62.0709290 105.9252905  57.1160792  50.4525736
 105.0482372  56.9949592  50.0887983 106.4010659  56.3246870  50.2004625
 115.7925898  65.5713860  67.2224192 114.9052677  65.2339781  67.3450591
 116.3624450  64.8396891  67.4592957  97.4455046  61.9037951  60.5467243
  98.1326085  61.5899681  59.9588258  97.2903174  62.8079316  60.2734495
 102.2489768  56.7928148  64.9752267 102.1647956  56.1853818  64.2402677
 101.4272474  57.2837166  64.9761763 109.3227052  70.2315312  64.1885435
 109.2497223  71.0370284  64.7004739 108.8804445  70.4307278  63.3633456
 109.1116831  69.4687082  57.6988256 108.3284353  70.0108762  57.7926481
 109.8109577  69.9861062  58.0982498 112.4213482  55.2781712  60.3422462
 112.9182181  54.5251674  60.0223532 111.6500463  55.3146028  59.7765671
 120.2743239  60.9822077  61.9840753 120.2633115  61.8646792  61.6134686
 119.4060618  60.6293628  61.7895290 111.7825735  70.1302146  66.3443594
 112.4953708  70.7649611  66.2719495 111.2915764  70.2266012  65.5283595
 113.5043262  64.0353399  57.9160885 112.5699541  64.1554861  57.7465590
 113.6819931  63.1325866  57.6520895 109.0048450  57.4199095  60.0694146
 108.6346238  56.8670135  60.7575052 109.5007543  56.8157228  59.5169146
 116.8915814  59.8770718  58.4510919 117.3576266  60.7098710  58.3771222
 117.3423314  59.4115700  59.1556178 106.8337649  67.8796590  67.1649164
 107.5347108  68.5133072  67.3178559 106.3632764  68.2211321  66.4044804
 114.9592045  66.2214539  55.4497071 115.2351889  66.1071134  56.3590946
 114.0896543  65.8232024  55.4109245 114.8632476  52.2451305  62.4901821
 113.9495556  52.4755532  62.6584028 115.2925578  52.3289749  63.3415853
 114.6338935  60.4341197  64.9901715 113.9810385  60.6817104  64.3354168
 115.0119315  59.6205335  64.6564192 111.5946109  70.4700890  59.0929885
 111.7768503  69.6522546  59.5557637 112.4179095  70.6868582  58.6554775
 111.9288274  69.3969075  56.3544934 112.4576041  68.8861530  55.7415096
 112.1916494  69.0811605  57.2190467 110.6826508  61.1761008  71.4767752
 110.0067145  61.0755137  72.1470127 111.5054142  61.0200222  71.9403749
 102.4305367  67.4132945  64.0980267 103.0158804  66.6676632  64.2308171
 102.2330205  67.7236901  64.9816931 105.2844022  70.4484192  59.1142709
 104.6154397  70.9330320  58.6306750 105.1456892  70.6953412  60.0286088
  97.0223022  59.9838545  62.8184710  97.0607121  59.4502135  63.6121828
  96.5163315  59.4573750  62.1995687 109.4249291  72.4827935  65.7125368
 109.9767599  72.6459557  66.4774453 109.7655484  73.0732373  65.0405393
 104.4013784  54.8303085  66.3147253 104.4655111  55.6917916  65.9024650
 104.3380904  54.2177087  65.5819611 103.8766057  56.9026218  69.9620287
 104.5038095  56.5203295  70.5757811 103.0193975  56.6840420  70.3275979
 114.2760165  67.3089193  71.5674022 114.8200069  67.9219151  71.0728977
 113.6947010  67.8668771  72.0841035 100.6531599  58.7102647  55.8938642
 100.9485040  57.8013325  55.8405695  99.7519635  58.6890386  55.5719644
 112.5617678  70.4309911  62.6989050 112.4368818  69.6299651  62.1899995
 113.2196769  70.9256104  62.2103020 104.1825846  56.7858644  61.8766190
 103.4612432  57.3994611  61.7373664 104.9719102  57.3216408  61.7982836
 114.6252586  68.2318931  64.3268600 113.6782922  68.1124282  64.2546927
 114.9735360  67.3441429  64.4094862 106.9852160  54.1213070  68.1506842
 107.5086562  54.3675367  68.9133151 106.7664493  54.9533105  67.7309979
 102.3819441  56.3916745  56.0177967 102.0532147  55.5114124  55.8353073
 102.7358812  56.3364413  56.9054356 111.6299020  68.0271647  60.5272952
 111.4823982  67.0988355  60.7080522 112.4552513  68.0491738  60.0430028
 105.4961264  56.6789714  56.3853444 105.8357337  57.2075636  55.6632053
 105.9433385  57.0170121  57.1612011 115.2333142  68.8500206  61.6137825
 116.1579689  68.6443067  61.4762276 115.0648445  68.6016607  62.5227167
 108.1904705  55.0626765  65.8356513 107.8501525  54.2634578  66.2377192
 107.4843711  55.3628476  65.2633346 108.8421177  52.1476078  64.2883836
 109.6647246  51.6736556  64.1662726 109.0859240  52.9266561  64.7882522
 107.4829411  55.1764336  54.5846737 108.2037774  55.5545589  54.0810454
 106.8594715  55.8953213  54.6881715 111.6260534  55.8809485  55.5205070
 111.8424148  56.7634123  55.2193898 111.1454601  55.4895698  54.7910712
 106.3659755  58.8395198  62.0975814 106.2204336  59.1535501  62.9900096
 105.8884959  59.4580099  61.5446713 108.2256138  55.8297746  62.1456704
 108.2117707  54.9338839  61.8089002 108.9428566  55.8368410  62.7794990
 110.0782269  56.2635086  64.1909831 109.8200047  57.1852157  64.1894162
 109.5467309  55.8665521  64.8810295 115.0228458  69.3685873  56.9699917
 115.1965335  68.8032296  56.2173769 115.5157349  70.1686768  56.7879406
 100.8405418  61.3800543  65.0363475 100.2958886  62.1560351  65.1683750
 101.7184767  61.7271347  64.8782597 107.6293034  54.7112126  57.4144274
 107.7508945  53.7828773  57.6135161 107.3395077  54.7250812  56.5022589
 110.4984225  52.3967037  60.5510994 110.5205921  52.4606370  59.5962973
 110.9152284  51.5571546  60.7451500 120.8767849  62.1322296  58.5890216
 121.3198995  61.3829622  58.1909340 119.9994359  62.1232433  58.2063948
 116.0103630  68.6852638  54.0696815 116.7054535  69.3059331  54.2884129
 116.3526780  67.8347989  54.3449193 101.6271439  60.5070439  67.9293632
 100.8853176  60.6553074  68.5158263 101.3064184  60.7678704  67.0660382
 117.9095053  66.1352343  55.5984146 118.4346377  66.4739616  54.8733466
 117.8217406  65.1999359  55.4147280 109.5715102  70.0486417  67.7274022
 109.8802229  69.8035564  68.5996722 110.3690584  70.2533056  67.2392892
 109.5935714  72.2024327  59.9579399 109.1540704  71.7100705  60.6512255
 110.3443831  71.6597294  59.7171474 102.0728053  68.3935868  59.9604027
 102.8986073  68.0939639  59.5802670 101.7222105  67.6243490  60.4093815
 107.0409586  67.7462336  62.0301700 106.4189596  67.0833041  61.7303928
 107.7114453  67.7723468  61.3475348 100.2736658  66.3122194  60.9192960
  99.4368566  65.8844368  60.7376962 100.2460304  66.5054637  61.8563752
 107.1134114  56.2244124  71.6234206 107.1622269  57.1006247  71.2411976
 107.6556628  55.6821517  71.0505850 117.5988959  66.7685247  70.9035344
 116.8084503  66.7509386  70.3639843 117.3622314  67.3073541  71.6584380
 117.7186835  63.6177713  68.2168072 117.7684839  63.4527721  69.1583595
 117.6100758  62.7504972  67.8265953 106.6023093  66.2966259  55.5060161
 106.7511214  66.9801724  54.8526834 107.4089537  66.2771349  56.0209617
 115.0090597  59.6008641  69.5327379 115.9100460  59.4615106  69.2411377
 115.0838571  59.7663096  70.4725556 109.3433402  56.9775496  68.3780565
 108.4736712  57.2709062  68.1063154 109.5792883  57.5615941  69.0987829
 119.2205031  66.0374655  68.4610094 118.9289840  66.4004636  69.2973555
 118.6077163  65.3241663  68.2823426 120.4200714  63.6027535  60.9812664
 121.2547605  64.0417339  61.1450224 120.5559842  63.1266188  60.1620910
 117.4692220  61.1607270  66.9290152 117.9446341  61.3534916  66.1209003
 116.5457785  61.2166455  66.6833535 104.3575726  62.3231437  56.5121230
 104.1121768  61.4193767  56.7101440 104.5271641  62.3248587  55.5700708
 112.0472436  53.1955113  65.8945986 112.5654380  53.9316140  65.5692474
 111.6927569  53.5019106  66.7292745 103.6271374  58.0559794  54.0107391
 102.9340619  58.1304149  53.3547427 103.3823126  57.2920138  54.5328908
 112.2985030  49.6155396  61.4146882 112.5786784  48.9478585  62.0407309
 113.0835637  49.8084491  60.9021546 110.1018499  68.7914390  52.9771908
 109.5292466  69.4104577  52.5242380 110.6751292  69.3413751  53.5111830
 116.1693889  58.0373030  65.1618457 117.1211311  58.1371127  65.1830681
 115.9997339  57.2451298  65.6716542 114.1908268  55.1228613  65.3477858
 113.5958200  55.4033626  64.6524347 113.9057965  55.6122514  66.1194599
 113.3215759  69.0751540  54.1080491 114.2546432  69.0097101  54.3113366
 113.2338971  69.9107807  53.6495023 115.9503775  68.3917410  51.0684438
 115.8717407  68.0577274  51.9620196 116.7713442  68.8839178  51.0675911
 118.6481966  61.2579149  64.2760757 118.6158286  60.3195150  64.4620441
 119.2582590  61.3363186  63.5426582 110.4865297  60.1275202  50.3187961
 111.4324402  59.9981410  50.3876379 110.1079542  59.3889864  50.7957389
 118.7976455  58.0490193  64.3219040 118.2815504  57.2648649  64.1348969
 119.6816403  57.7208909  64.4865560 116.4587182  51.7931208  60.2814853
 116.2612003  51.4846297  61.1658185 117.0686887  52.5192847  60.4112783
 110.3703990  64.1792948  71.7788618 111.2906999  64.3571547  71.9728664
 110.3353573  63.2348994  71.6268317 108.6708214  58.0525179  50.2542846
 107.7639670  57.7558291  50.3305560 108.9484195  57.7554997  49.3877132
  99.5886155  59.3731542  60.7041893  99.2688939  58.5196850  60.4116267
  99.0419583  59.5880120  61.4599860 103.3666062  62.0893983  64.4211399
 103.5852072  63.0211091  64.4399433 103.7791836  61.7301958  65.2066203
 110.2870280  52.5962068  56.4087087 109.4771008  52.2509153  56.7842333
 110.9754697  52.2869612  56.9974699 112.2160828  51.6740115  58.0311384
 112.7691867  52.0935569  58.6901407 112.4530915  50.7475863  58.0734340
 108.2393928  57.6627189  73.8114148 108.1390655  58.6121546  73.7426239
 108.0215470  57.3345428  72.9390218 107.4406999  54.9112114  50.3954825
 108.3026163  55.2367012  50.6550643 107.6257343  54.1243610  49.8827891
  99.4574415  62.9934454  62.6735014  98.7637886  62.5788406  62.1604969
 100.2047406  63.0354990  62.0768433 115.5939635  53.7840640  57.5390048
 115.0138305  54.4425444  57.1568101 115.3275568  52.9617985  57.1277466
 114.0443202  53.1845698  59.7411369 114.5442980  53.2962233  58.9325687
 114.6878810  52.8806751  60.3812177 108.1025198  61.0924328  72.6279210
 107.6192279  61.8924688  72.8343099 108.1886137  61.1032273  71.6746654
 101.3711157  62.9252707  60.5501029 101.3481845  63.0240395  59.5982912
 101.6811794  63.7717858  60.8718195 104.0298535  64.9828862  64.6647643
 104.9841789  64.9512805  64.5977575 103.8311059  64.5219486  65.4797869
 104.6197917  63.5529978  67.2318441 105.4390806  64.0474057  67.2553278
 104.8934725  62.6361947  67.2036009 114.3764514  55.9440731  56.5946397
 113.4890369  56.2290381  56.3766591 114.7918503  55.7834494  55.7473673
 117.7279050  55.9687252  60.3100736 118.5039440  56.4583704  60.5825353
 117.0027184  56.3945306  60.7672605 120.1651608  56.6814871  61.3674676
 120.7596099  56.4410607  60.6567985 120.2378192  55.9622002  61.9948213
 102.3848764  70.5248482  61.6817841 102.2503232  69.7648883  61.1155839
 101.9680826  71.2489382  61.2146630 113.5207727  65.7085405  50.6894417
 114.2243577  65.9135408  51.3052072 112.7970376  66.2762167  50.9543500
 114.3505537  61.4595267  56.8096687 114.2940739  61.9163818  55.9704319
 114.9033880  60.6985951  56.6319529 118.1610343  57.2484999  57.6346806
 117.9047277  56.8481634  58.4655014 117.5363211  57.9628793  57.5096945
 122.4722681  59.9881072  60.1418098 121.9122239  60.0574261  60.9149660
 121.8666184  59.8122056  59.4217594 105.5417890  71.4217799  61.8936284
 105.4250274  72.3663231  61.7914974 104.7210336  71.1191360  62.2822083
 115.4294424  66.1467935  52.7392877 116.2640028  65.7149133  52.5570351
 115.2678767  65.9749948  53.6669771 115.0840317  62.6500048  54.1049216
 115.0289120  62.4844319  53.1637660 114.4586372  63.3576081  54.2611406
  99.8732832  57.8868112  67.9310638 100.5191695  57.3767066  68.4197863
  99.6649983  58.6236794  68.5054063 112.3986224  64.9548960  73.4302779
 113.2677383  65.1289612  73.0689414 111.9192975  65.7743377  73.3078508
 108.3936442  52.1508157  53.6834534 108.3815112  53.0949997  53.8402805
 109.2859864  51.9678302  53.3893996 106.5672404  72.0746061  65.1092212
 107.4699651  72.1069671  65.4258707 106.3409774  71.1446512  65.1238548
 108.3226006  70.8277047  61.7702291 107.3721637  70.8278909  61.6566663
 108.6258492  70.0809782  61.2538326 112.2088561  48.7450934  57.9380471
 111.4420957  48.1909420  58.0837153 112.6199266  48.8172802  58.7994623
 104.2130323  55.0335729  72.0285652 105.0761784  54.6772534  72.2388977
 103.6395733  54.6949624  72.7161057 120.8668406  76.6165014  62.7709578
 120.5286917  76.5006079  61.8830113 121.7358174  76.2156179  62.7510584
 116.7255221  78.4700490  58.7606469 116.1620087  78.3790427  57.9922757
 116.6107616  77.6500395  59.2408962 121.3488189  77.7699866  68.7295784
 121.3376830  77.3752664  67.8576287 121.5108828  77.0365938  69.3229555
 114.2719653  79.9651682  61.5990689 115.0640945  79.6242507  61.1836989
 114.5116304  80.0746657  62.5192843 116.2310407  79.2260595  54.4708068
 117.0041283  78.6789582  54.3320944 116.5835806  80.0904844  54.6822530
 118.0695450  80.5536977  67.6774968 117.7785316  81.4582608  67.5621634
 118.7052434  80.5953505  68.3919037 118.9951657  77.9313826  64.2676327
 119.5915229  77.7069848  63.5533290 119.0526628  77.1898571  64.8701775
 118.5676685  75.3853261  52.1026518 118.8202206  74.8634783  51.3409981
 117.6301244  75.2219407  52.2053202 118.2872974  77.2881367  54.3050893
 118.1709232  76.6126271  54.9731977 118.3975234  76.8013741  53.4883046
 120.6304515  76.7491514  58.0097582 120.2662722  76.2222135  58.7210504
 121.4871631  76.3589983  57.8364068 120.2710002  71.7781414  53.0058931
 120.4384404  72.6461650  53.3729402 120.0807171  71.9408696  52.0820220
 116.4797816  76.6912190  60.7061466 115.5548313  76.5588404  60.9139157
 116.7282230  77.4706409  61.2031408 120.2499223  74.2339072  53.9905598
 120.1298848  74.6796122  54.8291078 119.5551811  74.5824389  53.4319136
 113.8406627  76.3345463  61.5405255 113.9699009  76.5879942  62.4544666
 113.1604079  76.9273171  61.2209910 118.0106115  87.0042713  57.6395729
 117.9330144  87.9550538  57.7184209 117.4067758  86.6588586  58.2970655
 120.5023345  74.1770579  70.2957096 119.7256679  74.7364499  70.2859960
 121.1413908  74.6627362  70.8171966 118.7569717  76.9856032  69.8575063
 119.4984401  77.5241076  69.5809886 118.0506702  77.6122321  70.0146615
 120.5856127  74.0657779  65.8280781 121.4317322  74.4897193  65.9715430
 120.5254764  73.4091404  66.5219344 120.1081833  79.4260771  59.4749598
 120.5720179  79.7048474  58.6854221 119.8438631  78.5244216  59.2922689
 117.0005914  78.9732253  62.4129362 117.5707271  79.4019521  61.7746846
 117.5914026  78.6914837  63.1113547 119.0450719  75.5483924  56.2839163
 119.7474762  76.0004967  56.7513090 118.7131348  74.9067742  56.9119057
 117.4931081  74.1395680  70.6590373 116.8629741  74.8211961  70.8925770
 117.3867168  74.0278762  69.7143511 112.7876053  73.8067476  61.5856297
 111.9975107  74.0625005  61.1096408 113.2787300  74.6215814  61.6908338
 114.7390798  74.1712056  58.5439774 113.9421962  74.2830750  59.0623269
 114.5116391  74.5098708  57.6780664 120.5696466  80.6956759  66.4922288
 120.6340899  81.1577166  67.3280460 119.8607390  80.0654124  66.6204598
 111.0713756  74.0597967  64.0171288 111.3221794  74.9444977  64.2828864
 111.6073304  73.8802568  63.2446380 120.2844484  82.3624866  56.3601269
 120.1490158  83.2076402  56.7886116 120.8254296  82.5644144  55.5967202
 116.7711823  68.4416446  73.0215624 116.3778769  67.8882645  73.6963268
 117.5877964  68.7527025  73.4122141 113.7373881  79.8800304  56.9329194
 114.2498402  80.6743555  57.0834758 114.3896594  79.1826595  56.8662795
 115.5468766  82.9966061  59.0151947 115.7235394  83.9184025  58.8272931
 116.3425599  82.6824480  59.4446327 119.6879784  69.8574325  70.6135880
 120.4289498  70.4581478  70.5340343 119.9197707  69.1151963  70.0553923
 114.8321122  75.0430692  68.8914110 114.7174637  74.1415950  69.1921209
 113.9765640  75.2894389  68.5398927 116.6700081  84.5144234  65.0162289
 117.2207506  84.3861298  64.2439283 115.8311557  84.8139123  64.6657182
 120.4667252  80.7795362  69.3606520 120.9995589  80.0183650  69.1305828
 119.9381333  80.4869014  70.1030675 111.7022798  78.2088959  57.7088764
 112.5398020  78.6185967  57.4922472 111.8801066  77.2688401  57.6788958
 121.1834341  70.7213740  58.4557836 120.3275937  70.3320590  58.2763474
 121.5961293  70.8005701  57.5957621 118.9576374  68.3398813  61.8615577
 119.8229370  68.1441622  61.5021467 119.0253882  68.1109165  62.7884934
 121.8319965  79.9081355  56.8725332 121.3041327  79.1734114  56.5598570
 121.3307468  80.6856031  56.6265301 116.5638693  70.5701021  59.2331944
 117.1382445  70.3476202  58.5005137 117.1509675  70.6389715  59.9860545
 116.8908280  72.6005482  53.2527829 116.0545592  72.9380168  53.5737104
 116.7513049  72.4654462  52.3154966 118.8661360  67.4442270  57.9607013
 118.2125773  67.1291287  57.3363628 118.8241834  66.8218010  58.6866836
 119.9772565  77.7261565  49.8760305 119.0699627  77.4950818  50.0751454
 120.4743597  76.9299184  50.0634287 121.1560799  77.8274160  54.3984296
 120.2472018  77.5433193  54.4956765 121.1855882  78.2473238  53.5387602
 111.7248969  75.5479674  58.3799498 111.5273369  74.9549035  57.6550564
 111.1695633  75.2431884  59.0975437 119.7045693  75.4402780  60.4994091
 119.7594302  74.4876617  60.4236567 118.8936895  75.5962219  60.9835389
 120.8536886  79.3682903  51.7372374 120.4156316  78.6518762  51.2778011
 121.5947327  79.5959018  51.1757465 117.6438053  74.0579840  58.2584470
 116.8305918  74.3574011  58.6649662 118.1397047  73.6635529  58.9758952
 119.7946630  84.0537597  60.1918734 119.7522809  84.2798443  59.2627266
 120.7109329  83.8200972  60.3404536 117.1352127  71.6298196  63.8745705
 117.7751507  71.4886955  63.1768668 116.3029658  71.3432709  63.4984307
 117.9112431  80.9300626  59.9880697 118.7053030  80.4350946  59.7863272
 117.2004124  80.4018489  59.6248403 114.2195195  75.0743708  56.0640450
 113.2892783  75.0128163  56.2810412 114.3152667  74.5519661  55.2677091
 114.1380744  71.5998521  58.6518691 114.3987561  72.5143854  58.5427852
 114.9597916  71.1322963  58.8015304 115.6105669  73.0136278  65.8217516
 116.2828723  72.8053640  65.1730165 114.7835456  72.8158364  65.3822748
 121.5131241  69.6398219  67.8383177 120.8659156  70.3388168  67.7447653
 122.2832257  70.0734363  68.2059425 120.4883707  81.5029648  63.6678534
 120.3494793  81.1348432  64.5404472 119.6998303  82.0177287  63.4962492
 121.0831859  86.6038744  55.0104071 121.2583615  86.1326788  55.8249693
 120.3964647  87.2304511  55.2385331 122.0388922  80.8811251  61.0567372
 121.7038755  80.8412021  61.9525022 121.5392868  80.2155967  60.5837782
 116.0133166  76.2878881  66.5819953 115.8752964  75.5559120  67.1831492
 116.9238090  76.1987781  66.3004141 118.6415467  75.9998840  66.0703633
 119.3515086  75.3592032  66.0290251 118.5984775  76.2511735  66.9929814
 117.3544401  72.9864058  67.8899272 116.8181758  72.5354796  68.5420869
 116.7661109  73.1209967  67.1469737 115.6492944  89.7528107  61.7843931
 115.8889543  90.3846631  62.4622950 114.8062141  89.4016147  62.0709290
 116.7646660  72.4452709  50.4525736 115.8876126  72.3241510  50.0887983
 117.2404413  71.6538788  50.2004625 108.2848800  77.2329869  60.5467243
 108.9719840  76.9191599  59.9588258 108.1296929  78.1371234  60.2734495
 113.0883522  72.1220066  64.9752267 113.0041711  71.5145735  64.2402677
 112.2666229  72.6129084  64.9761763 120.1620806  85.5607230  64.1885435
 120.0890978  86.3662201  64.7004739 119.7198199  85.7599196  63.3633456
 119.9510586  84.7979000  57.6988256 119.1678108  85.3400680  57.7926481
 120.6503331  85.3152979  58.0982498 119.8442205  72.7491012  60.0694146
 119.4739992  72.1962053  60.7575052 120.3401297  72.1449146  59.5169146
 117.6731403  83.2088507  67.1649164 118.3740863  83.8424990  67.3178559
 117.2026518  83.5503239  66.4044804 121.5220262  76.5052926  71.4767752
 120.8460899  76.4047055  72.1470127 122.3447896  76.3492139  71.9403749
 113.2699121  82.7424862  64.0980267 113.8552558  81.9968550  64.2308171
 113.0723960  83.0528819  64.9816931 116.1237777  85.7776110  59.1142709
 115.4548152  86.2622237  58.6306750 115.9850646  86.0245330  60.0286088
 107.8616776  75.3130462  62.8184710 107.9000876  74.7794053  63.6121828
 107.3557069  74.7865668  62.1995687 120.2643045  87.8119853  65.7125368
 120.8161353  87.9751475  66.4774453 120.6049239  88.4024291  65.0405393
 115.2407538  70.1595003  66.3147253 115.3048865  71.0209834  65.9024650
 115.1774659  69.5469005  65.5819611 114.7159811  72.2318136  69.9620287
 115.3431850  71.8495213  70.5757811 113.8587730  72.0132337  70.3275979
 111.4925354  74.0394565  55.8938642 111.7878795  73.1305243  55.8405695
 110.5913390  74.0182304  55.5719644 115.0219601  72.1150561  61.8766190
 114.3006187  72.7286529  61.7373664 115.8112857  72.6508326  61.7982836
 117.8245914  69.4504988  68.1506842 118.3480316  69.6967284  68.9133151
 117.6058248  70.2825022  67.7309979 113.2213195  71.7208662  56.0177967
 112.8925902  70.8406041  55.8353073 113.5752566  71.6656331  56.9054356
 116.3355019  72.0081632  56.3853444 116.6751091  72.5367553  55.6632053
 116.7827139  72.3462038  57.1612011 119.0298459  70.3918683  65.8356513
 118.6895280  69.5926496  66.2377192 118.3237466  70.6920394  65.2633346
 119.6814931  67.4767995  64.2883836 120.5041000  67.0028473  64.1662726
 119.9252995  68.2558479  64.7882522 118.3223166  70.5056254  54.5846737
 119.0431528  70.8837506  54.0810454 117.6988470  71.2245130  54.6881715
 117.2053510  74.1687116  62.0975814 117.0598091  74.4827419  62.9900096
 116.7278714  74.7872016  61.5446713 119.0649893  71.1589664  62.1456704
 119.0511462  70.2630757  61.8089002 119.7822321  71.1660328  62.7794990
 120.9176024  71.5927004  64.1909831 120.6593801  72.5144075  64.1894162
 120.3861064  71.1957439  64.8810295 111.6799172  76.7092460  65.0363475
 111.1352640  77.4852268  65.1683750 112.5578522  77.0563265  64.8782597
 118.4686789  70.0404044  57.4144274 118.5902700  69.1120690  57.6135161
 118.1788831  70.0542730  56.5022589 121.3377979  67.7258955  60.5510994
 121.3599676  67.7898288  59.5962973 121.7546038  66.8863463  60.7451500
 112.4665194  75.8362357  67.9293632 111.7246930  75.9844992  68.5158263
 112.1457938  76.0970622  67.0660382 120.4108857  85.3778335  67.7274022
 120.7195983  85.1327482  68.5996722 121.2084339  85.5824973  67.2392892
 120.4329469  87.5316244  59.9579399 119.9934459  87.0392623  60.6512255
 121.1837586  86.9889212  59.7171474 112.9121808  83.7227785  59.9604027
 113.7379828  83.4231557  59.5802670 112.5615860  82.9535408  60.4093815
 117.8803341  83.0754253  62.0301700 117.2583350  82.4124958  61.7303928
 118.5508208  83.1015385  61.3475348 111.1130413  81.6414112  60.9192960
 110.2762321  81.2136286  60.7376962 111.0854058  81.8346555  61.8563752
 117.9527868  71.5536041  71.6234206 118.0016024  72.4298164  71.2411976
 118.4950382  71.0113435  71.0505850 117.4416848  81.6258177  55.5060161
 117.5904968  82.3093641  54.8526834 118.2483291  81.6063267  56.0209617
 120.1827157  72.3067414  68.3780565 119.3130466  72.6000980  68.1063154
 120.4186637  72.8907859  69.0987829 115.1969481  77.6523354  56.5121230
 114.9515523  76.7485684  56.7101440 115.3665395  77.6540505  55.5700708
 114.4665128  73.3851712  54.0107391 113.7734373  73.4596067  53.3547427
 114.2216880  72.6212056  54.5328908 120.9412253  84.1206307  52.9771908
 120.3686220  84.7396494  52.5242380 121.5145047  84.6705669  53.5111830
 121.3259052  75.4567120  50.3187961 122.2718156  75.3273328  50.3876379
 120.9473297  74.7181782  50.7957389 121.2097744  79.5084866  71.7788618
 122.1300754  79.6863465  71.9728664 121.1747327  78.5640911  71.6268317
 119.5101969  73.3817096  50.2542846 118.6033424  73.0850209  50.3305560
 119.7877950  73.0846914  49.3877132 110.4279909  74.7023460  60.7041893
 110.1082694  73.8488768  60.4116267 109.8813337  74.9172038  61.4599860
 114.2059817  77.4185901  64.4211399 114.4245827  78.3503009  64.4399433
 114.6185591  77.0593875  65.2066203 121.1264035  67.9253986  56.4087087
 120.3164763  67.5801071  56.7842333 121.8148452  67.6161530  56.9974699
 119.0787682  72.9919107  73.8114148 118.9784409  73.9413464  73.7426239
 118.8609224  72.6637345  72.9390218 118.2800754  70.2404032  50.3954825
 119.1419918  70.5658930  50.6550643 118.4651098  69.4535528  49.8827891
 110.2968169  78.3226371  62.6735014 109.6031641  77.9080324  62.1604969
 111.0441160  78.3646908  62.0768433 118.9418952  76.4216245  72.6279210
 118.4586034  77.2216606  72.8343099 119.0279891  76.4324190  71.6746654
 112.2104912  78.2544625  60.5501029 112.1875600  78.3532312  59.5982912
 112.5205548  79.1009776  60.8718195 114.8692290  80.3120780  64.6647643
 115.8235543  80.2804722  64.5977575 114.6704813  79.8511404  65.4797869
 115.4591672  78.8821896  67.2318441 116.2784561  79.3765975  67.2553278
 115.7328480  77.9653864  67.2036009 113.2242518  85.8540400  61.6817841
 113.0896986  85.0940800  61.1155839 112.8074581  86.5781299  61.2146630
 116.3811644  86.7509717  61.8936284 116.2644028  87.6955149  61.7914974
 115.5604091  86.4483278  62.2822083 110.7126586  73.2160030  67.9310638
 111.3585450  72.7058984  68.4197863 110.5043737  73.9528712  68.5054063
 119.2330197  67.4800075  53.6834534 119.2208866  68.4241915  53.8402805
 120.1253618  67.2970220  53.3893996 117.4066158  87.4037979  65.1092212
 118.3093405  87.4361589  65.4258707 117.1803529  86.4738429  65.1238548
 119.1619760  86.1568965  61.7702291 118.2115391  86.1570827  61.6566663
 119.4652247  85.4101700  61.2538326 115.0524077  70.3627647  72.0285652
 115.9155539  70.0064452  72.2388977 114.4789488  70.0241542  72.7161057
 121.9107511  89.3889884  64.0171288 122.1615549  90.2736894  64.2828864
 122.4467059  89.2094486  63.2446380 119.1242555  92.5621787  60.5467243
 119.8113594  92.2483517  59.9588258 118.9690683  93.4663151  60.2734495
 118.7010531  90.6422380  62.8184710 118.7394630  90.1085971  63.6121828
 118.1950824  90.1157586  62.1995687 121.9524167  96.9706029  60.9192960
 121.1156075  96.5428204  60.7376962 121.9247813  97.1638473  61.8563752
 121.2673664  90.0315377  60.7041893 120.9476448  89.1780686  60.4116267
 120.7207092  90.2463956  61.4599860 121.1361924  93.6518289  62.6735014
 120.4425395  93.2372242  62.1604969 121.8834915  93.6938825  62.0768433
 121.5520341  88.5451948  67.9310638 122.1979204  88.0350902  68.4197863
 121.3437492  89.2820629  68.5054063  74.6531098   2.6937165  44.3641036
  74.5755128   3.6444990  44.4429516  74.0492742   2.3483038  45.0215962
  72.2917928   5.4422559  48.5089238  72.5314526   6.0741083  49.1868256
  71.4487124   5.0910599  48.7954597  72.7662760   1.4670562  45.8388016
  72.0973135   1.9516689  45.3552056  72.6275630   1.7139782  46.7531395
  76.9068029   3.5014305  52.4370674  77.4586337   3.6645927  53.2019760
  77.2474222   4.0918743  51.7650699  77.0754452   3.2210696  46.6824705
  76.6359442   2.7287075  47.3757562  77.8262569   2.6783664  46.4416781
  69.8667502   1.5434851  48.4063148  69.7321970   0.7835252  47.8401146
  69.4499564   2.2675751  47.9391937  73.0236628   2.4404169  48.6181591
  72.9069012   3.3849601  48.5160281  72.2029074   2.1377730  49.0067390
  74.0491142   3.0932430  51.8337519  74.9518388   3.1256041  52.1504014
  73.8228512   2.1632881  51.8483855  88.3487144   7.6351383  49.4954885
  88.0105655   7.5192448  48.6075420  89.2176912   7.2342549  49.4755891
  84.2073959   9.4886860  45.4851776  83.6438824   9.3976797  44.7168063
  84.0926354   8.6686764  45.9654268  88.8306927   8.7886235  55.4541090
  88.8195567   8.3939033  54.5821594  88.9927566   8.0552308  56.0474862
  81.7538391  10.9838051  48.3235996  82.5459683  10.6428876  47.9082295
  81.9935041  11.0933026  49.2438149  89.7873518  13.1557828  40.7966241
  89.1361498  13.7411908  40.4100254  90.5817881  13.6864022  40.8561278
  83.7129145  10.2446965  41.1953375  84.4860021   9.6975952  41.0566251
  84.0654544  11.1091214  41.4067836  85.5514188  11.5723347  54.4020274
  85.2604054  12.4768978  54.2866941  86.1871172  11.6139875  55.1164344
  86.4770395   8.9500195  50.9921634  87.0733967   8.7256218  50.2778597
  86.5345366   8.2084941  51.5947082  86.0495423   6.4039631  38.8271825
  86.3020944   5.8821152  38.0655288  85.1119982   6.2405776  38.9298508
  91.2648783  10.8448259  41.3335225  90.6294616  10.9182886  42.0456129
  90.9346190  11.4341858  40.6554304  85.7691712   8.3067737  41.0296200
  85.6527970   7.6312640  41.6977284  85.8793972   7.8200111  40.2128353
  88.1123253   7.7677884  44.7342889  87.7481460   7.2408505  45.4455810
  88.9690369   7.3776353  44.5609374  90.5104073  11.2584762  51.3970068
  90.2104796  12.1609801  51.2885875  90.1655132  10.9916946  52.2491221
  83.9616554   7.7098559  47.4306772  83.0367051   7.5774773  47.6384464
  84.2100967   8.4892779  47.9276715  81.3225365   7.3531833  48.2650561
  81.4517746   7.6066312  49.1789973  80.6422817   7.9459541  47.9455216
  85.4924853  18.0229083  44.3641036  85.4148882  18.9736908  44.4429516
  84.8886496  17.6774955  45.0215962  86.2388455   8.0042402  56.5820369
  86.9803139   8.5427446  56.3055193  85.5325440   8.6308690  56.7391921
  91.7143794  10.1471542  55.1792531  92.1227150   9.7053953  54.4347163
  90.9921056   9.5724170  55.4326724  92.0372609  10.7072733  48.9344820
  91.4081471  10.8718447  48.2320888  91.6498271  11.1214342  49.7055784
  95.9161841  11.6427171  46.2889184  95.2312879  12.0226072  45.7386217
  96.0005690  12.2522497  47.0221131  93.1712772   9.2887130  52.8884527
  93.3829668   9.9318889  52.2118908  93.1242521   8.4549446  52.4206457
  87.5900571  10.4447141  46.1994905  88.0538916  10.7234844  45.4099527
  87.3257369   9.5430585  46.0167996  84.4824652   9.9918622  49.1374668
  85.0526009  10.4205891  48.4992153  85.0732764   9.7101207  49.8358854
  86.5269457   6.5670293  43.0084470  87.2293500   7.0191337  43.4758396
  86.1950085   5.9254112  43.6364363  84.9749818   5.1582050  57.3835679
  84.3448479   5.8398331  57.6171076  84.8685906   5.0465131  56.4388818
  80.2694791   4.8253846  48.3101604  79.4793845   5.0811374  47.8341714
  80.7606038   5.6402184  48.4153644  94.2858600  12.1659085  51.0606884
  95.1076044  11.7639272  50.7789566  94.2821003  12.0627319  52.0123000
  82.2209536   5.1898425  45.2685080  81.4240699   5.3017119  45.7868576
  81.9935128   5.5285077  44.4025971  88.0515204  11.7143128  53.2167595
  88.1159636  12.1763536  54.0525767  87.3426128  11.0840493  53.3449905
  78.5532494   5.0784336  50.7416594  78.8040532   5.9631346  51.0074170
  79.0892042   4.8988938  49.9691686  87.7663221  13.3811236  43.0846575
  87.6308896  14.2262772  43.5131423  88.3073034  13.5830513  42.3212509
  81.2192619  10.8986674  43.6574500  81.7317139  11.6929924  43.8080065
  81.8715332  10.2012964  43.5908102  83.0287504  14.0152430  45.7397254
  83.2054132  14.9370395  45.5518237  83.8244337  13.7010849  46.1691633
  82.3139860   6.0617062  55.6159417  82.1993375   5.1602319  55.9166516
  81.4584378   6.3080759  55.2644233  89.3931698  14.0034802  57.2146917
  88.9495552  13.2171181  56.8967822  90.0548911  14.1913953  56.5490808
  84.1518819  15.5330604  51.7407596  84.7026244  15.4047667  50.9684590
  83.3130295  15.8325493  51.3902489  91.4912936  14.2837602  55.2428319
  91.4731411  15.1046483  54.7508588  92.4132856  14.1591677  55.4678460
  87.9485990  11.7981732  56.0851827  88.4814327  11.0370020  55.8551135
  87.4200071  11.5055384  56.8275982  79.1841536   9.2275328  44.4334071
  80.0216758   9.6372336  44.2167779  79.3619803   8.2874770  44.4034265
  96.0540242   9.6482763  42.0571077  95.2769685   9.3093923  41.6126239
  96.7331723   9.6535387  41.3826042  89.3138703  10.9267724  43.5970639
  88.7860064  10.1920484  43.2843876  88.8126206  11.7042401  43.3510607
  94.2931549   9.1216745  48.7137685  93.6355223   9.8116006  48.8017814
  95.0971948   9.5113177  49.0571672  87.4591303   8.7447934  36.6005612
  86.5518365   8.5137188  36.7996761  87.9562335   7.9485554  36.7879594
  90.3659382  17.4545442  39.5202298  89.6921081  17.7577138  40.1287256
  90.7525204  18.2574522  39.1707755  88.6379536   8.8460529  41.1229602
  87.7290756   8.5619562  41.2202072  88.6674620   9.2659608  40.2632909
  93.8698804  12.4567119  44.8920770  93.4161131  11.6158029  44.9485960
  93.2392771  13.0928517  45.2295550  92.3131743  14.2943616  45.8270588
  92.6054717  14.8548673  45.1082953  92.8230364  14.5872177  46.5823747
  79.2067707   6.5666043  45.1044804  79.0092107   5.9735404  44.3795871
  78.6514371   6.2618254  45.8220743  88.3355624  10.3869273  38.4617681
  87.8975054   9.6705132  38.0023318  89.0766065  10.6145388  37.9002772
  87.2765368  15.0723967  46.9164041  87.2341547  15.2984813  45.9872573
  88.1928067  14.8387341  47.0649842  96.4798119  10.7302997  49.5305271
  96.9134625  10.6378286  50.3788325  97.1929699  10.7060497  48.8925287
  85.3931169  11.9486996  46.7126004  86.1871768  11.4537316  46.5108579
  84.6822861  11.4204859  46.3493709  90.2126013  14.3305091  51.0638371
  90.2663036  14.8996027  51.8316087  89.3440795  14.5006976  50.6992409
  81.7013932   6.0930077  42.7885756  80.7711521   6.0314533  43.0055719
  81.7971404   5.5706030  41.9922398  97.3413668  10.7726698  52.0638156
  97.5349558  11.6772508  52.3097431  97.2414286  10.3134117  52.8976741
  92.4028777  10.9233440  57.6379037  92.2514283  10.6943992  56.7209121
  92.3933456  11.8804042  57.6510382  89.1714113   8.4965353  52.6225303
  90.1006173   8.6476513  52.4494271  88.7505143   8.5849374  51.7673950
  87.9702445  12.5216018  50.3923841  87.8313531  12.1534802  51.2649779
  87.1817041  13.0363657  50.2207799  88.5650597  17.6225114  41.7349377
  88.7402353  17.1513157  42.5495000  87.8783385  18.2490880  41.9630638
  89.5207660  11.8997620  47.7812679  89.1857493  11.8598390  48.6770329
  89.0211606  11.2342336  47.3083089  83.4951904   7.3065250  53.3065260
  83.3571702   6.5745489  53.9076799  84.4056828   7.2174150  53.0249448
  92.4566852   9.2453655  38.0549738  91.8396022   8.5200483  37.9582791
  91.9883340  10.0063015  37.7116813  86.1234205   7.0185210  52.7948939
  86.8333823   6.3778402  52.7535558  86.0803513   7.2698104  53.7175120
  94.1120983  13.9552563  55.7155519  94.0533530  13.2711783  55.0486102
  94.5140502  14.6971553  55.2636145  83.1311682  20.7714477  48.5089238
  83.3708280  21.4033001  49.1868256  82.2880879  20.4202517  48.7954597
  94.1138391  11.9192147  53.9469498  93.2265170  11.5818069  54.0695897
  94.6836942  11.1875178  54.1838264  75.7667538   8.2516239  47.2712550
  76.4538578   7.9377969  46.6833565  75.6115667   9.1557603  46.9979801
  87.6439544  16.5793599  50.9130742  87.5709716  17.3848571  51.4250046
  87.2016937  16.7785565  50.0878763  87.4329324  15.8165369  44.4233563
  86.6496846  16.3587049  44.5171788  88.1322069  16.3339349  44.8227804
  90.1038228  16.4780433  53.0688900  90.8166200  17.1127898  52.9964802
  89.6128256  16.5744299  52.2528902  91.8255755  10.3831686  44.6406192
  90.8912033  10.5033148  44.4710896  92.0032423   9.4804153  44.3766202
  85.1550141  14.2274877  53.8894471  85.8559601  14.8611360  54.0423865
  84.6845256  14.5689608  53.1290110  93.2804537  12.5692827  42.1742378
  93.5564381  12.4549421  43.0836252  92.4109036  12.1710311  42.1354551
  89.9158601  16.8179177  45.8175192  90.0980996  16.0000833  46.2802944
  90.7391587  17.0346870  45.3800082  90.2500767  15.7447363  43.0790240
  90.7788533  15.2339817  42.4660402  90.5128986  15.4289893  43.9435773
  89.0039000   7.5239295  58.2013058  88.3279637   7.4233425  58.8715434
  89.8266634   7.3678509  58.6649056  80.7517859  13.7611232  50.8225574
  81.3371296  13.0154920  50.9553478  80.5542698  14.0715189  51.7062238
  83.6056514  16.7962479  45.8388016  82.9366890  17.2808607  45.3552056
  83.4669384  17.0431700  46.7531395  75.3435514   6.3316832  49.5430017
  75.3819614   5.7980423  50.3367135  74.8375807   5.8052038  48.9240994
  87.7461783  18.8306223  52.4370674  88.2980091  18.9937844  53.2019760
  88.0867977  19.4210661  51.7650699  92.5972657  13.6567480  58.2919329
  93.1412561  14.2697439  57.7974284  92.0159502  14.2147059  58.8086342
  78.9744092   5.0580934  42.6183948  79.2697533   4.1491613  42.5651002
  78.0732127   5.0368674  42.2964951  90.8830170  16.7788198  49.4234357
  90.7581310  15.9777938  48.9145302  91.5409261  17.2734392  48.9348327
  92.9465079  14.5797218  51.0513907  91.9995414  14.4602570  50.9792233
  93.2947852  13.6919716  51.1340168  89.9511512  14.3749935  47.2518259
  89.8036474  13.4466642  47.4325829  90.7765006  14.3970025  46.7675334
  93.5545634  15.1978493  48.3383132  94.4792181  14.9921355  48.2007583
  93.3860937  14.9494894  49.2472473  84.6872248   5.1873485  48.8221121
  84.5416828   5.5013788  49.7145402  84.2097451   5.8058386  48.2692019
  93.3440950  15.7164161  43.6945223  93.5177828  15.1510583  42.9419076
  93.8369841  16.5165056  43.5124713  79.1617910   7.7278830  51.7608782
  78.6171378   8.5038638  51.8929056  80.0397260   8.0749634  51.6027903
  94.3316123  15.0330925  40.7942121  95.0267027  15.6537618  41.0129436
  94.6739273  14.1826276  41.0694499  79.9483932   6.8548726  54.6538939
  79.2065668   7.0031361  55.2403569  79.6276676   7.1156992  53.7905688
  96.2307546  12.4830631  42.3229452  96.7558870  12.8217903  41.5978772
  96.1429898  11.5477646  42.1392587  87.8927594  16.3964704  54.4519329
  88.2014721  16.1513851  55.3242028  88.6903076  16.6011343  53.9638199
  87.9148206  18.5502614  46.6824705  87.4753197  18.0578993  47.3757562
  88.6656323  18.0075582  46.4416781  80.3940545  14.7414155  46.6849333
  81.2198565  14.4417927  46.3047977  80.0434597  13.9721777  47.1339122
  85.3622079  14.0940623  48.7547007  84.7402088  13.4311328  48.4549235
  86.0326945  14.1201755  48.0720655  78.5949150  12.6600481  47.6438267
  77.7581059  12.2322656  47.4622268  78.5672796  12.8532925  48.5809058
  95.9201452  13.1163534  57.6280650  95.1296995  13.0987673  57.0885150
  95.6834806  13.6551828  58.3829687  96.0399327   9.9656001  54.9413379
  96.0897332   9.8006008  55.8828901  95.9313250   9.0983260  54.5511259
  84.9235585  12.6444546  42.2305468  85.0723706  13.3280011  41.5772140
  85.7302029  12.6249636  42.7454923  97.5417524  12.3852942  55.1855400
  97.2502332  12.7482923  56.0218861  96.9289655  11.6719950  55.0068732
  82.6788218   8.6709724  43.2366537  82.4334260   7.7672054  43.4346747
  82.8484133   8.6726874  42.2946015  88.4230991  15.1392677  39.7017215
  87.8504958  15.7582864  39.2487687  88.9963785  15.6892039  40.2357137
  91.6428251  15.4229827  40.8325797  92.5758924  15.3575389  41.0358673
  91.5551464  16.2586094  40.3740330  94.2716267  14.7395697  37.7929745
  94.1929899  14.4055561  38.6865503  95.0925934  15.2317465  37.7921217
  88.6916482  10.5271236  58.5033925  89.6119492  10.7049835  58.6973971
  88.6566065   9.5827281  58.3513624  77.9098647   5.7209829  47.4287199
  77.5901431   4.8675138  47.1361573  77.3632075   5.9358408  48.1845166
  81.6878555   8.4372270  51.1456706  81.9064564   9.3689378  51.1644739
  82.1004328   8.0780245  51.9311509  77.7786907   9.3412741  49.3980321
  77.0850378   8.9266694  48.8850275  78.5259898   9.3833277  48.8013740
  86.4237690   7.4402615  59.3524516  85.9404772   8.2402975  59.5588405
  86.5098629   7.4510560  58.3991960  79.6923650   9.2730995  47.2746336
  79.6694338   9.3718682  46.3228219  80.0024286  10.1196145  47.5963502
  82.3511027  11.3307150  51.3892950  83.3054281  11.2991092  51.3222882
  82.1523551  10.8697773  52.2043176  82.9410410   9.9008266  53.9563748
  83.7603299  10.3952344  53.9798585  83.2147217   8.9840234  53.9281315
  80.7061256  16.8726769  48.4063148  80.5715724  16.1127170  47.8401146
  80.2893319  17.5967669  47.9391937  91.8420219  12.0563693  37.4139723
  92.5456069  12.2613695  38.0297379  91.1182868  12.6240455  37.6788807
  83.8630382  17.7696086  48.6181591  83.7462766  18.7141519  48.5160281
  83.0422828  17.4669648  49.0067390  93.7506917  12.4946222  39.4638183
  94.5852521  12.0627420  39.2815658  93.5891260  12.3228236  40.3915078
  93.4052809   8.9978335  40.8294523  93.3501613   8.8322607  39.8882967
  92.7798864   9.7054368  40.9856712  78.1945324   4.2346400  54.6555945
  78.8404187   3.7245354  55.1443170  77.9862475   4.9715081  55.2299370
  90.7198716  11.3027247  60.1548085  91.5889876  11.4767899  59.7934720
  90.2405467  12.1221664  60.0323815  84.8884896  18.4224348  51.8337519
  85.7912143  18.4547958  52.1504014  84.6622266  17.4924799  51.8483855
  86.6438498  17.1755335  48.4947598  85.6934129  17.1757196  48.3811970
  86.9470984  16.4288069  47.9783632 102.3791192  23.0115873  49.5593360
 103.0169602  22.8922620  48.8556700 102.2612035  23.9596717  49.6181312
  99.1880898  22.9643301  49.4954885  98.8499410  22.8484366  48.6075420
 100.0570666  22.5634466  49.4755891  95.0467714  24.8178778  45.4851776
  94.4832579  24.7268714  44.7168063  94.9320109  23.9978682  45.9654268
  99.6700681  24.1178153  55.4541090  99.6589322  23.7230951  54.5821594
  99.8321321  23.3844225  56.0474862  92.5932146  26.3129969  48.3235996
  93.3853438  25.9720794  47.9082295  92.8328796  26.4224944  49.2438149
 100.6267272  28.4849745  40.7966241  99.9755252  29.0703826  40.4100254
 101.4211635  29.0155940  40.8561278  94.5522900  25.5738882  41.1953375
  95.3253776  25.0267869  41.0566251  94.9048298  26.4383132  41.4067836
  96.3907942  26.9015265  54.4020274  96.0997808  27.8060895  54.2866941
  97.0264927  26.9431792  55.1164344  97.3164149  24.2792113  50.9921634
  97.9127721  24.0548136  50.2778597  97.3739121  23.5376859  51.5947082
  96.8889177  21.7331548  38.8271825  97.1414698  21.2113070  38.0655288
  95.9513737  21.5697694  38.9298508 101.9332460  20.7367327  46.6346568
 102.7195549  20.3186750  46.2836985 102.1971165  21.6413419  46.8028216
 102.1042538  26.1740177  41.3335225 101.4688371  26.2474804  42.0456129
 101.7739944  26.7633776  40.6554304 107.3340887  20.6742560  47.5379547
 108.0666059  20.1041777  47.7717376 106.5780243  20.2864161  47.9786052
  96.6085466  23.6359654  41.0296200  96.4921724  22.9604558  41.6977284
  96.7187726  23.1492028  40.2128353  98.9517007  23.0969802  44.7342889
  98.5875214  22.5700423  45.4455810  99.8084123  22.7068271  44.5609374
 104.8566308  14.3864134  51.9974155 104.5249633  15.2559545  51.7735370
 104.2611921  14.0700418  52.6768186  98.5922494  18.1259701  39.7304238
  98.7596896  18.9939938  40.0974709  98.4019663  18.2886983  38.8065527
 101.3497827  26.5876680  51.3970068 101.0498550  27.4901719  51.2885875
 101.0048887  26.3208863  52.2491221  94.8010309  23.0390477  47.4306772
  93.8760805  22.9066691  47.6384464  95.0494722  23.8184696  47.9276715
 104.7494971  19.1059220  49.0767505 103.8411848  19.0374629  48.7826266
 104.6982567  19.5831165  49.9049331  98.5711715  20.5817359  40.7150904
  98.4511340  21.0274410  41.5536385  97.8764303  20.9302676  40.1564442
  92.1619120  22.6823751  48.2650561  92.2911501  22.9358229  49.1789973
  91.4816571  23.2751459  47.9455216  96.3318607  33.3521001  44.3641036
  96.2542637  34.3028826  44.4429516  95.7280251  33.0066873  45.0215962
  98.8235837  20.5248866  57.0202402  98.0469171  21.0842786  57.0105267
  99.4626400  21.0105649  57.5417273 106.6156617  17.3075659  50.8545379
 105.9730998  17.6008192  50.2085174 106.1111546  17.1928579  51.6598576
 104.2696781  21.0538832  41.5431238 105.1814637  21.2866219  41.3678936
 103.7606428  21.6375876  40.9806317  97.0782209  23.3334319  56.5820369
  97.8196894  23.8719363  56.3055193  96.3719195  23.9600608  56.7391921
 102.5537549  25.4763460  55.1792531 102.9620905  25.0345870  54.4347163
 101.8314810  24.9016087  55.4326724  98.9068619  20.4136067  52.5526088
  99.7529814  20.8375480  52.6960737  98.8467256  19.7569691  53.2464651
 102.8766363  26.0364650  48.9344820 102.2475226  26.2010365  48.2320888
 102.4892025  26.4506260  49.7055784 106.7555595  26.9719088  46.2889184
 106.0706633  27.3517990  45.7386217 106.8399445  27.5814415  47.0221131
 102.0568064  18.0740435  54.2107262 101.8128996  18.8282495  53.6741537
 102.3327995  18.4525782  55.0454509 104.0106527  24.6179047  52.8884527
 104.2223422  25.2610807  52.2118908 103.9636275  23.7841364  52.4206457
 101.6132756  17.2296868  49.7921099 100.7517235  17.5278121  50.0837837
 101.6395191  17.4467267  48.8602132  98.4294325  25.7739058  46.1994905
  98.8932671  26.0526761  45.4099527  98.1651123  24.8722503  46.0167996
  95.3218406  25.3210540  49.1374668  95.8919763  25.7497808  48.4992153
  95.9126518  25.0393125  49.8358854  97.3663211  21.8962211  43.0084470
  98.0687255  22.3483255  43.4758396  97.0343840  21.2546030  43.6364363
  95.8143573  20.4873967  57.3835679  95.1842233  21.1690248  57.6171076
  95.7079661  20.3757049  56.4388818  91.1088545  20.1545763  48.3101604
  90.3187599  20.4103292  47.8341714  91.5999793  20.9694101  48.4153644
 105.1252355  27.4951003  51.0606884 105.9469799  27.0931190  50.7789566
 105.1214758  27.3919237  52.0123000  93.0603291  20.5190343  45.2685080
  92.2634454  20.6309037  45.7868576  92.8328883  20.8576995  44.4025971
  98.8908958  27.0435046  53.2167595  98.9553391  27.5055453  54.0525767
  98.1819882  26.4132411  53.3449905  89.3926248  20.4076254  50.7416594
  89.6434287  21.2923264  51.0074170  89.9285797  20.2280855  49.9691686
 113.2158348  23.8389751  47.4091856 112.4622056  23.2697149  47.2535860
 113.3505889  23.8052416  48.3562491  98.6056976  28.7103153  43.0846575
  98.4702651  29.5554689  43.5131423  99.1466788  28.9122431  42.3212509
  95.0924316  14.7894733  59.7460931  94.6991261  14.2360932  60.4208575
  95.9090456  15.1005312  60.1367448  92.0586373  26.2278591  43.6574500
  92.5710894  27.0221842  43.8080065  92.7109086  25.5304882  43.5908102
  93.8681258  29.3444348  45.7397254  94.0447886  30.2662312  45.5518237
  94.6638092  29.0302767  46.1691633  98.0092277  16.2052612  57.3381187
  98.7501990  16.8059766  57.2585650  98.2410199  15.4630250  56.7799230
  93.1533615  21.3908980  55.6159417  93.0387130  20.4894237  55.9166516
  92.2978132  21.6372676  55.2644233 100.2325452  29.3326720  57.2146917
  99.7889307  28.5463099  56.8967822 100.8942666  29.5205870  56.5490808
  94.9912574  30.8622522  51.7407596  95.5419999  30.7339585  50.9684590
  94.1524049  31.1617411  51.3902489 102.3306690  29.6129520  55.2428319
 102.3125166  30.4338401  54.7508588 103.2526610  29.4883595  55.4678460
  98.7879745  27.1273649  56.0851827  99.3208081  26.3661938  55.8551135
  98.2593826  26.8347301  56.8275982 101.9549440  12.2333715  51.6145469
 101.6113709  13.1235357  51.5384579 102.3228402  12.0435373  50.7515054
  90.0235290  24.5567246  44.4334071  90.8610512  24.9664254  44.2167779
  90.2013558  23.6166688  44.4034265 101.9199722  22.2242326  40.1217904
 101.4046346  22.9946931  40.3606291 101.6477031  21.5507463  40.7450965
  99.5046833  17.0692027  45.1803142  98.6488430  16.6798878  45.0008781
  99.9173785  17.1483988  44.3202928 101.0345980  14.6038371  49.5794702
 100.5310776  14.5668506  48.7662507 101.3276587  15.5131113  49.6391359
  97.2788866  14.6877100  48.5860884  98.1441863  14.4919909  48.2266773
  97.3466375  14.4587452  49.5130241 106.8933996  24.9774681  42.0571077
 106.1163439  24.6385841  41.6126239 107.5725477  24.9827304  41.3826042
 101.7086025  20.0969419  41.9477685 101.4036161  20.4115568  42.7987828
 102.6616468  20.1750838  41.9905018 100.1532457  26.2559642  43.5970639
  99.6253819  25.5212401  43.2843876  99.6519960  27.0334318  43.3510607
 105.1325303  24.4508662  48.7137685 104.4748978  25.1407924  48.8017814
 105.9365703  24.8405094  49.0571672  94.8851185  16.9179308  45.9577251
  95.4594937  16.6954490  45.2250444  95.4722167  16.9868003  46.7105852
 103.9430762  22.8053035  46.7641627 104.4562644  23.4383027  47.2663337
 104.5931986  22.2054231  46.3984987  95.2120772  18.9483769  39.9773136
  94.3758084  19.2858456  40.2982411  95.0725542  18.8132749  39.0400273
  97.1873853  13.7920557  44.6852320  96.5338265  13.4769574  44.0608935
  97.1454327  13.1696298  45.4112143  98.2985057  24.0739852  36.6005612
  97.3912119  23.8429106  36.7996761  98.7956089  23.2777471  36.7879594
 101.2053136  32.7837359  39.5202298 100.5314835  33.0869056  40.1287256
 101.5918958  33.5866440  39.1707755 100.4211593  20.2802491  49.0099968
  99.5034154  20.5017438  48.8521656 100.8371737  20.3548801  48.1511675
 101.2046641  21.6793906  44.1402648 101.9518460  22.1915303  43.8309770
 101.4738230  21.3577959  45.0007041  99.4773291  24.1752447  41.1229602
  98.5684510  23.8911480  41.2202072  99.5068375  24.5951526  40.2632909
 104.7092558  27.7859036  44.8920770 104.2554885  26.9449946  44.9485960
 104.0786525  28.4220435  45.2295550 103.6525478  18.7151023  46.1221437
 102.9148235  18.2028409  46.4531680 103.9052251  18.2751404  45.3104714
 103.1525498  29.6235533  45.8270588 103.4448472  30.1840590  45.1082953
 103.6624118  29.9164094  46.5823747  90.0461461  21.8957961  45.1044804
  89.8485861  21.3027322  44.3795871  89.4908125  21.5910171  45.8220743
  98.0258185  21.7881068  47.2239398  98.0806795  20.8354904  47.1481874
  97.2149387  21.9440507  47.7080696  99.1749379  25.7161191  38.4617681
  98.7368809  24.9997050  38.0023318  99.9159820  25.9437305  37.9002772
  95.9650545  20.4058127  44.9829776  95.1518410  20.7052298  45.3894969
  96.4609539  20.0113816  45.7004259  98.1159123  30.4015884  46.9164041
  98.0735302  30.6276731  45.9872573  99.0321822  30.1679259  47.0649842
 101.5624757  20.8699952  53.8144670 101.9174144  21.0971425  54.6739136
 102.2096888  21.2018329  53.1921926 107.2922493  23.9918388  44.5193999
 107.1540392  24.1819984  43.5915189 106.9358712  24.7537771  44.9762050
  95.4564620  17.9776483  50.5991011  96.0963999  17.8365242  49.9013975
  94.6242150  17.6910996  50.2229613 107.3191873  26.0594915  49.5305271
 107.7528380  25.9670204  50.3788325 108.0323454  26.0352415  48.8925287
  96.2324924  27.2778913  46.7126004  97.0265522  26.7829233  46.5108579
  95.5216616  26.7496776  46.3493709 101.0519768  29.6597009  51.0638371
 101.1056790  30.2287945  51.8316087 100.1834549  29.8298894  50.6992409
  92.5407687  21.4221995  42.7885756  91.6105275  21.3606451  43.0055719
  92.6365159  20.8997948  41.9922398  92.4593236  17.9476808  45.3763998
  92.7200053  18.8622141  45.2673159  93.2810408  17.4801250  45.5260611
  93.9318161  19.3614565  52.5462823  94.6041215  19.1531927  51.8975472
  93.1047948  19.1636651  52.1068055 108.1807423  26.1018615  52.0638156
 108.3743313  27.0064426  52.3097431 108.0808041  25.6426034  52.8976741
  99.8343733  15.9876506  54.5628484  99.1871648  16.6866456  54.4692960
 100.6044749  16.4212650  54.9304732 103.2422531  26.2525358  57.6379037
 103.0908038  26.0235910  56.7209121 103.2327211  27.2095960  57.6510382
 100.0107868  23.8257271  52.6225303 100.9399928  23.9768430  52.4494271
  99.5898898  23.9141292  51.7673950  98.8096200  27.8507935  50.3923841
  98.6707285  27.4826720  51.2649779  98.0210796  28.3655575  50.2207799
  99.4044351  32.9517032  41.7349377  99.5796107  32.4805075  42.5495000
  98.7177140  33.5782798  41.9630638 100.3601415  27.2289538  47.7812679
 100.0251247  27.1890308  48.6770329  99.8605360  26.5634254  47.3083089
  94.3345659  22.6357168  53.3065260  94.1965457  21.9037407  53.9076799
  95.2450582  22.5466068  53.0249448 103.2960606  24.5745572  38.0549738
 102.6789777  23.8492400  37.9582791 102.8277095  25.3354933  37.7116813
  96.9627959  22.3477127  52.7948939  97.6727578  21.7070320  52.7535558
  96.9197267  22.5990022  53.7175120 104.9514738  29.2844481  55.7155519
 104.8927284  28.6003701  55.0486102 105.3534256  30.0263471  55.2636145
  95.6756893  19.3342345  54.6144579  95.1394250  18.8833084  55.2666175
  95.0873602  19.4688254  53.8715043  95.0859152  18.7930997  37.1771043
  94.2088619  18.6719797  36.8133289  95.5616905  18.0017075  36.9249931
 104.9532145  27.2484065  53.9469498 104.0658924  26.9109986  54.0695897
 105.5230696  26.5167096  54.1838264  86.6061292  23.5808156  47.2712550
  87.2932332  23.2669886  46.6833565  86.4509421  24.4849521  46.9979801
  91.4096014  18.4698353  51.6997573  91.3254203  17.8624022  50.9647983
  90.5878721  18.9607371  51.7007070  98.4833299  31.9085517  50.9130742
  98.4103470  32.7140488  51.4250046  98.0410692  32.1077483  50.0878763
  98.2723078  31.1457287  44.4233563  97.4890600  31.6878967  44.5171788
  98.9715823  31.6631267  44.8227804 101.5819728  16.9551916  47.0667769
 102.0788428  16.2021879  46.7468839 100.8106710  16.9916233  46.5010978
 109.4349486  22.6592282  48.7086060 109.4239362  23.5416997  48.3379993
 108.5666865  22.3063833  48.5140597 100.9431982  31.8072351  53.0688900
 101.6559954  32.4419816  52.9964802 100.4522011  31.9036217  52.2528902
 102.6649509  25.7123604  44.6406192 101.7305788  25.8325066  44.4710896
 102.8426178  24.8096070  44.3766202  98.1654697  19.0969299  46.7939453
  97.7952485  18.5440340  47.4820359  98.6613790  18.4927433  46.2414453
 106.0522060  21.5540923  45.1756226 106.5182513  22.3868915  45.1016529
 106.5029561  21.0885905  45.8801485  95.9943896  29.5566794  53.8894471
  96.6953355  30.1903277  54.0423865  95.5239011  29.8981526  53.1290110
 104.1198292  27.8984744  42.1742378 104.3958135  27.7841339  43.0836252
 103.2502790  27.5002229  42.1354551 104.0238723  13.9221510  49.2147127
 103.1101803  14.1525737  49.3829334 104.4531825  14.0059954  50.0661160
 103.7945182  22.1111402  51.7147021 103.1416632  22.3587309  51.0599474
 104.1725562  21.2975540  51.3809499 100.7552356  32.1471095  45.8175192
 100.9374750  31.3292751  46.2802944 101.5785342  32.3638787  45.3800082
 101.0894521  31.0739280  43.0790240 101.6182287  30.5631735  42.4660402
 101.3522741  30.7581810  43.9435773  99.8432755  22.8531213  58.2013058
  99.1673392  22.7525342  58.8715434 100.6660389  22.6970427  58.6649056
  91.5911614  29.0903149  50.8225574  92.1765051  28.3446837  50.9553478
  91.3936452  29.4007106  51.7062238  86.1829268  21.6608750  49.5430017
  86.2213368  21.1272340  50.3367135  85.6769561  21.1343955  48.9240994
  98.5855538  34.1598140  52.4370674  99.1373846  34.3229762  53.2019760
  98.9261731  34.7502578  51.7650699  93.5620031  16.5073290  53.0392559
  93.6261357  17.3688121  52.6269957  93.4987151  15.8947292  52.3064918
  93.0372303  18.5796423  56.6865593  93.6644342  18.1973500  57.3003118
  92.1800222  18.3610625  57.0521286 103.4366412  28.9859398  58.2919329
 103.9806316  29.5989356  57.7974284 102.8553257  29.5438976  58.8086342
  89.8137846  20.3872852  42.6183948  90.1091287  19.4783530  42.5651002
  88.9125882  20.3660591  42.2964951 101.7223925  32.1080116  49.4234357
 101.5975064  31.3069856  48.9145302 102.3803016  32.6026309  48.9348327
  93.3432093  18.4628848  48.6011497  92.6218679  19.0764816  48.4618970
  94.1325349  18.9986613  48.5228143 103.7858833  29.9089136  51.0513907
 102.8389169  29.7894487  50.9792233 104.1341606  29.0211634  51.1340168
  96.1458407  15.7983275  54.8752149  96.6692808  16.0445571  55.6378458
  95.9270740  16.6303310  54.4555286  91.5425688  18.0686950  42.7423273
  91.2138394  17.1884328  42.5598379  91.8965058  18.0134618  43.6299663
 100.7905267  29.7041852  47.2518259 100.6430229  28.7758560  47.4325829
 101.6158760  29.7261943  46.7675334  94.6567511  18.3559919  43.1098751
  94.9963583  18.8845841  42.3877359  95.1039631  18.6940325  43.8857318
 104.3939388  30.5270411  48.3383132 105.3185936  30.3213272  48.2007583
 104.2254692  30.2786812  49.2472473  97.3510952  16.7396970  52.5601819
  97.0107772  15.9404783  52.9622499  96.6449958  17.0398681  51.9878652
  98.0027423  13.8246282  51.0129142  98.8253493  13.3506761  50.8908033
  98.2465487  14.6036766  51.5127828  96.6435658  16.8534541  41.3092044
  97.3644020  17.2315794  40.8055761  96.0200962  17.5723418  41.4127022
 100.7866781  17.5579690  42.2450376 101.0030395  18.4404328  41.9439204
 100.3060848  17.1665903  41.5156018  95.5266002  20.5165403  48.8221121
  95.3810583  20.8305706  49.7145402  95.0491206  21.1350303  48.2692019
  97.3862385  17.5067951  48.8702010  97.3723954  16.6109044  48.5334308
  98.1034813  17.5138615  49.5040296  99.2388516  17.9405291  50.9155138
  98.9806294  18.8622362  50.9139468  98.7073556  17.5435726  51.6055602
 104.1834705  31.0456078  43.6945223 104.3571582  30.4802501  42.9419076
 104.6763596  31.8456973  43.5124713  90.0011664  23.0570747  51.7608782
  89.4565132  23.8330555  51.8929056  90.8791014  23.4041552  51.6027903
  96.7899281  16.3882331  44.1389580  96.9115192  15.4598978  44.3380468
  96.5001323  16.4021017  43.2267896  99.6590471  14.0737242  47.2756300
  99.6812168  14.1376575  46.3208280 100.0758530  13.2341750  47.4696806
 110.0374096  23.8092501  45.3135523 110.4805242  23.0599827  44.9154646
 109.1600606  23.8002638  44.9309255 105.1709877  30.3622843  40.7942121
 105.8660782  30.9829535  41.0129436 105.5133027  29.5118194  41.0694499
  90.7877686  22.1840644  54.6538939  90.0459422  22.3323279  55.2403569
  90.4670431  22.4448909  53.7905688 107.0701300  27.8122548  42.3229452
 107.5952624  28.1509821  41.5978772 106.9823653  26.8769564  42.1392587
  98.7321349  31.7256622  54.4519329  99.0408475  31.4805769  55.3242028
  99.5296831  31.9303260  53.9638199  98.7541961  33.8794532  46.6824705
  98.3146951  33.3870910  47.3757562  99.5050078  33.3367499  46.4416781
  96.2015833  29.4232541  48.7547007  95.5795842  28.7603246  48.4549235
  96.8720700  29.4493673  48.0720655  89.4342905  27.9892399  47.6438267
  88.5974813  27.5614573  47.4622268  89.4066550  28.1824842  48.5809058
  96.2740361  17.9014329  58.3479513  96.3228516  18.7776452  57.9657283
  96.8162875  17.3591722  57.7751156 106.7595206  28.4455452  57.6280650
 105.9690750  28.4279591  57.0885150 106.5228561  28.9843746  58.3829687
 106.8793081  25.2947918  54.9413379 106.9291086  25.1297926  55.8828901
 106.7707005  24.4275177  54.5511259  95.7629340  27.9736464  42.2305468
  95.9117460  28.6571928  41.5772140  96.5695783  27.9541554  42.7454923
 104.1696844  21.2778846  56.2572685 105.0706706  21.1385311  55.9656683
 104.2444818  21.4433301  57.1970863  98.5039649  18.6545701  55.1025872
  97.6342958  18.9479267  54.8308460  98.7399129  19.2386146  55.8233135
 108.3811278  27.7144860  55.1855400 108.0896086  28.0774840  56.0218861
 107.7683409  27.0011868  55.0068732 109.5806960  25.2797740  47.7057970
 110.4153852  25.7187544  47.8695531 109.7166089  24.8036393  46.8866216
 106.6298466  22.8377474  53.6535458 107.1052588  23.0305121  52.8454310
 105.7064032  22.8936660  53.4078842  93.5181973  24.0001642  43.2366537
  93.2728015  23.0963972  43.4346747  93.6877888  24.0018792  42.2946015
 101.2078683  14.8725318  52.6191292 101.7260627  15.6086345  52.2937781
 100.8533816  15.1789311  53.4538051  92.7877620  19.7329999  40.7352698
  92.0946865  19.8074354  40.0792734  92.5429372  18.9690343  41.2574215
  99.2624746  30.4684594  39.7017215  98.6898713  31.0874782  39.2487687
  99.8357539  31.0183956  40.2357137 105.3300135  19.7143235  51.8863764
 106.2817558  19.8141332  51.9075988 105.1603586  18.9221503  52.3961848
 103.3514515  16.7998818  52.0723165 102.7564447  17.0803831  51.3769653
 103.0664212  17.2892719  52.8439906 102.4822005  30.7521745  40.8325797
 103.4152678  30.6867306  41.0358673 102.3945218  31.5878011  40.3740330
 105.1110022  30.0687615  37.7929745 105.0323653  29.7347479  38.6865503
 105.9319689  30.5609383  37.7921217 107.8088213  22.9349354  51.0006063
 107.7764533  21.9965355  51.1865747 108.4188837  23.0133391  50.2671888
  99.6471544  21.8045407  37.0433268 100.5930649  21.6751615  37.1121686
  99.2685789  21.0660069  37.5202696 107.9582702  19.7260398  51.0464347
 107.4421750  18.9418854  50.8594276 108.8422650  19.3979114  51.2110866
 105.6193429  13.4701413  47.0060159 105.4218250  13.1616501  47.8903491
 106.2293134  14.1963052  47.1358089 113.6264763  23.9965361  50.1412100
 114.3568151  23.7350649  50.7019804 113.0171708  23.2594083  50.1814168
 111.7080060  22.1373224  50.7386551 110.9813224  22.0029189  50.1303043
 111.2927347  22.4450052  51.5443270  99.5310237  25.8563153  58.5033925
 100.4513246  26.0341752  58.6973971  99.4959820  24.9119199  58.3513624
  97.8314461  19.7295384  36.9788153  96.9245917  19.4328496  37.0550866
  98.1090442  19.4325202  36.1122439  88.7492402  21.0501747  47.4287199
  88.4295186  20.1967055  47.1361573  88.2025830  21.2650325  48.1845166
  92.5272309  23.7664188  51.1456706  92.7458319  24.6981296  51.1644739
  92.9398083  23.4072162  51.9311509  99.4476527  14.2732273  43.1332394
  98.6377255  13.9279358  43.5087640 100.1360944  13.9639817  43.7220006
 101.3767075  13.3510320  44.7556691 101.9298114  13.7705774  45.4146714
 101.6137162  12.4246068  44.7979647  97.4000174  19.3397394  60.5359455
  97.2996901  20.2891751  60.4671546  97.1821716  19.0115633  59.6635525
  96.6013246  16.5882319  37.1200132  97.4632410  16.9137217  37.3795949
  96.7863590  15.8013815  36.6073198  88.6180662  24.6704659  49.3980321
  87.9244133  24.2558611  48.8850275  89.3653653  24.7125195  48.8013740
 104.7545882  15.4610845  44.2635355 104.1744551  16.1195649  43.8813407
 104.4881815  14.6388190  43.8522772 103.2049449  14.8615903  46.4656675
 103.7049227  14.9732438  45.6570994 103.8485057  14.5576956  47.1057484
  97.2631444  22.7694533  59.3524516  96.7798526  23.5694893  59.5588405
  97.3492384  22.7802478  58.3991960  90.5317404  24.6022912  47.2746336
  90.5088092  24.7010600  46.3228219  90.8418041  25.4488063  47.5963502
  93.1904782  26.6599067  51.3892950  94.1448035  26.6283010  51.3222882
  92.9917306  26.1989691  52.2043176  93.7804164  25.2300183  53.9563748
  94.5997053  25.7244262  53.9798585  94.0540972  24.3132152  53.9281315
 103.5370760  17.6210936  43.3191703 102.6496615  17.9060586  43.1011898
 103.9524749  17.4604699  42.4718980 106.8885296  17.6457457  47.0346042
 107.6645687  18.1353909  47.3070659 106.1633431  18.0715511  47.4917912
 109.3257855  18.3585076  48.0919983 109.9202346  18.1180812  47.3813291
 109.3984439  17.6392206  48.7193519 102.6813974  27.3855610  37.4139723
 103.3849824  27.5905613  38.0297379 101.9576623  27.9532372  37.6788807
 103.5111784  23.1365472  43.5341993 103.4546985  23.5934023  42.6949626
 104.0640126  22.3756156  43.3564836 107.3216590  18.9255203  44.3592113
 107.0653524  18.5251839  45.1900321 106.6969458  19.6398997  44.2342252
 111.6328928  21.6651277  46.8663404 111.0728486  21.7344466  47.6394966
 111.0272431  21.4892261  46.1462901 104.5900671  27.8238140  39.4638183
 105.4246275  27.3919338  39.2815658 104.4285014  27.6520153  40.3915078
 104.2446563  24.3270253  40.8294523 104.1895367  24.1614524  39.8882967
 103.6192619  25.0346286  40.9856712  89.0339078  19.5638317  54.6555945
  89.6797942  19.0537271  55.1443170  88.8256229  20.3006999  55.2299370
 101.5592471  26.6319165  60.1548085 102.4283630  26.8059817  59.7934720
 101.0799222  27.4513582  60.0323815  97.5542689  13.8278362  40.4079841
  97.5421359  14.7720202  40.5648112  98.4466111  13.6448507  40.1139302
  97.4832253  32.5047252  48.4947598  96.5327884  32.5049114  48.3811970
  97.7864739  31.7579987  47.9783632  93.3736569  16.7105934  58.7530959
  94.2368031  16.3542739  58.9634284  92.8001980  16.3719829  59.4406363
 113.2184946  38.3407791  49.5593360 113.8563356  38.2214538  48.8556700
 113.1005789  39.2888635  49.6181312 110.0274653  38.2935219  49.4954885
 109.6893164  38.1776283  48.6075420 110.8964421  37.8926384  49.4755891
 105.8861468  40.1470695  45.4851776 105.3226333  40.0560632  44.7168063
 105.7713863  39.3270600  45.9654268 110.5094436  39.4470071  55.4541090
 110.4983076  39.0522869  54.5821594 110.6715075  38.7136143  56.0474862
 103.4325900  41.6421887  48.3235996 104.2247192  41.3012711  47.9082295
 103.6722550  41.7516862  49.2438149 111.4661027  43.8141663  40.7966241
 110.8149007  44.3995743  40.4100254 112.2605390  44.3447858  40.8561278
 105.3916654  40.9030800  41.1953375 106.1647530  40.3559787  41.0566251
 105.7442053  41.7675049  41.4067836 107.2301697  42.2307182  54.4020274
 106.9391563  43.1352813  54.2866941 107.8658681  42.2723710  55.1164344
 108.1557904  39.6084031  50.9921634 108.7521476  39.3840053  50.2778597
 108.2132875  38.8668776  51.5947082 107.7282932  37.0623466  38.8271825
 107.9808453  36.5404987  38.0655288 106.7907491  36.8989612  38.9298508
 112.7726215  36.0659245  46.6346568 113.5589304  35.6478668  46.2836985
 113.0364919  36.9705337  46.8028216 112.9436292  41.5032095  41.3335225
 112.3082125  41.5766721  42.0456129 112.6133698  42.0925694  40.6554304
 118.1734642  36.0034478  47.5379547 118.9059814  35.4333695  47.7717376
 117.4173998  35.6156078  47.9786052 107.4479221  38.9651572  41.0296200
 107.3315479  38.2896476  41.6977284 107.5581481  38.4783946  40.2128353
 109.7910762  38.4261719  44.7342889 109.4268969  37.8992340  45.4455810
 110.6477877  38.0360188  44.5609374 115.6960062  29.7156052  51.9974155
 115.3643387  30.5851463  51.7735370 115.1005676  29.3992336  52.6768186
 109.4316249  33.4551619  39.7304238 109.5990651  34.3231855  40.0974709
 109.2413418  33.6178901  38.8065527 112.1891582  41.9168598  51.3970068
 111.8892305  42.8193637  51.2885875 111.8442641  41.6500781  52.2491221
 105.6404063  38.3682395  47.4306772 104.7154560  38.2358609  47.6384464
 105.8888476  39.1476614  47.9276715 115.5888726  34.4351138  49.0767505
 114.6805603  34.3666546  48.7826266 115.5376321  34.9123083  49.9049331
 109.4105469  35.9109276  40.7150904 109.2905095  36.3566327  41.5536385
 108.7158058  36.2594594  40.1564442 103.0012874  38.0115668  48.2650561
 103.1305255  38.2650147  49.1789973 102.3210326  38.6043376  47.9455216
 107.1712362  48.6812918  44.3641036 107.0936391  49.6320743  44.4429516
 106.5674005  48.3358791  45.0215962 109.6629591  35.8540784  57.0202402
 108.8862925  36.4134704  57.0105267 110.3020154  36.3397567  57.5417273
 117.4550372  32.6367576  50.8545379 116.8124752  32.9300110  50.2085174
 116.9505300  32.5220497  51.6598576 115.1090536  36.3830750  41.5431238
 116.0208392  36.6158136  41.3678936 114.6000183  36.9667794  40.9806317
 107.9175964  38.6626237  56.5820369 108.6590648  39.2011281  56.3055193
 107.2112949  39.2892526  56.7391921 113.3931303  40.8055377  55.1792531
 113.8014659  40.3637788  54.4347163 112.6708565  40.2308005  55.4326724
 109.7462373  35.7427984  52.5526088 110.5923569  36.1667398  52.6960737
 109.6861011  35.0861609  53.2464651 113.7160118  41.3656568  48.9344820
 113.0868980  41.5302282  48.2320888 113.3285780  41.7798178  49.7055784
 117.5949350  42.3011006  46.2889184 116.9100388  42.6809907  45.7386217
 117.6793199  42.9106333  47.0221131 112.8961819  33.4032353  54.2107262
 112.6522751  34.1574413  53.6741537 113.1721749  33.7817700  55.0454509
 114.8500281  39.9470965  52.8884527 115.0617177  40.5902725  52.2118908
 114.8030030  39.1133281  52.4206457 112.4526510  32.5588786  49.7921099
 111.5910989  32.8570039  50.0837837 112.4788945  32.7759184  48.8602132
 109.2688080  41.1030976  46.1994905 109.7326425  41.3818679  45.4099527
 109.0044878  40.2014421  46.0167996 106.1612161  40.6502458  49.1374668
 106.7313518  41.0789726  48.4992153 106.7520273  40.3685042  49.8358854
 108.2056966  37.2254129  43.0084470 108.9081009  37.6775172  43.4758396
 107.8737594  36.5837947  43.6364363 106.6537327  35.8165885  57.3835679
 106.0235988  36.4982166  57.6171076 106.5473415  35.7048967  56.4388818
 101.9482300  35.4837681  48.3101604 101.1581354  35.7395210  47.8341714
 102.4393547  36.2986019  48.4153644 115.9646109  42.8242920  51.0606884
 116.7863553  42.4223108  50.7789566 115.9608512  42.7211155  52.0123000
 103.8997045  35.8482260  45.2685080 103.1028208  35.9600955  45.7868576
 103.6722637  36.1868913  44.4025971 109.7302713  42.3726964  53.2167595
 109.7947145  42.8347371  54.0525767 109.0213637  41.7424329  53.3449905
 100.2320003  35.7368172  50.7416594 100.4828041  36.6215182  51.0074170
 100.7679551  35.5572773  49.9691686 109.4450730  44.0395071  43.0846575
 109.3096405  44.8846607  43.5131423 109.9860543  44.2414349  42.3212509
 105.9318070  30.1186651  59.7460931 105.5385016  29.5652850  60.4208575
 106.7484210  30.4297229  60.1367448 102.8980128  41.5570509  43.6574500
 103.4104648  42.3513759  43.8080065 103.5502841  40.8596800  43.5908102
 104.7075013  44.6736265  45.7397254 104.8841641  45.5954230  45.5518237
 105.5031846  44.3594685  46.1691633 108.8486031  31.5344530  57.3381187
 109.5895744  32.1351683  57.2585650 109.0803954  30.7922168  56.7799230
 103.9927369  36.7200897  55.6159417 103.8780884  35.8186155  55.9166516
 103.1371887  36.9664594  55.2644233 111.0719207  44.6618638  57.2146917
 110.6283061  43.8755016  56.8967822 111.7336420  44.8497788  56.5490808
 105.8306328  46.1914439  51.7407596 106.3813753  46.0631503  50.9684590
 104.9917804  46.4909328  51.3902489 113.1700445  44.9421438  55.2428319
 113.1518920  45.7630319  54.7508588 114.0920365  44.8175513  55.4678460
 109.6273499  42.4565567  56.0851827 110.1601836  41.6953855  55.8551135
 109.0987580  42.1639219  56.8275982 112.7943194  27.5625633  51.6145469
 112.4507463  28.4527275  51.5384579 113.1622157  27.3727291  50.7515054
 100.8629045  39.8859163  44.4334071 101.7004267  40.2956172  44.2167779
 101.0407312  38.9458606  44.4034265 112.7593477  37.5534244  40.1217904
 112.2440100  38.3238849  40.3606291 112.4870785  36.8799380  40.7450965
 110.3440588  32.3983945  45.1803142 109.4882184  32.0090795  45.0008781
 110.7567540  32.4775906  44.3202928 111.8739734  29.9330288  49.5794702
 111.3704530  29.8960423  48.7662507 112.1670341  30.8423031  49.6391359
 108.1182620  30.0169018  48.5860884 108.9835617  29.8211827  48.2266773
 108.1860129  29.7879370  49.5130241 117.7327751  40.3066599  42.0571077
 116.9557194  39.9677758  41.6126239 118.4119232  40.3119222  41.3826042
 112.5479780  35.4261336  41.9477685 112.2429915  35.7407485  42.7987828
 113.5010222  35.5042756  41.9905018 110.9926212  41.5851560  43.5970639
 110.4647573  40.8504319  43.2843876 110.4913714  42.3626236  43.3510607
 115.9719058  39.7800580  48.7137685 115.3142732  40.4699841  48.8017814
 116.7759457  40.1697012  49.0571672 105.7244939  32.2471226  45.9577251
 106.2988691  32.0246407  45.2250444 106.3115922  32.3159920  46.7105852
 114.7824517  38.1344953  46.7641627 115.2956398  38.7674945  47.2663337
 115.4325740  37.5346148  46.3984987 106.0514526  34.2775687  39.9773136
 105.2151839  34.6150373  40.2982411 105.9119296  34.1424667  39.0400273
 108.0267607  29.1212475  44.6852320 107.3732019  28.8061492  44.0608935
 107.9848081  28.4988215  45.4112143 109.1378812  39.4031770  36.6005612
 108.2305874  39.1721023  36.7996761 109.6349844  38.6069389  36.7879594
 112.0446891  48.1129277  39.5202298 111.3708590  48.4160974  40.1287256
 112.4312713  48.9158357  39.1707755 111.2605347  35.6094408  49.0099968
 110.3427909  35.8309355  48.8521656 111.6765491  35.6840719  48.1511675
 112.0440395  37.0085824  44.1402648 112.7912214  37.5207221  43.8309770
 112.3131985  36.6869877  45.0007041 110.3167045  39.5044365  41.1229602
 109.4078265  39.2203397  41.2202072 110.3462129  39.9243443  40.2632909
 115.5486313  43.1150954  44.8920770 115.0948640  42.2741864  44.9485960
 114.9180280  43.7512353  45.2295550 114.4919232  34.0442940  46.1221437
 113.7541989  33.5320326  46.4531680 114.7446006  33.6043322  45.3104714
 113.9919252  44.9527451  45.8270588 114.2842226  45.5132508  45.1082953
 114.5017873  45.2456012  46.5823747 114.5930860  26.8219192  46.7163206
 114.8989736  25.9616556  46.4289122 115.3183464  27.4136812  46.5162200
 100.8855216  37.2249879  45.1044804 100.6879616  36.6319240  44.3795871
 100.3301880  36.9202089  45.8220743 108.8651939  37.1172985  47.2239398
 108.9200549  36.1646822  47.1481874 108.0543141  37.2732424  47.7080696
 110.0143133  41.0453108  38.4617681 109.5762563  40.3288967  38.0023318
 110.7553574  41.2729223  37.9002772 106.8044299  35.7350045  44.9829776
 105.9912165  36.0344216  45.3894969 107.3003294  35.3405734  45.7004259
 108.9552877  45.7307802  46.9164041 108.9129056  45.9568648  45.9872573
 109.8715576  45.4971177  47.0649842 112.4018511  36.1991869  53.8144670
 112.7567899  36.4263343  54.6739136 113.0490642  36.5310246  53.1921926
 118.1316248  39.3210305  44.5193999 117.9934147  39.5111901  43.5915189
 117.7752467  40.0829688  44.9762050 106.2958374  33.3068401  50.5991011
 106.9357753  33.1657160  49.9013975 105.4635905  33.0202914  50.2229613
 118.1585628  41.3886832  49.5305271 118.5922134  41.2962121  50.3788325
 118.8717208  41.3644333  48.8925287 107.0718678  42.6070831  46.7126004
 107.8659277  42.1121151  46.5108579 106.3610370  42.0788694  46.3493709
 111.8913522  44.9888926  51.0638371 111.9450545  45.5579863  51.8316087
 111.0228304  45.1590812  50.6992409 103.3801441  36.7513913  42.7885756
 102.4499030  36.6898368  43.0055719 103.4758913  36.2289865  41.9922398
 103.2986991  33.2768726  45.3763998 103.5593808  34.1914059  45.2673159
 104.1204163  32.8093168  45.5260611 104.7711916  34.6906483  52.5462823
 105.4434969  34.4823845  51.8975472 103.9441702  34.4928569  52.1068055
 119.0201177  41.4310533  52.0638156 119.2137067  42.3356344  52.3097431
 118.9201795  40.9717952  52.8976741 110.6737488  31.3168424  54.5628484
 110.0265403  32.0158373  54.4692960 111.4438503  31.7504568  54.9304732
 114.0816286  41.5817276  57.6379037 113.9301792  41.3527827  56.7209121
 114.0720965  42.5387877  57.6510382 110.8501622  39.1549189  52.6225303
 111.7793682  39.3060348  52.4494271 110.4292652  39.2433209  51.7673950
 109.6489954  43.1799853  50.3923841 109.5101040  42.8118637  51.2649779
 108.8604550  43.6947492  50.2207799 110.2438106  48.2808949  41.7349377
 110.4189862  47.8096993  42.5495000 109.5570894  48.9074716  41.9630638
 111.1995169  42.5581456  47.7812679 110.8645002  42.5182226  48.6770329
 110.6999115  41.8926172  47.3083089 105.1739413  37.9649086  53.3065260
 105.0359211  37.2329325  53.9076799 106.0844337  37.8757986  53.0249448
 114.1354361  39.9037490  38.0549738 113.5183531  39.1784318  37.9582791
 113.6670849  40.6646850  37.7116813 107.8021714  37.6769045  52.7948939
 108.5121332  37.0362237  52.7535558 107.7591022  37.9281940  53.7175120
 115.7908492  44.6136398  55.7155519 115.7321039  43.9295618  55.0486102
 116.1928011  45.3555388  55.2636145 106.5150648  34.6634263  54.6144579
 105.9788005  34.2125001  55.2666175 105.9267356  34.7980172  53.8715043
 104.8099191  51.4298312  48.5089238 105.0495789  52.0616836  49.1868256
 103.9668388  51.0786352  48.7954597 105.9252907  34.1222914  37.1771043
 105.0482373  34.0011715  36.8133289 106.4010660  33.3308993  36.9249931
 115.7925900  42.5775982  53.9469498 114.9052678  42.2401904  54.0695897
 116.3624451  41.8459014  54.1838264  97.4455047  38.9100074  47.2712550
  98.1326087  38.5961804  46.6833565  97.2903176  39.8141439  46.9979801
 102.2489769  33.7990271  51.6997573 102.1647958  33.1915940  50.9647983
 101.4272475  34.2899289  51.7007070 109.3227053  47.2377435  50.9130742
 109.2497225  48.0432406  51.4250046 108.8804446  47.4369400  50.0878763
 109.1116833  46.4749205  44.4233563 108.3284355  47.0170885  44.5171788
 109.8109578  46.9923184  44.8227804 112.4213483  32.2843834  47.0667769
 112.9182182  31.5313796  46.7468839 111.6500464  32.3208151  46.5010978
 120.2743240  37.9884200  48.7086060 120.2633117  38.8708915  48.3379993
 119.4060620  37.6355750  48.5140597 111.7825737  47.1364269  53.0688900
 112.4953709  47.7711733  52.9964802 111.2915765  47.2328135  52.2528902
 113.5043264  41.0415521  44.6406192 112.5699542  41.1616984  44.4710896
 113.6819932  40.1387988  44.3766202 109.0048452  34.4261217  46.7939453
 108.6346239  33.8732257  47.4820359 109.5007544  33.8219351  46.2414453
 116.8915815  36.8832841  45.1756226 117.3576267  37.7160832  45.1016529
 117.3423315  36.4177822  45.8801485 106.8337650  44.8858712  53.8894471
 107.5347110  45.5195195  54.0423865 106.3632765  45.2273444  53.1290110
 114.9592046  43.2276662  42.1742378 115.2351890  43.1133256  43.0836252
 114.0896545  42.8294147  42.1354551 114.8632478  29.2513428  49.2147127
 113.9495557  29.4817654  49.3829334 115.2925579  29.3351872  50.0661160
 114.6338936  37.4403320  51.7147021 113.9810386  37.6879227  51.0599474
 115.0119316  36.6267458  51.3809499 111.5946110  47.4763013  45.8175192
 111.7768505  46.6584669  46.2802944 112.4179096  47.6930705  45.3800082
 111.9288276  46.4031198  43.0790240 112.4576042  45.8923652  42.4660402
 112.1916495  46.0873728  43.9435773 110.6826509  38.1823131  58.2013058
 110.0067146  38.0817260  58.8715434 111.5054143  38.0262344  58.6649056
 102.4305368  44.4195067  50.8225574 103.0158805  43.6738755  50.9553478
 102.2330207  44.7299024  51.7062238 105.2844023  47.4546315  45.8388016
 104.6154399  47.9392442  45.3552056 105.1456893  47.7015535  46.7531395
 109.4249292  49.4890058  52.4370674 109.9767600  49.6521680  53.2019760
 109.7655486  50.0794496  51.7650699 104.4013785  31.8365208  53.0392559
 104.4655112  32.6980039  52.6269957 104.3380906  31.2239210  52.3064918
 103.8766058  33.9088340  56.6865593 104.5038097  33.5265418  57.3003118
 103.0193977  33.6902542  57.0521286 114.2760166  44.3151316  58.2919329
 114.8200070  44.9281274  57.7974284 113.6947011  44.8730894  58.8086342
 100.6531601  35.7164770  42.6183948 100.9485042  34.8075448  42.5651002
  99.7519636  35.6952509  42.2964951 112.5617679  47.4372034  49.4234357
 112.4368819  46.6361773  48.9145302 113.2196770  47.9318227  48.9348327
 104.1825848  33.7920766  48.6011497 103.4612433  34.4056734  48.4618970
 104.9719103  34.3278531  48.5228143 114.6252588  45.2381054  51.0513907
 113.6782923  45.1186405  50.9792233 114.9735361  44.3503552  51.1340168
 106.9852161  31.1275193  54.8752149 107.5086563  31.3737489  55.6378458
 106.7664494  31.9595227  54.4555286 102.3819442  33.3978867  42.7423273
 102.0532148  32.5176246  42.5598379 102.7358813  33.3426536  43.6299663
 111.6299021  45.0333770  47.2518259 111.4823983  44.1050477  47.4325829
 112.4552515  45.0553861  46.7675334 105.4961265  33.6851837  43.1098751
 105.8357338  34.2137758  42.3877359 105.9433386  34.0232243  43.8857318
 115.2333143  45.8562329  48.3383132 116.1579690  45.6505190  48.2007583
 115.0648446  45.6078730  49.2472473 108.1904706  32.0688888  52.5601819
 107.8501526  31.2696701  52.9622499 107.4843712  32.3690599  51.9878652
 108.8421178  29.1538200  51.0129142 109.6647247  28.6798678  50.8908033
 109.0859241  29.9328684  51.5127828 107.4829412  32.1826459  41.3092044
 108.2037775  32.5607711  40.8055761 106.8594717  32.9015335  41.4127022
 111.6260535  32.8871608  42.2450376 111.8424150  33.7696245  41.9439204
 111.1454602  32.4957821  41.5156018 106.3659757  35.8457321  48.8221121
 106.2204337  36.1597624  49.7145402 105.8884960  36.4642221  48.2692019
 108.2256140  32.8359869  48.8702010 108.2117708  31.9400962  48.5334308
 108.9428568  32.8430533  49.5040296 110.0782270  33.2697209  50.9155138
 109.8200048  34.1914280  50.9139468 109.5467311  32.8727644  51.6055602
 115.0228459  46.3747996  43.6945223 115.1965337  45.8094419  42.9419076
 115.5157350  47.1748891  43.5124713 100.8405419  38.3862665  51.7608782
 100.2958887  39.1622473  51.8929056 101.7184769  38.7333470  51.6027903
 107.6293036  31.7174249  44.1389580 107.7508947  30.7890895  44.3380468
 107.3395078  31.7312935  43.2267896 110.4984226  29.4029159  47.2756300
 110.5205923  29.4668493  46.3208280 110.9152285  28.5633668  47.4696806
 120.8767850  39.1384419  45.3135523 121.3198996  38.3891744  44.9154646
 119.9994361  39.1294555  44.9309255 116.0103632  45.6914760  40.7942121
 116.7054536  46.3121453  41.0129436 116.3526782  44.8410112  41.0694499
 101.6271441  37.5132561  54.6538939 100.8853177  37.6615197  55.2403569
 101.3064185  37.7740827  53.7905688 117.9095055  43.1414466  42.3229452
 118.4346379  43.4801739  41.5978772 117.8217407  42.2061481  42.1392587
 109.5715103  47.0548540  54.4519329 109.8802230  46.8097686  55.3242028
 110.3690585  47.2595178  53.9638199 109.5935715  49.2086449  46.6824705
 109.1540706  48.7162828  47.3757562 110.3443832  48.6659417  46.4416781
 102.0728054  45.3997990  46.6849333 102.8986074  45.1001762  46.3047977
 101.7222106  44.6305613  47.1339122 107.0409588  44.7524458  48.7547007
 106.4189597  44.0895163  48.4549235 107.7114454  44.7785590  48.0720655
 100.2736659  43.3184317  47.6438267  99.4368568  42.8906491  47.4622268
 100.2460305  43.5116760  48.5809058 107.1134115  33.2306246  58.3479513
 107.1622271  34.1068369  57.9657283 107.6556629  32.6883639  57.7751156
 117.5988961  43.7747370  57.6280650 116.8084504  43.7571509  57.0885150
 117.3622315  44.3135663  58.3829687 117.7186836  40.6239836  54.9413379
 117.7684841  40.4589843  55.8828901 117.6100759  39.7567095  54.5511259
 106.6023094  43.3028382  42.2305468 106.7511215  43.9863846  41.5772140
 107.4089538  43.2833472  42.7454923 115.0090598  36.6070764  56.2572685
 115.9100461  36.4677229  55.9656683 115.0838573  36.7725219  57.1970863
 109.3433403  33.9837619  55.1025872 108.4736713  34.2771185  54.8308460
 109.5792884  34.5678064  55.8233135 119.2205033  43.0436778  55.1855400
 118.9289841  43.4066758  56.0218861 118.6077164  42.3303786  55.0068732
 120.4200715  40.6089657  47.7057970 121.2547606  41.0479461  47.8695531
 120.5559844  40.1328311  46.8866216 117.4692221  38.1669392  53.6535458
 117.9446342  38.3597038  52.8454310 116.5457786  38.2228578  53.4078842
 104.3575727  39.3293559  43.2366537 104.1121769  38.4255889  43.4346747
 104.5271642  39.3310710  42.2946015 112.0472437  30.2017236  52.6191292
 112.5654381  30.9378263  52.2937781 111.6927570  30.5081229  53.4538051
 103.6271375  35.0621917  40.7352698 102.9340620  35.1366272  40.0792734
 103.3823127  34.2982261  41.2574215 112.2985031  26.6217518  48.1392189
 112.5786785  25.9540707  48.7652615 113.0835638  26.8146614  47.6266853
 110.1018500  45.7976512  39.7017215 109.5292467  46.4166699  39.2487687
 110.6751294  46.3475874  40.2357137 116.1693890  35.0435152  51.8863764
 117.1211313  35.1433250  51.9075988 115.9997340  34.2513421  52.3961848
 114.1908269  32.1290735  52.0723165 113.5958201  32.4095748  51.3769653
 113.9057966  32.6184636  52.8439906 113.3215760  46.0813662  40.8325797
 114.2546433  46.0159224  41.0358673 113.2338973  46.9169929  40.3740330
 115.9503776  45.3979533  37.7929745 115.8717408  45.0639396  38.6865503
 116.7713443  45.8901301  37.7921217 118.6481968  38.2641272  51.0006063
 118.6158288  37.3257273  51.1865747 119.2582591  38.3425309  50.2671888
 110.4865298  37.1337325  37.0433268 111.4324403  37.0043533  37.1121686
 110.1079543  36.3951987  37.5202696 118.7976456  35.0552315  51.0464347
 118.2815505  34.2710772  50.8594276 119.6816405  34.7271032  51.2110866
 116.4587183  28.7993331  47.0060159 116.2612004  28.4908419  47.8903491
 117.0686889  29.5254970  47.1358089 110.3703991  41.1855071  58.5033925
 111.2907000  41.3633670  58.6973971 110.3353574  40.2411116  58.3513624
 108.6708216  35.0587301  36.9788153 107.7639671  34.7620414  37.0550866
 108.9484197  34.7617119  36.1122439  99.5886156  36.3793665  47.4287199
  99.2688940  35.5258973  47.1361573  99.0419584  36.5942243  48.1845166
 103.3666064  39.0956106  51.1456706 103.5852073  40.0273214  51.1644739
 103.7791837  38.7364080  51.9311509 110.2870281  29.6024191  43.1332394
 109.4771010  29.2571276  43.5087640 110.9754698  29.2931735  43.7220006
 112.2160830  28.6802238  44.7556691 112.7691868  29.0997691  45.4146714
 112.4530916  27.7537986  44.7979647 108.2393929  34.6689311  60.5359455
 108.1390656  35.6183668  60.4671546 108.0215471  34.3407550  59.6635525
 107.4407000  31.9174237  37.1200132 108.3026164  32.2429135  37.3795949
 107.6257344  31.1305732  36.6073198  99.4574416  39.9996576  49.3980321
  98.7637887  39.5850529  48.8850275 100.2047407  40.0417113  48.8013740
 115.5939637  30.7902763  44.2635355 115.0138306  31.4487567  43.8813407
 115.3275569  29.9680108  43.8522772 114.0443203  30.1907821  46.4656675
 114.5442981  30.3024355  45.6570994 114.6878811  29.8868874  47.1057484
 108.1025199  38.0986450  59.3524516 107.6192281  38.8986810  59.5588405
 108.1886138  38.1094395  58.3991960 101.3711159  39.9314830  47.2746336
 101.3481847  40.0302517  46.3228219 101.6811795  40.7779981  47.5963502
 104.0298536  41.9890985  51.3892950 104.9841790  41.9574927  51.3222882
 103.8311060  41.5281609  52.2043176 104.6197919  40.5592101  53.9563748
 105.4390808  41.0536180  53.9798585 104.8934726  39.6424069  53.9281315
 114.3764515  32.9502853  43.3191703 113.4890370  33.2352504  43.1011898
 114.7918504  32.7896617  42.4718980 117.7279051  32.9749374  47.0346042
 118.5039441  33.4645827  47.3070659 117.0027185  33.4007429  47.4917912
 120.1651610  33.6876994  48.0919983 120.7596100  33.4472730  47.3813291
 120.2378193  32.9684124  48.7193519 102.3848765  47.5310605  48.4063148
 102.2503233  46.7711005  47.8401146 101.9680827  48.2551504  47.9391937
 113.5207728  42.7147528  37.4139723 114.2243578  42.9197531  38.0297379
 112.7970377  43.2824290  37.6788807 114.3505539  38.4657389  43.5341993
 114.2940740  38.9225941  42.6949626 114.9033881  37.7048074  43.3564836
 118.1610344  34.2547121  44.3592113 117.9047279  33.8543757  45.1900321
 117.5363212  34.9690915  44.2342252 122.4722682  36.9943194  46.8663404
 121.9122240  37.0636384  47.6394966 121.8666186  36.8184179  46.1462901
 105.5417891  48.4279922  48.6181591 105.4250275  49.3725354  48.5160281
 104.7210337  48.1253483  49.0067390 115.4294426  43.1530057  39.4638183
 116.2640030  42.7211256  39.2815658 115.2678769  42.9812071  40.3915078
 115.0840318  39.6562171  40.8294523 115.0289122  39.4906442  39.8882967
 114.4586373  40.3638203  40.9856712  99.8732833  34.8930235  54.6555945
 100.5191696  34.3829189  55.1443170  99.6649984  35.6298917  55.2299370
 112.3986225  41.9611082  60.1548085 113.2677385  42.1351735  59.7934720
 111.9192976  42.7805499  60.0323815 108.3936443  29.1570280  40.4079841
 108.3815113  30.1012119  40.5648112 109.2859865  28.9740425  40.1139302
 106.5672405  49.0808183  51.8337519 107.4699652  49.1131794  52.1504014
 106.3409775  48.1508634  51.8483855 108.3226007  47.8339170  48.4947598
 107.3721638  47.8341032  48.3811970 108.6258493  47.0871905  47.9783632
 112.2088563  25.7513056  44.6625778 111.4420959  25.1971543  44.8082460
 112.6199268  25.8234925  45.5239929 104.2130324  32.0397852  58.7530959
 105.0761785  31.6834657  58.9634284 103.6395734  31.7011747  59.4406363
 120.8668407  53.6227136  49.4954885 120.5286919  53.5068201  48.6075420
 121.7358175  53.2218302  49.4755891 116.7255223  55.4762613  45.4851776
 116.1620088  55.3852550  44.7168063 116.6107618  54.6562517  45.9654268
 121.3488190  54.7761988  55.4541090 121.3376831  54.3814786  54.5821594
 121.5108829  54.0428061  56.0474862 114.2719655  56.9713804  48.3235996
 115.0640947  56.6304629  47.9082295 114.5116305  57.0808780  49.2438149
 116.2310409  56.2322718  41.1953375 117.0041285  55.6851705  41.0566251
 116.5835807  57.0966967  41.4067836 118.0695451  57.5599100  54.4020274
 117.7785317  58.4644731  54.2866941 118.7052436  57.6015628  55.1164344
 118.9951658  54.9375949  50.9921634 119.5915230  54.7131971  50.2778597
 119.0526630  54.1960694  51.5947082 118.5676686  52.3915384  38.8271825
 118.8202207  51.8696905  38.0655288 117.6301245  52.2281529  38.9298508
 118.2872975  54.2943490  41.0296200 118.1709233  53.6188393  41.6977284
 118.3975235  53.8075864  40.2128353 120.6304516  53.7553637  44.7342889
 120.2662723  53.2284258  45.4455810 121.4871632  53.3652106  44.5609374
 120.2710003  48.7843537  39.7304238 120.4384405  49.6523773  40.0974709
 120.0807172  48.9470818  38.8065527 116.4797818  53.6974312  47.4306772
 115.5548314  53.5650526  47.6384464 116.7282231  54.4768532  47.9276715
 120.2499224  51.2401194  40.7150904 120.1298849  51.6858245  41.5536385
 119.5551812  51.5886512  40.1564442 113.8406629  53.3407586  48.2650561
 113.9699010  53.5942065  49.1789973 113.1604080  53.9335294  47.9455216
 118.0106116  64.0104836  44.3641036 117.9330146  64.9612661  44.4429516
 117.4067760  63.6650708  45.0215962 120.5023346  51.1832701  57.0202402
 119.7256680  51.7426621  57.0105267 121.1413909  51.6689484  57.5417273
 118.7569718  53.9918155  56.5820369 119.4984402  54.5303199  56.3055193
 118.0506704  54.6184443  56.7391921 120.5856128  51.0719902  52.5526088
 121.4317323  51.4959315  52.6960737 120.5254765  50.4153526  53.2464651
 120.1081834  56.4322894  46.1994905 120.5720180  56.7110597  45.4099527
 119.8438632  55.5306338  46.0167996 117.0005915  55.9794375  49.1374668
 117.5707272  56.4081644  48.4992153 117.5914027  55.6976960  49.8358854
 119.0450720  52.5546046  43.0084470 119.7474764  53.0067090  43.4758396
 118.7131349  51.9129865  43.6364363 117.4931082  51.1457803  57.3835679
 116.8629742  51.8274084  57.6171076 117.3867170  51.0340884  56.4388818
 112.7876054  50.8129599  48.3101604 111.9975108  51.0687127  47.8341714
 113.2787302  51.6277937  48.4153644 114.7390800  51.1774178  45.2685080
 113.9421963  51.2892872  45.7868576 114.5116392  51.5160830  44.4025971
 120.5696467  57.7018881  53.2167595 120.6340900  58.1639289  54.0525767
 119.8607391  57.0716246  53.3449905 111.0713757  51.0660089  50.7416594
 111.3221796  51.9507099  51.0074170 111.6073306  50.8864691  49.9691686
 120.2844485  59.3686989  43.0846575 120.1490160  60.2138525  43.5131423
 120.8254297  59.5706266  42.3212509 116.7711825  45.4478569  59.7460931
 116.3778770  44.8944767  60.4208575 117.5877965  45.7589147  60.1367448
 113.7373882  56.8862427  43.6574500 114.2498403  57.6805677  43.8080065
 114.3896595  56.1888717  43.5908102 115.5468767  60.0028183  45.7397254
 115.7235395  60.9246148  45.5518237 116.3425601  59.6886602  46.1691633
 119.6879786  46.8636448  57.3381187 120.4289499  47.4643601  57.2585650
 119.9197708  46.1214086  56.7799230 114.8321124  52.0492815  55.6159417
 114.7174639  51.1478072  55.9166516 113.9765641  52.2956512  55.2644233
 116.6700083  61.5206357  51.7407596 117.2207508  61.3923420  50.9684590
 115.8311558  61.8201246  51.3902489 120.4667254  57.7857485  56.0851827
 120.9995590  57.0245773  55.8551135 119.9381335  57.4931137  56.8275982
 111.7022799  55.2151081  44.4334071 112.5398021  55.6248090  44.2167779
 111.8801067  54.2750523  44.4034265 121.1834342  47.7275863  45.1803142
 120.3275939  47.3382713  45.0008781 121.5961294  47.8067823  44.3202928
 118.9576375  45.3460936  48.5860884 119.8229372  45.1503744  48.2266773
 119.0253884  45.1171287  49.5130241 121.8319966  56.9143477  43.5970639
 121.3041328  56.1796237  43.2843876 121.3307469  57.6918154  43.3510607
 116.5638694  47.5763144  45.9577251 117.1382446  47.3538325  45.2250444
 117.1509676  47.6451838  46.7105852 116.8908281  49.6067605  39.9773136
 116.0545593  49.9442291  40.2982411 116.7513051  49.4716584  39.0400273
 118.8661362  44.4504392  44.6852320 118.2125774  44.1353410  44.0608935
 118.8241836  43.8280133  45.4112143 119.9772566  54.7323687  36.6005612
 119.0699628  54.5012941  36.7996761 120.4743598  53.9361307  36.7879594
 121.1560800  54.8336282  41.1229602 120.2472019  54.5495315  41.2202072
 121.1855884  55.2535361  40.2632909 111.7248970  52.5541796  45.1044804
 111.5273370  51.9611157  44.3795871 111.1695634  52.2494007  45.8220743
 119.7045694  52.4464903  47.2239398 119.7594304  51.4938739  47.1481874
 118.8936896  52.6024342  47.7080696 120.8536888  56.3745026  38.4617681
 120.4156318  55.6580885  38.0023318 121.5947329  56.6021141  37.9002772
 117.6438054  51.0641963  44.9829776 116.8305919  51.3636133  45.3894969
 118.1397048  50.6697651  45.7004259 119.7946632  61.0599720  46.9164041
 119.7522811  61.2860566  45.9872573 120.7109331  60.8263094  47.0649842
 117.1352129  48.6360318  50.5991011 117.7751508  48.4949077  49.9013975
 116.3029659  48.3494832  50.2229613 117.9112432  57.9362749  46.7126004
 118.7053031  57.4413069  46.5108579 117.2004125  57.4080612  46.3493709
 114.2195196  52.0805830  42.7885756 113.2892784  52.0190286  43.0055719
 114.3152668  51.5581783  41.9922398 114.1380745  48.6060643  45.3763998
 114.3987562  49.5205976  45.2673159 114.9597917  48.1385086  45.5260611
 115.6105670  50.0198400  52.5462823 116.2828724  49.8115763  51.8975472
 114.7835457  49.8220486  52.1068055 121.5131242  46.6460341  54.5628484
 120.8659157  47.3450291  54.4692960 122.2832258  47.0796485  54.9304732
 120.4883708  58.5091771  50.3923841 120.3494794  58.1410555  51.2649779
 119.6998305  59.0239410  50.2207799 121.0831860  63.6100867  41.7349377
 121.2583616  63.1388910  42.5495000 120.3964648  64.2366633  41.9630638
 122.0388924  57.8873373  47.7812679 121.7038756  57.8474143  48.6770329
 121.5392869  57.2218089  47.3083089 116.0133168  53.2941003  53.3065260
 115.8752966  52.5621242  53.9076799 116.9238091  53.2049903  53.0249448
 118.6415468  53.0060963  52.7948939 119.3515087  52.3654155  52.7535558
 118.5984776  53.2573858  53.7175120 117.3544402  49.9926181  54.6144579
 116.8181759  49.5416919  55.2666175 116.7661111  50.1272089  53.8715043
 115.6492946  66.7590230  48.5089238 115.8889544  67.3908754  49.1868256
 114.8062142  66.4078270  48.7954597 116.7646661  49.4514832  37.1771043
 115.8876128  49.3303633  36.8133289 117.2404414  48.6600910  36.9249931
 108.2848801  54.2391992  47.2712550 108.9719841  53.9253722  46.6833565
 108.1296930  55.1433356  46.9979801 113.0883523  49.1282188  51.6997573
 113.0041712  48.5207858  50.9647983 112.2666230  49.6191207  51.7007070
 120.1620808  62.5669352  50.9130742 120.0890979  63.3724324  51.4250046
 119.7198201  62.7661318  50.0878763 119.9510587  61.8041122  44.4233563
 119.1678109  62.3462803  44.5171788 120.6503332  62.3215102  44.8227804
 119.8442206  49.7553135  46.7939453 119.4739994  49.2024175  47.4820359
 120.3401299  49.1511268  46.2414453 117.6731405  60.2150630  53.8894471
 118.3740864  60.8487113  54.0423865 117.2026520  60.5565361  53.1290110
 121.5220264  53.5115048  58.2013058 120.8460901  53.4109178  58.8715434
 122.3447898  53.3554262  58.6649056 113.2699123  59.7486985  50.8225574
 113.8552560  59.0030673  50.9553478 113.0723961  60.0590942  51.7062238
 116.1237778  62.7838232  45.8388016 115.4548153  63.2684360  45.3552056
 115.9850648  63.0307453  46.7531395 107.8616777  52.3192585  49.5430017
 107.9000877  51.7856176  50.3367135 107.3557070  51.7927791  48.9240994
 120.2643047  64.8181976  52.4370674 120.8161355  64.9813597  53.2019760
 120.6049240  65.4086414  51.7650699 115.2407540  47.1657126  53.0392559
 115.3048866  48.0271956  52.6269957 115.1774660  46.5531127  52.3064918
 114.7159812  49.2380258  56.6865593 115.3431851  48.8557335  57.3003118
 113.8587731  49.0194460  57.0521286 111.4925355  51.0456687  42.6183948
 111.7878796  50.1367366  42.5651002 110.5913391  51.0244427  42.2964951
 115.0219602  49.1212684  48.6011497 114.3006188  49.7348651  48.4618970
 115.8112858  49.6570449  48.5228143 117.8245916  46.4567110  54.8752149
 118.3480317  46.7029407  55.6378458 117.6058249  47.2887145  54.4555286
 113.2213197  48.7270785  42.7423273 112.8925903  47.8468164  42.5598379
 113.5752567  48.6718454  43.6299663 116.3355020  49.0143755  43.1098751
 116.6751092  49.5429676  42.3877359 116.7827140  49.3524161  43.8857318
 119.0298461  47.3980805  52.5601819 118.6895281  46.5988618  52.9622499
 118.3237467  47.6982516  51.9878652 119.6814932  44.4830118  51.0129142
 120.5041002  44.0090596  50.8908033 119.9252996  45.2620602  51.5127828
 118.3223167  47.5118376  41.3092044 119.0431529  47.8899629  40.8055761
 117.6988471  48.2307253  41.4127022 117.2053511  51.1749238  48.8221121
 117.0598092  51.4889542  49.7145402 116.7278715  51.7934139  48.2692019
 119.0649894  48.1651786  48.8702010 119.0511463  47.2692880  48.5334308
 119.7822322  48.1722450  49.5040296 120.9176025  48.5989127  50.9155138
 120.6593803  49.5206197  50.9139468 120.3861065  48.2019561  51.6055602
 111.6799173  53.7154583  51.7608782 111.1352641  54.4914391  51.8929056
 112.5578523  54.0625387  51.6027903 118.4686790  47.0466167  44.1389580
 118.5902701  46.1182813  44.3380468 118.1788832  47.0604853  43.2267896
 121.3377980  44.7321077  47.2756300 121.3599677  44.7960410  46.3208280
 121.7546039  43.8925586  47.4696806 112.4665195  52.8424479  54.6538939
 111.7246931  52.9907114  55.2403569 112.1457939  53.1032745  53.7905688
 120.4108858  62.3840457  54.4519329 120.7195984  62.1389604  55.3242028
 121.2084340  62.5887096  53.9638199 120.4329470  64.5378367  46.6824705
 119.9934460  64.0454746  47.3757562 121.1837587  63.9951335  46.4416781
 112.9121809  60.7289908  46.6849333 113.7379829  60.4293680  46.3047977
 112.5615861  59.9597530  47.1339122 117.8803342  60.0816376  48.7547007
 117.2583351  59.4187081  48.4549235 118.5508209  60.1077508  48.0720655
 111.1130414  58.6476234  47.6438267 110.2762322  58.2198409  47.4622268
 111.0854059  58.8408678  48.5809058 117.9527870  48.5598164  58.3479513
 118.0016025  49.4360287  57.9657283 118.4950384  48.0175557  57.7751156
 117.4416849  58.6320299  42.2305468 117.5904969  59.3155764  41.5772140
 118.2483292  58.6125389  42.7454923 120.1827158  49.3129536  55.1025872
 119.3130467  49.6063103  54.8308460 120.4186638  49.8969981  55.8233135
 115.1969482  54.6585477  43.2366537 114.9515524  53.7547807  43.4346747
 115.3665396  54.6602627  42.2946015 114.4665129  50.3913835  40.7352698
 113.7734374  50.4658190  40.0792734 114.2216881  49.6274178  41.2574215
 120.9412254  61.1268430  39.7017215 120.3686222  61.7458617  39.2487687
 121.5145048  61.6767792  40.2357137 121.3259053  52.4629243  37.0433268
 122.2718158  52.3335451  37.1121686 120.9473298  51.7243905  37.5202696
 121.2097746  56.5146989  58.5033925 122.1300755  56.6925588  58.6973971
 121.1747329  55.5703034  58.3513624 119.5101970  50.3879219  36.9788153
 118.6033426  50.0912332  37.0550866 119.7877951  50.0909037  36.1122439
 110.4279911  51.7085582  47.4287199 110.1082695  50.8550891  47.1361573
 109.8813339  51.9234161  48.1845166 114.2059818  54.4248023  51.1456706
 114.4245828  55.3565131  51.1644739 114.6185592  54.0655998  51.9311509
 121.1264036  44.9316109  43.1332394 120.3164764  44.5863194  43.5087640
 121.8148453  44.6223652  43.7220006 119.0787683  49.9981229  60.5359455
 118.9784410  50.9475586  60.4671546 118.8609225  49.6699468  59.6635525
 118.2800755  47.2466154  37.1200132 119.1419919  47.5721053  37.3795949
 118.4651099  46.4597650  36.6073198 110.2968171  55.3288494  49.3980321
 109.6031642  54.9142447  48.8850275 111.0441162  55.3709030  48.8013740
 118.9418953  53.4278368  59.3524516 118.4586035  54.2278728  59.5588405
 119.0279892  53.4386313  58.3991960 112.2104913  55.2606748  47.2746336
 112.1875601  55.3594435  46.3228219 112.5205550  56.1071898  47.5963502
 114.8692291  57.3182903  51.3892950 115.8235544  57.2866845  51.3222882
 114.6704815  56.8573526  52.2043176 115.4591673  55.8884019  53.9563748
 116.2784562  56.3828097  53.9798585 115.7328481  54.9715987  53.9281315
 113.2242520  62.8602522  48.4063148 113.0896988  62.1002923  47.8401146
 112.8074582  63.5843422  47.9391937 116.3811646  63.7571839  48.6181591
 116.2644030  64.7017272  48.5160281 115.5604092  63.4545401  49.0067390
 110.7126587  50.2222153  54.6555945 111.3585451  49.7121107  55.1443170
 110.5043738  50.9590834  55.2299370 119.2330198  44.4862197  40.4079841
 119.2208868  45.4304037  40.5648112 120.1253620  44.3032343  40.1139302
 117.4066160  64.4100101  51.8337519 118.3093406  64.4423711  52.1504014
 117.1803530  63.4800552  51.8483855 119.1619762  63.1631088  48.4947598
 118.2115393  63.1632949  48.3811970 119.4652248  62.4163822  47.9783632
 115.0524078  47.3689770  58.7530959 115.9155540  47.0126575  58.9634284
 114.4789489  47.0303665  59.4406363 121.9107512  66.3952007  50.7416594
 122.1615550  67.2799017  51.0074170 122.4467060  66.2156609  49.9691686
 119.1242556  69.5683909  47.2712550 119.8113596  69.2545639  46.6833565
 118.9690685  70.4725274  46.9979801 118.7010532  67.6484503  49.5430017
 118.7394631  67.1148093  50.3367135 118.1950825  67.1219708  48.9240994
 121.9524168  73.9768152  47.6438267 121.1156077  73.5490326  47.4622268
 121.9247814  74.1700595  48.5809058 121.2673665  67.0377500  47.4287199
 120.9476449  66.1842808  47.1361573 120.7207093  67.2526078  48.1845166
 121.1361925  70.6580412  49.3980321 120.4425396  70.2434364  48.8850275
 121.8834916  70.7000948  48.8013740 121.5520342  65.5514070  54.6555945
 122.1979205  65.0413024  55.1443170 121.3437493  66.2882752  55.2299370
  96.3318608  10.3583123  31.0886342  96.2542638  11.3090948  31.1674823
  95.7280252  10.0128996  31.7461269  93.9705438  13.1068517  35.2334544
  94.2102036  13.7387041  35.9113563  93.1274635  12.7556557  35.5199903
  94.4450270   9.1316519  32.5633323  93.7760645   9.6162647  32.0797363
  94.3063140   9.3785740  33.4776701  98.5855539  11.1660263  39.1615981
  99.1373847  11.3291884  39.9265066  98.9261732  11.7564701  38.4896006
  98.7541962  10.8856654  33.4070012  98.3146952  10.3933033  34.1002869
  99.5050079  10.3429622  33.1662087  91.5455012   9.2080809  35.1308455
  91.4109480   8.4481210  34.5646453  91.1287074   9.9321709  34.6637243
  94.7024138  10.1050126  35.3426897  94.5856522  11.0495559  35.2405587
  93.8816584   9.8023688  35.7312696  95.7278652  10.7578388  38.5582826
  96.6305899  10.7901999  38.8749321  95.5016022   9.8278839  38.5729161
 110.0274654  15.2997341  36.2200191 109.6893165  15.1838406  35.3320726
 110.8964422  14.8988506  36.2001197 105.8861469  17.1532818  32.2097082
 105.3226335  17.0622755  31.4413370 105.7713865  16.3332722  32.6899575
 110.5094437  16.4532193  42.1786397 110.4983078  16.0584991  41.3066901
 110.6715076  15.7198266  42.7720168 103.4325901  18.6484009  35.0481303
 104.2247193  18.3074834  34.6327602 103.6722552  18.7578984  35.9683456
 111.4661028  20.8203785  27.5211547 110.8149008  21.4057866  27.1345561
 112.2605391  21.3509980  27.5806585 105.3916655  17.9092923  27.9198682
 106.1647531  17.3621910  27.7811557 105.7442054  18.7737172  28.1313143
 107.2301698  19.2369305  41.1265581 106.9391564  20.1414936  41.0112247
 107.8658682  19.2785833  41.8409650 108.1557905  16.6146153  37.7166940
 108.7521477  16.3902176  37.0023903 108.2132876  15.8730899  38.3192388
 107.4479222  15.9713695  27.7541506 107.3315480  15.2958598  28.4222591
 107.5581482  15.4846069  26.9373659 109.7910763  15.4323842  31.4588196
 109.4268970  14.9054463  32.1701117 110.6477879  15.0422311  31.2854681
 112.1891583  18.9230720  38.1215375 111.8892306  19.8255759  38.0131182
 111.8442643  18.6562904  38.9736527 105.6404064  15.3744517  34.1552079
 104.7154561  15.2420731  34.3629771 105.8888478  16.1538737  34.6522021
 103.0012876  15.0177791  34.9895868 103.1305257  15.2712270  35.9035280
 102.3210327  15.6105499  34.6700523 107.1712363  25.6875041  31.0886342
 107.0936392  26.6382866  31.1674823 106.5674006  25.3420913  31.7461269
 107.9175965  15.6688360  43.3065676 108.6590649  16.2073404  43.0300500
 107.2112950  16.2954648  43.4637228 113.3931305  17.8117500  41.9037838
 113.8014661  17.3699911  41.1592470 112.6708566  17.2370128  42.1572031
 113.7160119  18.3718691  35.6590126 113.0868982  18.5364405  34.9566194
 113.3285781  18.7860300  36.4301091 117.5949351  19.3073129  33.0134490
 116.9100389  19.6872030  32.4631524 117.6793200  19.9168455  33.7466438
 114.8500283  16.9533088  39.6129834 115.0617178  17.5964847  38.9364215
 114.8030031  16.1195404  39.1451764 109.2688081  18.1093099  32.9240212
 109.7326427  18.3880802  32.1344834 109.0044879  17.2076543  32.7413302
 106.1612162  17.6564580  35.8619975 106.7313519  18.0851849  35.2237459
 106.7520274  17.3747165  36.5604161 108.2056967  14.2316251  29.7329777
 108.9081010  14.6837295  30.2003703 107.8737596  13.5900070  30.3609670
 106.6537329  12.8228008  44.1080986 106.0235989  13.5044289  44.3416383
 106.5473417  12.7111089  43.1634124 101.9482301  12.4899804  35.0346910
 101.1581355  12.7457332  34.5587021 102.4393548  13.3048142  35.1398951
 115.9646111  19.8305043  37.7852191 116.7863554  19.4285230  37.5034873
 115.9608513  19.7273277  38.7368307 103.8997046  12.8544383  31.9930387
 103.1028210  12.9663077  32.5113883 103.6722639  13.1931035  31.1271278
 109.7302714  19.3789086  39.9412902 109.7947147  19.8409493  40.7771073
 109.0213638  18.7486451  40.0695211 100.2320004  12.7430294  37.4661901
 100.4828042  13.6277304  37.7319477 100.7679552  12.5634896  36.6936993
 109.4450732  21.0457194  29.8091882 109.3096406  21.8908729  30.2376730
 109.9860544  21.2476471  29.0457816 102.8980129  18.5632632  30.3819807
 103.4104650  19.3575882  30.5325372 103.5502842  17.8658922  30.3153408
 104.7075014  21.6798388  32.4642560 104.8841642  22.6016353  32.2763544
 105.5031847  21.3656807  32.8936940 103.9927370  13.7263020  42.3404723
 103.8780885  12.8248277  42.6411822 103.1371888  13.9726717  41.9889540
 111.0719208  21.6680760  43.9392224 110.6283062  20.8817139  43.6213129
 111.7336422  21.8559911  43.2736115 105.8306329  23.1976562  38.4652903
 106.3813754  23.0693625  37.6929896 104.9917805  23.4971451  38.1147795
 113.1700446  21.9483560  41.9673625 113.1518922  22.7692441  41.4753894
 114.0920366  21.8237635  42.1923766 109.6273500  19.4627690  42.8097134
 110.1601837  18.7015978  42.5796442 109.0987581  19.1701341  43.5521288
 100.8629046  16.8921286  31.1579378 101.7004268  17.3018294  30.9413085
 101.0407314  15.9520728  31.1279571 110.9926213  18.5913682  30.3215946
 110.4647575  17.8566442  30.0089183 110.4913716  19.3688358  30.0755914
 115.9719059  16.7862703  35.4382992 115.3142733  17.4761964  35.5263121
 116.7759458  17.1759135  35.7816978 112.0446892  25.1191400  26.2447605
 111.3708591  25.4223096  26.8532563 112.4312714  25.9220480  25.8953062
 115.5486314  20.1213077  31.6166076 115.0948641  19.2803987  31.6731267
 114.9180281  20.7574475  31.9540857 113.9919253  21.9589573  32.5515895
 114.2842228  22.5194631  31.8328260 114.5017874  22.2518134  33.3069054
 100.8855217  14.2312001  31.8290111 100.6879617  13.6381362  31.1041178
 100.3301881  13.9264212  32.5466050 108.9552878  22.7369925  33.6409348
 108.9129057  22.9630771  32.7117880 109.8715577  22.5033299  33.7895149
 118.1585629  18.3948955  36.2550577 118.5922135  18.3024244  37.1033631
 118.8717210  18.3706455  35.6170593 107.0718679  19.6132954  33.4371310
 107.8659278  19.1183274  33.2353885 106.3610372  19.0850817  33.0739016
 111.8913524  21.9951049  37.7883678 111.9450546  22.5641985  38.5561394
 111.0228305  22.1652934  37.4237715 103.3801443  13.7576035  29.5131063
 102.4499031  13.6960491  29.7301025 103.4758915  13.2351988  28.7167704
 119.0201178  18.4372656  38.7883463 119.2137068  19.3418466  39.0342738
 118.9201797  17.9780075  39.6222048 114.0816287  18.5879398  44.3624343
 113.9301793  18.3589950  43.4454427 114.0720967  19.5450000  44.3755688
 110.8501623  16.1611311  39.3470610 111.7793683  16.3122471  39.1739577
 110.4292653  16.2495332  38.4919256 109.6489955  20.1861976  37.1169148
 109.5101041  19.8180760  37.9895086 108.8604551  20.7009615  36.9453105
 110.2438107  25.2871072  28.4594684 110.4189863  24.8159115  29.2740307
 109.5570895  25.9136838  28.6875945 111.1995170  19.5643578  34.5057985
 110.8645003  19.5244348  35.4015635 110.6999116  18.8988294  34.0328396
 105.1739414  14.9711208  40.0310566 105.0359212  14.2391447  40.6322106
 106.0844338  14.8820108  39.7494754 107.8021715  14.6831168  39.5194246
 108.5121334  14.0424360  39.4780865 107.7591023  14.9344062  40.4420427
 115.7908494  21.6198521  42.4400825 115.7321040  20.9357741  41.7731408
 116.1928012  22.3617511  41.9881451 104.8099193  28.4360435  35.2334544
 105.0495791  29.0678959  35.9113563 103.9668389  28.0848475  35.5199903
 115.7925901  19.5838105  40.6714805 114.9052680  19.2464027  40.7941204
 116.3624452  18.8521136  40.9083570  97.4455048  15.9162197  33.9957856
  98.1326088  15.6023927  33.4078872  97.2903177  16.8203561  33.7225108
 109.3227054  24.2439557  37.6376048 109.2497226  25.0494529  38.1495353
 108.8804447  24.4431523  36.8124070 109.1116834  23.4811327  31.1478870
 108.3284356  24.0233007  31.2417094 109.8109579  23.9985307  31.5473111
 111.7825738  24.1426391  39.7934207 112.4953710  24.7773856  39.7210108
 111.2915767  24.2390257  38.9774209 113.5043265  18.0477644  31.3651499
 112.5699544  18.1679106  31.1956203 113.6819933  17.1450111  31.1011508
 106.8337651  21.8920835  40.6139778 107.5347111  22.5257318  40.7669172
 106.3632766  22.2335566  39.8535417 111.5946111  24.4825135  32.5420498
 111.7768506  23.6646791  33.0048251 112.4179097  24.6992828  32.1045388
 111.9288277  23.4093320  29.8035547 112.4576043  22.8985775  29.1905709
 112.1916496  23.0935851  30.6681080 110.6826510  15.1885253  44.9258365
 110.0067147  15.0879383  45.5960740 111.5054144  15.0324467  45.3894362
 102.4305369  21.4257190  37.5470880 103.0158806  20.6800878  37.6798785
 102.2330208  21.7361146  38.4307544 105.2844025  24.4608437  32.5633323
 104.6154400  24.9454565  32.0797363 105.1456894  24.7077658  33.4776701
  97.0223024  13.9962790  36.2675324  97.0607124  13.4626381  37.0612442
  96.5163317  13.4697995  35.6486301 109.4249293  26.4952181  39.1615981
 109.9767601  26.6583802  39.9265066 109.7655487  27.0856618  38.4896006
 114.2760168  21.3213438  45.0164636 114.8200072  21.9343396  44.5219590
 113.6947012  21.8793017  45.5331649 100.6531602  12.7226892  29.3429255
 100.9485043  11.8137571  29.2896309  99.7519638  12.7014632  29.0210257
 112.5617681  24.4434156  36.1479663 112.4368820  23.6423896  35.6390609
 113.2196772  24.9380350  35.6593633 114.6252589  22.2443176  37.7759213
 113.6782924  22.1248527  37.7037540 114.9735362  21.3565674  37.8585475
 111.6299022  22.0395893  33.9763566 111.4823985  21.1112600  34.1571136
 112.4552516  22.0615983  33.4920641 115.2333144  22.8624451  35.0628438
 116.1579692  22.6567313  34.9252889 115.0648447  22.6140852  35.9717780
 106.3659758  12.8519443  35.5466427 106.2204339  13.1659746  36.4390709
 105.8884962  13.4704344  34.9937326 115.0228460  23.3810119  30.4190530
 115.1965338  22.8156541  29.6664382 115.5157352  24.1811014  30.2370020
 100.8405420  15.3924788  38.4854089 100.2958888  16.1684596  38.6174363
 101.7184770  15.7395592  38.3273210 101.6271442  14.5194684  41.3784245
 100.8853178  14.6677319  41.9648876 101.3064186  14.7802950  40.5150995
 109.5715105  24.0610662  41.1764635 109.8802231  23.8159809  42.0487335
 110.3690587  24.2657301  40.6883506 109.5935717  26.2148572  33.4070012
 109.1540707  25.7224951  34.1002869 110.3443834  25.6721540  33.1662087
 102.0728056  22.4060113  33.4094640 102.8986076  22.1063885  33.0293284
 101.7222108  21.6367735  33.8584429 107.0409589  21.7586581  35.4792314
 106.4189598  21.0957286  35.1794542 107.7114456  21.7847713  34.7965961
 100.2736661  20.3246439  34.3683574  99.4368569  19.8968614  34.1867575
 100.2460306  20.5178883  35.3054365 117.5988962  20.7809492  44.3525957
 116.8084506  20.7633631  43.8130456 117.3622317  21.3197786  45.1074993
 117.7186837  17.6301959  41.6658685 117.7684842  17.4651966  42.6074208
 117.6100760  16.7629218  41.2756566 106.6023096  20.3090504  28.9550774
 106.7511216  20.9925969  28.3017447 107.4089539  20.2895594  29.4700230
 119.2205034  20.0498900  41.9100707 118.9289842  20.4128881  42.7464168
 118.6077165  19.3365908  41.7314039 104.3575729  16.3355682  29.9611843
 104.1121771  15.4318012  30.1592053 104.5271643  16.3372832  29.0191321
 110.1018501  22.8038635  26.4262522 109.5292468  23.4228822  25.9732994
 110.6751295  23.3537996  26.9602444 113.3215761  23.0875785  27.5571104
 114.2546434  23.0221347  27.7603979 113.2338974  23.9232052  27.0985637
 110.3703992  18.1917194  45.2279231 111.2907002  18.3695793  45.4219278
 110.3353575  17.2473239  45.0758930  99.5886157  13.3855787  34.1532506
  99.2688942  12.5321096  33.8606880  99.0419585  13.6004365  34.9090473
 103.3666065  16.1018228  37.8702012 103.5852075  17.0335336  37.8890046
 103.7791839  15.7426203  38.6556816  99.4574417  17.0058699  36.1225627
  98.7637889  16.5912652  35.6095582 100.2047408  17.0479235  35.5259046
 108.1025200  15.1048573  46.0769823 107.6192282  15.9048933  46.2833712
 108.1886139  15.1156518  45.1237267 101.3711160  16.9376953  33.9991642
 101.3481848  17.0364640  33.0473525 101.6811796  17.7842103  34.3208808
 104.0298538  18.9953108  38.1138257 104.9841791  18.9637050  38.0468188
 103.8311061  18.5343731  38.9288483 104.6197920  17.5654224  40.6809054
 105.4390809  18.0598302  40.7043892 104.8934728  16.6486192  40.6526622
 102.3848766  24.5372727  35.1308455 102.2503234  23.7773128  34.5646453
 101.9680829  25.2613627  34.6637243 105.5417892  25.4342044  35.3426897
 105.4250277  26.3787477  35.2405587 104.7210339  25.1315606  35.7312696
  99.8732834  11.8992358  41.3801251 100.5191698  11.3891312  41.8688477
  99.6649985  12.6361039  41.9544677 112.3986226  18.9673205  46.8793392
 113.2677386  19.1413857  46.5180027 111.9192978  19.7867622  46.7569121
 106.5672406  26.0870306  38.5582826 107.4699653  26.1193916  38.8749321
 106.3409777  25.1570757  38.5729161 108.3226009  24.8401293  35.2192904
 107.3721640  24.8403154  35.1057277 108.6258495  24.0934027  34.7028939
 120.8668408  30.6289259  36.2200191 120.5286920  30.5130324  35.3320726
 121.7358176  30.2280424  36.2001197 116.7255224  32.4824735  32.2097082
 116.1620089  32.3914672  31.4413370 116.6107619  31.6624640  32.6899575
 121.3488191  31.7824111  42.1786397 121.3376832  31.3876909  41.3066901
 121.5108831  31.0490183  42.7720168 114.2719656  33.9775927  35.0481303
 115.0640948  33.6366752  34.6327602 114.5116306  34.0870902  35.9683456
 116.2310410  33.2384840  27.9198682 117.0041286  32.6913827  27.7811557
 116.5835809  34.1029090  28.1313143 118.0695452  34.5661223  41.1265581
 117.7785318  35.4706853  41.0112247 118.7052437  34.6077750  41.8409650
 118.9951659  31.9438071  37.7166940 119.5915232  31.7194094  37.0023903
 119.0526631  31.2022817  38.3192388 118.2872976  31.3005612  27.7541506
 118.1709234  30.6250516  28.4222591 118.3975236  30.8137986  26.9373659
 120.6304517  30.7615760  31.4588196 120.2662725  30.2346380  32.1701117
 121.4871633  30.3714229  31.2854681 116.4797819  30.7036435  34.1552079
 115.5548315  30.5712649  34.3629771 116.7282232  31.4830654  34.6522021
 113.8406630  30.3469708  34.9895868 113.9699011  30.6004187  35.9035280
 113.1604081  30.9397416  34.6700523 118.0106117  41.0166958  31.0886342
 117.9330147  41.9674784  31.1674823 117.4067761  40.6712831  31.7461269
 120.5023347  28.1894824  43.7447709 119.7256681  28.7488744  43.7350574
 121.1413910  28.6751607  44.2662579 118.7569719  30.9980277  43.3065676
 119.4984404  31.5365321  43.0300500 118.0506705  31.6246566  43.4637228
 120.5856129  28.0782024  39.2771395 121.4317324  28.5021438  39.4206044
 120.5254767  27.4215649  39.9709958 120.1081836  33.4385016  32.9240212
 120.5720181  33.7172719  32.1344834 119.8438634  32.5368461  32.7413302
 117.0005917  32.9856498  35.8619975 117.5707274  33.4143766  35.2237459
 117.5914028  32.7039083  36.5604161 119.0450722  29.5608169  29.7329777
 119.7474765  30.0129212  30.2003703 118.7131350  28.9191988  30.3609670
 117.4931083  28.1519925  44.1080986 116.8629744  28.8336206  44.3416383
 117.3867171  28.0403007  43.1634124 112.7876056  27.8191721  35.0346910
 111.9975110  28.0749250  34.5587021 113.2787303  28.6340059  35.1398951
 114.7390801  28.1836301  31.9930387 113.9421964  28.2954995  32.5113883
 114.5116393  28.5222953  31.1271278 120.5696469  34.7081004  39.9412902
 120.6340901  35.1701411  40.7771073 119.8607392  34.0778369  40.0695211
 111.0713759  28.0722212  37.4661901 111.3221797  28.9569222  37.7319477
 111.6073307  27.8926813  36.6936993 120.2844486  36.3749111  29.8091882
 120.1490161  37.2200647  30.2376730 120.8254299  36.5768389  29.0457816
 116.7711826  22.4540691  46.4706237 116.3778771  21.9006890  47.1453881
 117.5877966  22.7651270  46.8612755 113.7373884  33.8924549  30.3819807
 114.2498404  34.6867800  30.5325372 114.3896596  33.1950840  30.3153408
 115.5468768  37.0090306  32.4642560 115.7235397  37.9308270  32.2763544
 116.3425602  36.6948725  32.8936940 119.6879787  23.8698570  44.0626494
 120.4289500  24.4705723  43.9830956 119.9197710  23.1276208  43.5044536
 114.8321125  29.0554938  42.3404723 114.7174640  28.1540195  42.6411822
 113.9765643  29.3018634  41.9889540 116.6700084  38.5268480  38.4652903
 117.2207509  38.3985543  37.6929896 115.8311560  38.8263369  38.1147795
 120.4667255  34.7919607  42.8097134 120.9995592  34.0307896  42.5796442
 119.9381336  34.4993259  43.5521288 111.7022800  32.2213204  31.1579378
 112.5398022  32.6310212  30.9413085 111.8801068  31.2812646  31.1279571
 118.9576376  22.3523058  35.3106190 119.8229373  22.1565867  34.9512080
 119.0253885  22.1233410  36.2375547 121.8319968  33.9205600  30.3215946
 121.3041329  33.1858359  30.0089183 121.3307470  34.6980276  30.0755914
 116.5638695  24.5825266  32.6822557 117.1382447  24.3600448  31.9495750
 117.1509678  24.6513961  33.4351159 111.7248972  29.5603919  31.8290111
 111.5273371  28.9673280  31.1041178 111.1695636  29.2556129  32.5466050
 119.7045695  29.4527026  33.9484704 119.7594305  28.5000862  33.8727181
 118.8936897  29.6086465  34.4326003 117.6438055  28.0704085  31.7075083
 116.8305921  28.3698256  32.1140275 118.1397049  27.6759774  32.4249565
 119.7946633  38.0661842  33.6409348 119.7522812  38.2922689  32.7117880
 120.7109332  37.8325217  33.7895149 117.1352130  25.6422441  37.3236318
 117.7751509  25.5011200  36.6259281 116.3029660  25.3556954  36.9474920
 117.9112434  34.9424871  33.4371310 118.7053032  34.4475191  33.2353885
 117.2004126  34.4142734  33.0739016 114.2195197  29.0867953  29.5131063
 113.2892785  29.0252408  29.7301025 114.3152669  28.5643906  28.7167704
 114.1380746  25.6122766  32.1009305 114.3987564  26.5268099  31.9918465
 114.9597919  25.1447208  32.2505918 115.6105672  27.0260523  39.2708129
 116.2828725  26.8177885  38.6220778 114.7835458  26.8282609  38.8313362
 121.5131244  23.6522464  41.2873790 120.8659159  24.3512414  41.1938267
 122.2832259  24.0858608  41.6550038 120.4883710  35.5153893  37.1169148
 120.3494795  35.1472678  37.9895086 119.6998306  36.0301533  36.9453105
 121.0831862  40.6162990  28.4594684 121.2583617  40.1451033  29.2740307
 120.3964650  41.2428756  28.6875945 122.0388925  34.8935496  34.5057985
 121.7038758  34.8536266  35.4015635 121.5392871  34.2280212  34.0328396
 116.0133169  30.3003126  40.0310566 115.8752967  29.5683365  40.6322106
 116.9238092  30.2112026  39.7494754 118.6415470  30.0123085  39.5194246
 119.3515088  29.3716277  39.4780865 118.5984778  30.2635980  40.4420427
 117.3544404  26.9988303  41.3389886 116.8181761  26.5479042  41.9911482
 116.7661112  27.1334212  40.5960350 115.6492947  43.7652352  35.2334544
 115.8889545  44.3970877  35.9113563 114.8062143  43.4140392  35.5199903
 108.2848803  31.2454114  33.9957856 108.9719842  30.9315844  33.4078872
 108.1296931  32.1495479  33.7225108 113.0883525  26.1344311  38.4242880
 113.0041713  25.5269980  37.6893290 112.2666231  26.6253329  38.4252376
 120.1620809  39.5731475  37.6376048 120.0890980  40.3786446  38.1495353
 119.7198202  39.7723441  36.8124070 119.9510588  38.8103245  31.1478870
 119.1678110  39.3524925  31.2417094 120.6503334  39.3277225  31.5473111
 119.8442207  26.7615257  33.5184760 119.4739995  26.2086298  34.2065665
 120.3401300  26.1573391  32.9659760 117.6731406  37.2212752  40.6139778
 118.3740865  37.8549235  40.7669172 117.2026521  37.5627484  39.8535417
 121.5220265  30.5177171  44.9258365 120.8460902  30.4171300  45.5960740
 122.3447899  30.3616385  45.3894362 113.2699124  36.7549107  37.5470880
 113.8552561  36.0092795  37.6798785 113.0723962  37.0653064  38.4307544
 116.1237779  39.7900355  32.5633323 115.4548154  40.2746482  32.0797363
 115.9850649  40.0369575  33.4776701 107.8616779  29.3254708  36.2675324
 107.9000878  28.7918298  37.0612442 107.3557072  28.7989913  35.6486301
 120.2643048  41.8244098  39.1615981 120.8161356  41.9875720  39.9265066
 120.6049241  42.4148536  38.4896006 115.2407541  24.1719248  39.7637866
 115.3048868  25.0334079  39.3515264 115.1774661  23.5593250  39.0310224
 114.7159814  26.2442381  43.4110900 115.3431852  25.8619458  44.0248424
 113.8587732  26.0256583  43.7766593 111.4925356  28.0518810  29.3429255
 111.7878797  27.1429488  29.2896309 110.5913392  28.0306549  29.0210257
 115.0219603  26.1274806  35.3256804 114.3006189  26.7410774  35.1864277
 115.8112859  26.6632571  35.2473449 117.8245917  23.4629233  41.5997455
 118.3480319  23.7091529  42.3623765 117.6058250  24.2949268  41.1800593
 113.2213198  25.7332907  29.4668580 112.8925904  24.8530286  29.2843686
 113.5752569  25.6780576  30.3544969 116.3355021  26.0205877  29.8344058
 116.6751094  26.5491799  29.1122666 116.7827142  26.3586283  30.6102624
 119.0298462  24.4042928  39.2847126 118.6895282  23.6050741  39.6867806
 118.3237468  24.7044639  38.7123959 119.6814934  21.4892240  37.7374449
 120.5041003  21.0152719  37.6153339 119.9252997  22.2682724  38.2373135
 117.2053512  28.1811361  35.5466427 117.0598093  28.4951664  36.4390709
 116.7278716  28.7996261  34.9937326 119.0649895  25.1713909  35.5947317
 119.0511464  24.2755002  35.2579615 119.7822323  25.1784573  36.2285603
 120.9176026  25.6051249  37.6400444 120.6593804  26.5268320  37.6384775
 120.3861066  25.2081684  38.3300909 111.6799175  30.7216705  38.4854089
 111.1352643  31.4976513  38.6174363 112.5578524  31.0687510  38.3273210
 118.4686791  24.0528289  30.8634887 118.5902702  23.1244935  31.0625775
 118.1788834  24.0666975  29.9513203 112.4665196  29.8486602  41.3784245
 111.7246933  29.9969237  41.9648876 112.1457941  30.1094867  40.5150995
 120.4108859  39.3902580  41.1764635 120.7195986  39.1451727  42.0487335
 121.2084341  39.5949218  40.6883506 120.4329471  41.5440490  33.4070012
 119.9934461  41.0516868  34.1002869 121.1837588  41.0013457  33.1662087
 112.9121810  37.7352030  33.4094640 113.7379830  37.4355802  33.0293284
 112.5615862  36.9659653  33.8584429 117.8803343  37.0878499  35.4792314
 117.2583353  36.4249204  35.1794542 118.5508210  37.1139631  34.7965961
 111.1130415  35.6538357  34.3683574 110.2762324  35.2260531  34.1867575
 111.0854061  35.8470800  35.3054365 117.9527871  25.5660287  45.0724820
 118.0016026  26.4422409  44.6902589 118.4950385  25.0237680  44.4996463
 117.4416850  35.6382422  28.9550774 117.5904971  36.3217886  28.3017447
 118.2483294  35.6187512  29.4700230 120.1827159  26.3191659  41.8271178
 119.3130469  26.6125225  41.5553767 120.4186640  26.9032104  42.5478442
 115.1969483  31.6647600  29.9611843 114.9515525  30.7609930  30.1592053
 115.3665398  31.6664750  29.0191321 114.4665131  27.3975957  27.4598005
 113.7734376  27.4720312  26.8038041 114.2216883  26.6336301  27.9819522
 120.9412256  38.1330552  26.4262522 120.3686223  38.7520740  25.9732994
 121.5145049  38.6829914  26.9602444 121.2097747  33.5209111  45.2279231
 122.1300756  33.6987710  45.4219278 121.1747330  32.5765157  45.0758930
 110.4279912  28.7147705  34.1532506 110.1082696  27.8613013  33.8606880
 109.8813340  28.9296283  34.9090473 114.2059819  31.4310146  37.8702012
 114.4245829  32.3627254  37.8890046 114.6185593  31.0718120  38.6556816
 119.0787685  27.0043352  47.2604761 118.9784412  27.9537709  47.1916852
 118.8609227  26.6761591  46.3880831 110.2968172  32.3350616  36.1225627
 109.6031643  31.9204569  35.6095582 111.0441163  32.3771153  35.5259046
 118.9418955  30.4340491  46.0769823 118.4586036  31.2340851  46.2833712
 119.0279894  30.4448435  45.1237267 112.2104914  32.2668870  33.9991642
 112.1875602  32.3656558  33.0473525 112.5205551  33.1134021  34.3208808
 114.8692292  34.3245025  38.1138257 115.8235546  34.2928968  38.0468188
 114.6704816  33.8635649  38.9288483 115.4591674  32.8946141  40.6809054
 116.2784563  33.3890220  40.7043892 115.7328482  31.9778109  40.6526622
 113.2242521  39.8664645  35.1308455 113.0896989  39.1065046  34.5646453
 112.8074583  40.5905545  34.6637243 116.3811647  40.7633962  35.3426897
 116.2644031  41.7079394  35.2405587 115.5604093  40.4607523  35.7312696
 110.7126589  27.2284275  41.3801251 111.3585452  26.7183229  41.8688477
 110.5043740  27.9652957  41.9544677 117.4066161  41.4162224  38.5582826
 118.3093408  41.4485834  38.8749321 117.1803531  40.4862675  38.5729161
 119.1619763  40.1693210  35.2192904 118.2115394  40.1695072  35.1057277
 119.4652249  39.4225945  34.7028939 115.0524080  24.3751892  45.4776266
 115.9155541  24.0188697  45.6879590 114.4789490  24.0365787  46.1651670
 121.9107513  43.4014130  37.4661901 122.1615551  44.2861139  37.7319477
 122.4467061  43.2218731  36.6936993 119.1242557  46.5746032  33.9957856
 119.8113597  46.2607762  33.4078872 118.9690686  47.4787397  33.7225108
 118.7010533  44.6546625  36.2675324 118.7394633  44.1210216  37.0612442
 118.1950826  44.1281831  35.6486301 121.9524170  50.9830275  34.3683574
 121.1156078  50.5552449  34.1867575 121.9247815  51.1762718  35.3054365
 121.2673666  44.0439623  34.1532506 120.9476451  43.1904931  33.8606880
 120.7207094  44.2588201  34.9090473 121.1361926  47.6642534  36.1225627
 120.4425398  47.2496487  35.6095582 121.8834917  47.7063071  35.5259046
 121.5520343  42.5576193  41.3801251 122.1979207  42.0475147  41.8688477
 121.3437494  43.2944875  41.9544677   3.6509340  55.7775240 105.8975762
   2.9771038  56.0806937 106.5060720   4.0375162  56.5804321 105.5481219
   5.7416810  47.5683453 104.4323202   5.1245980  46.8430281 104.3356255
   5.2733298  48.3292814 104.0890276   7.6166080  53.3560724 107.1715585
   8.3116985  53.9767416 107.3902900   7.9589230  52.5056075 107.4467963
   1.7080949  53.4622475 106.0790679   1.1354916  54.0812663 105.6261151
   2.2813742  54.0121837 106.6130601   4.9278209  53.7459626 107.2099261
   5.8608882  53.6805187 107.4132137   4.8401421  54.5815892 106.7513794
   7.5566225  53.0625496 104.1703209   7.4779857  52.7285360 105.0638967
   8.3775892  53.5547264 104.1694681   5.1270177  50.3793491 103.7913187
   5.8306027  50.5843494 104.4070843   4.4032826  50.9470253 104.0562270
   7.0356874  50.8176021 105.8411647   7.8702478  50.3857219 105.6589122
   6.8741217  50.6458034 106.7688541  15.6641150  61.3345672 115.9366824
  16.3019559  61.2152419 115.2330164  15.5461992  62.2826516 115.9954776
  12.4730856  61.2873100 115.8728348  12.1349367  61.1714164 114.9848883
  13.3420624  60.8864265 115.8529355   8.3317672  63.1408576 111.8625239
   7.7682537  63.0498513 111.0941527   8.2170067  62.3208481 112.3427732
  13.9117230  66.8079544 107.1739704  13.2605210  67.3933624 106.7873718
  14.7061593  67.3385739 107.2334742   7.8372857  63.8968681 107.5726839
   8.6103733  63.3497668 107.4339714   8.1898256  64.7612930 107.7841300
  10.1739135  60.0561347 105.2045289  10.4264656  59.5342868 104.4428752
   9.2363694  59.8927493 105.3071972  15.2182418  59.0597125 113.0120032
  16.0045507  58.6416549 112.6610449  15.4821122  59.9643218 113.1801680
  15.3892495  64.4969976 107.7108689  14.7538328  64.5704602 108.4229593
  15.0589902  65.0863575 107.0327768  20.6190845  58.9972359 113.9153010
  21.3516017  58.4271576 114.1490840  19.8630201  58.6093959 114.3559516
   9.8935424  61.9589453 107.4069663   9.7771682  61.2834356 108.0750748
  10.0037684  61.4721827 106.5901817  12.2366965  61.4199600 111.1116353
  11.8725172  60.8930221 111.8229274  13.0934081  61.0298069 110.9382838
  11.8772452  56.4489500 106.1077701  12.0446854  57.3169736 106.4748172
  11.6869621  56.6116782 105.1838990  14.6347785  64.9106479 117.7743532
  14.3348508  65.8131518 117.6659339  14.2898845  64.6438662 118.6264685
  18.0344929  57.4289019 115.4540969  17.1261806  57.3604427 115.1599730
  17.9832525  57.9060964 116.2822794  11.8561673  58.9047157 107.0924368
  11.7361298  59.3504208 107.9309848  11.1614261  59.2532475 106.5337906
   9.6168565  71.6750799 110.7414499   9.5392595  72.6258624 110.8202980
   9.0130208  71.3296672 111.3989426  17.5546739  59.3768631 107.9204702
  18.4664595  59.6096017 107.7452400  17.0456386  59.9605675 107.3579781
  16.1616321  64.3594449 115.3118284  15.5325184  64.5240163 114.6094351
  15.7741983  64.7736059 116.0829248  20.0405553  65.2948887 112.6662647
  19.3556591  65.6747788 112.1159681  20.1249402  65.9044214 113.3994595
  11.7144283  64.0968857 112.5768369  12.1782629  64.3756560 111.7872991
  11.4501081  63.1952302 112.3941459  10.6513169  60.2192009 109.3857934
  11.3537212  60.6713053 109.8531860  10.3193798  59.5775828 110.0137827
  18.4102313  65.8180801 117.4380348  19.2319756  65.4160989 117.1563030
  18.4064716  65.7149035 118.3896464  26.5008306  62.1619550 113.7865320
  25.7472014  61.5926948 113.6309324  26.6355847  62.1282214 114.7335954
  11.8906934  67.0332952 109.4620039  11.7552609  67.8784488 109.8904887
  12.4316746  67.2352230 108.6985973   5.3436331  64.5508390 110.0347964
   5.8560852  65.3451640 110.1853529   5.9959044  63.8534681 109.9681566
   7.1531216  67.6674146 112.1170717   7.3297844  68.5892111 111.9291701
   7.9488049  67.3532566 112.5465097   3.3085248  62.8797044 110.8107535
   4.1460470  63.2894053 110.5941242   3.4863516  61.9396487 110.7807729
  15.2049680  60.5472125 106.4991368  14.6896303  61.3176730 106.7379755
  14.9326988  59.8737261 107.1224429  12.7896791  55.3921826 111.5576606
  11.9338387  55.0028676 111.3782245  13.2023743  55.4713787 110.6976392
  20.1783954  63.3004480 108.4344541  19.4013397  62.9615639 107.9899703
  20.8575435  63.3057103 107.7599506  14.9935983  58.4199217 108.3251149
  14.6886119  58.7345366 109.1761292  15.9466425  58.4980637 108.3678482
  13.4382415  64.5789441 109.9744103  12.9103777  63.8442200 109.6617340
  12.9369918  65.3564117 109.7284071  18.4175261  62.7738461 115.0911149
  17.7598936  63.4637722 115.1791278  19.2215660  63.1634893 115.4345135
  17.2280720  61.1282834 113.1415091  17.7412602  61.7612826 113.6436801
  17.8781944  60.5284029 112.7758451   8.4970730  57.2713568 106.3546600
   7.6608042  57.6088254 106.6755874   8.3575499  57.1362548 105.4173737
  11.5835015  62.3969651 102.9779076  10.6762077  62.1658904 103.1770225
  12.0806047  61.6007270 103.1653057  14.4903094  71.1067158 105.8975762
  13.8164793  71.4098855 106.5060720  14.8768916  71.9096238 105.5481219
  14.4896599  60.0023705 110.5176112  15.2368417  60.5145102 110.2083234
  14.7588188  59.6807758 111.3780505  12.7623249  62.4982246 107.5003066
  11.8534468  62.2141278 107.5975536  12.7918332  62.9181324 106.6406373
  17.9942516  66.1088835 111.2694233  17.5404843  65.2679745 111.3259424
  17.3636483  66.7450233 111.6069014  16.9375436  57.0380821 112.4994901
  16.1998192  56.5258207 112.8305143  17.1902209  56.5981203 111.6878178
  16.4375455  67.9465332 112.2044052  16.7298430  68.5070389 111.4856417
  16.9474076  68.2393893 112.9597211  11.3108143  60.1110866 113.6012861
  11.3656753  59.1584703 113.5255338  10.4999345  60.2670305 114.0854160
  12.4599336  64.0390989 104.8391144  12.0218766  63.3226848 104.3796782
  13.2009777  64.2667104 104.2776236   9.2500503  58.7287926 111.3603240
   8.4368368  59.0282097 111.7668432   9.7459497  58.3343615 112.0777722
  11.4009081  68.7245683 113.2937505  11.3585259  68.9506529 112.3646037
  12.3171779  68.4909057 113.4423306  20.5772451  62.3148186 110.8967463
  20.4390350  62.5049782 109.9688652  20.2208670  63.0767569 111.3535514
  20.6041831  64.3824713 115.9078735  21.0378338  64.2900002 116.7561789
  21.3173412  64.3582214 115.2698751   9.5174881  65.6008712 113.0899468
  10.3115480  65.1059032 112.8882042   8.8066574  65.0726575 112.7267173
  14.3369726  67.9826807 117.4411835  14.3906748  68.5517744 118.2089551
  13.4684507  68.1528692 117.0765872   5.8257645  59.7451794 109.1659220
   4.8955233  59.6836249 109.3829182   5.9215117  59.2227746 108.3695861
  21.4657380  64.4248414 118.4411620  21.6593271  65.3294224 118.6870895
  21.3657999  63.9655833 119.2750205  12.0946157  66.1737734 116.7697305
  11.9557243  65.8056518 117.6423243  11.3060754  66.6885373 116.5981262
  12.6894309  71.2746830 108.1122841  12.8646065  70.8034874 108.9268464
  12.0027097  71.9012597 108.3404102  13.6451372  65.5519337 114.1586142
  13.3101205  65.5120107 115.0543792  13.1455318  64.8864053 113.6856553
  16.5810564  62.8975371 104.4323202  15.9639735  62.1722199 104.3356255
  16.1127053  63.6584731 104.0890276   8.3709110  57.1160795 103.5544506
   7.4938576  56.9949596 103.1906753   8.8466863  56.3246874 103.3023395
  11.5573036  69.4687086 110.8007027  10.7740558  70.0108766 110.8945251
  12.2565781  69.9861065 111.2001268  14.8669686  55.2781715 113.4441232
  15.3638386  54.5251677 113.1242302  14.0956668  55.3146032 112.8784442
  22.7199444  60.9822081 115.0859524  22.7089320  61.8646796 114.7153457
  21.8516823  60.6293631 114.8914061  15.9499467  64.0353402 111.0179656
  15.0155746  64.1554865 110.8484360  16.1276135  63.1325869 110.7539665
  19.3372018  59.8770722 111.5529690  19.8032470  60.7098713 111.4789992
  19.7879519  59.4115703 112.2574948  17.4048249  66.2214543 108.5515842
  17.6808093  66.1071137 109.4609716  16.5352748  65.8232028 108.5128015
  14.0402313  70.4700894 112.1948655  14.2224708  69.6522550 112.6576408
  14.8635299  70.6868586 111.7573545  14.3744479  69.3969079 109.4563704
  14.9032245  68.8861533 108.8433866  14.6372698  69.0811609 110.3209237
   3.0987804  58.7102650 108.9957412   3.3941245  57.8013329 108.9424466
   2.1975840  58.6890390 108.6738414  15.0073883  70.4309915 115.8007820
  14.8825022  69.6299654 115.2918766  15.6652974  70.9256108 115.3121790
  17.0708791  68.2318935 117.4287370  16.1239127  68.1124286 117.3565697
  17.4191564  67.3441433 117.5113632   4.8275645  56.3916748 109.1196737
   4.4988352  55.5114127 108.9371843   5.1815016  56.3364417 110.0073126
  14.0755224  68.0271651 113.6291723  13.9280187  67.0988358 113.8099293
  14.9008718  68.0491742 113.1448798   7.9417469  56.6789718 109.4872215
   8.2813541  57.2075639 108.7650823   8.3889589  57.0170124 110.2630781
  17.6789346  68.8500210 114.7156595  18.6035894  68.6443071 114.5781047
  17.5104650  68.6016611 115.6245937   9.9285616  55.1764340 107.6865508
  10.6493978  55.5545592 107.1829224   9.3050920  55.8953216 107.7900486
  14.0716739  55.8809489 108.6223840  14.2880353  56.7634126 108.3212668
  13.5910806  55.4895702 107.8929482  17.4684662  69.3685877 110.0718687
  17.6421540  68.8032300 109.3192539  17.9613554  70.1686772 109.8898177
  10.0749239  54.7112130 110.5163044  10.1965150  53.7828776 110.7153932
   9.7851281  54.7250816 109.6041360  23.3224054  62.1322300 111.6908987
  23.7655200  61.3829625 111.2928110  22.4450564  62.1232436 111.3082719
  18.4559835  68.6852641 107.1715585  19.1510739  69.3059334 107.3902900
  18.7982985  67.8347993 107.4467963  20.3551258  66.1352347 108.7002916
  20.8802582  66.4739620 107.9752236  20.2673611  65.1999362 108.5166051
  12.0391919  72.2024330 113.0598169  11.5996909  71.7100709 113.7531026
  12.7900036  71.6597298 112.8190244   9.0479298  66.2966263 108.6078931
   9.1967418  66.9801727 107.9545604   9.8545741  66.2771353 109.1228387
  21.6661236  66.0374659 121.5628864  21.3746044  66.4004639 122.3992325
  21.0533367  65.3241667 121.3842196  22.8656918  63.6027538 114.0831434
  23.7003810  64.0417342 114.2468995  23.0016047  63.1266191 113.2639680
   6.8031931  62.3231440 109.6140000   6.5577973  61.4193770 109.8120210
   6.9727845  62.3248591 108.6719478   6.0727578  58.0559798 107.1126162
   5.3796823  58.1304153 106.4566198   5.8279330  57.2920142 107.6347679
  12.5474703  68.7914393 106.0790679  11.9748670  69.4104580 105.6261151
  13.1207497  69.3413755 106.6130601  15.7671963  69.0751543 107.2099261
  16.7002636  69.0097105 107.4132137  15.6795176  69.9107810 106.7513794
  18.3959980  68.3917414 104.1703209  18.3173611  68.0577277 105.0638967
  19.2169647  68.8839182 104.1694681  21.0938171  61.2579153 117.3779527
  21.0614491  60.3195154 117.5639211  21.7038795  61.3363190 116.6445352
  12.9321502  60.1275206 103.4206731  13.8780607  59.9981414 103.4895149
  12.5535747  59.3889868 103.8976159  26.9114721  62.3195160 116.5185564
  27.6418109  62.0580448 117.0793267  26.3021666  61.5823882 116.5587632
  24.9930018  60.4603022 117.1160015  24.2663181  60.3258987 116.5076507
  24.5777305  60.7679851 117.9216733  11.1164419  58.0525182 103.3561616
  10.2095874  57.7558295 103.4324330  11.3940400  57.7555000 102.4895903
  12.7326485  52.5962072 109.5105858  11.9227213  52.2509157 109.8861104
  13.4210902  52.2869616 110.0993469   9.8863204  54.9112117 103.4973596
  10.7482368  55.2367016 103.7569413  10.0713548  54.1243613 102.9846661
  18.0395840  53.7840644 110.6408819  17.4594509  54.4425448 110.2586871
  17.7731773  52.9617989 110.2296236  16.8220718  55.9440734 109.6965167
  15.9346573  56.2290385 109.4785362  17.2374707  55.7834498 108.8492444
  20.1735254  55.9687255 113.4119506  20.9495644  56.4583708 113.6844123
  19.4483388  56.3945310 113.8691376  22.6107813  56.6814875 114.4693447
  23.2052304  56.4410610 113.7586755  22.6834397  55.9622005 115.0966983
  15.9663932  65.7085409 103.7913187  16.6699782  65.9135412 104.4070843
  15.2426580  66.2762171 104.0562270  16.7961742  61.4595270 109.9115457
  16.7396943  61.9163822 109.0723090  17.3490084  60.6985955 109.7338300
  20.6066548  57.2485002 110.7365577  20.3503482  56.8481638 111.5673784
  19.9819416  57.9628796 110.6115716  24.9178886  59.9881075 113.2436868
  24.3578444  60.0574265 114.0168430  24.3122389  59.8122060 112.5236364
  17.8750629  66.1467938 105.8411647  18.7096233  65.7149137 105.6589122
  17.7134972  65.9749952 106.7688541  17.5296521  62.6500052 107.2067986
  17.4745325  62.4844323 106.2656430  16.9042576  63.3576084 107.3630176
  10.8392647  52.1508161 106.7853305  10.8271316  53.0950000 106.9421576
  11.7316068  51.9678306 106.4912766  26.5034904  76.6637589 115.9366824
  27.1413314  76.5444337 115.2330164  26.3855747  77.6118433 115.9954776
  23.3124610  76.6165017 115.8728348  22.9743122  76.5006082 114.9848883
  24.1814379  76.2156183 115.8529355  19.1711426  78.4700494 111.8625239
  18.6076291  78.3790431 111.0941527  19.0563821  77.6500398 112.3427732
  24.7510985  82.1371462 107.1739704  24.0998964  82.7225542 106.7873718
  25.5455348  82.6677656 107.2334742  18.6766612  79.2260599 107.5726839
  19.4497488  78.6789586 107.4339714  19.0292011  80.0904848 107.7841300
  21.4407861  77.9313829 117.3695098  22.0371434  77.7069852 116.6552061
  21.4982833  77.1898575 117.9720545  21.0132890  75.3853265 105.2045289
  21.2658410  74.8634786 104.4428752  20.0757449  75.2219410 105.3071972
  26.0576173  74.3889043 113.0120032  26.8439262  73.9708466 112.6610449
  26.3214877  75.2935135 113.1801680  26.2286250  79.8261893 107.7108689
  25.5932083  79.8996520 108.4229593  25.8983656  80.4155492 107.0327768
  31.4584600  74.3264276 113.9153010  32.1909772  73.7563493 114.1490840
  30.7023955  73.9385877 114.3559516  20.7329178  77.2881371 107.4069663
  20.6165437  76.6126274 108.0750748  20.8431438  76.8013745 106.5901817
  23.0760719  76.7491518 111.1116353  22.7118927  76.2222139 111.8229274
  23.9327835  76.3589987 110.9382838  28.9810020  68.0385850 118.3747619
  28.6493345  68.9081261 118.1508834  28.3855633  67.7222134 119.0541649
  22.7166206  71.7781418 106.1077701  22.8840609  72.6461654 106.4748172
  22.5263375  71.9408699 105.1838990  25.4741540  80.2398396 117.7743532
  25.1742263  81.1423435 117.6659339  25.1292599  79.9730580 118.6264685
  18.9254021  76.6912193 113.8080236  18.0004517  76.5588407 114.0157928
  19.1738434  77.4706413 114.3050178  28.8738683  72.7580937 115.4540969
  27.9655561  72.6896345 115.1599730  28.8226279  73.2352882 116.2822794
  22.6955427  74.2339075 107.0924368  22.5755052  74.6796126 107.9309848
  22.0008016  74.5824393 106.5337906  20.4562319  87.0042717 110.7414499
  20.3786349  87.9550542 110.8202980  19.8523963  86.6588589 111.3989426
  30.7400330  70.9597375 117.2318843  30.0974710  71.2529908 116.5858637
  30.2355258  70.8450295 118.0372040  28.3940493  74.7060548 107.9204702
  29.3058349  74.9387935 107.7452400  27.8850140  75.2897592 107.3579781
  26.6781261  79.1285176 121.5565995  27.0864617  78.6867587 120.8120627
  25.9558523  78.5537804 121.8100188  23.0312331  74.0657783 118.9299552
  23.8773526  74.4897196 119.0734201  22.9710969  73.4091407 119.6238115
  27.0010076  79.6886367 115.3118284  26.3718938  79.8532081 114.6094351
  26.6135738  80.1027976 116.0829248  30.8799308  80.6240805 112.6662647
  30.1950346  81.0039706 112.1159681  30.9643157  81.2336131 113.3994595
  26.1811776  71.7262151 120.5880725  25.9372708  72.4804212 120.0515001
  26.4571707  72.1047499 121.4227972  28.1350239  78.2700764 119.2657991
  28.3467134  78.9132523 118.5892372  28.0879987  77.4363080 118.7979921
  25.7376468  70.8818584 116.1694563  24.8760947  71.1799838 116.4611301
  25.7638903  71.0988983 115.2375596  22.5538038  79.4260775 112.5768369
  23.0176383  79.7048478 111.7872991  22.2894836  78.5244219 112.3941459
  19.4462119  78.9732256 115.5148132  20.0163476  79.4019525 114.8765616
  20.0370230  78.6914841 116.2132318  21.4906924  75.5483927 109.3857934
  22.1930967  76.0004971 109.8531860  21.1587552  74.9067746 110.0137827
  15.2332258  73.8067480 114.6875067  14.4431312  74.0625008 114.2115178
  15.7243505  74.6215818 114.7927108  29.2496067  81.1472719 117.4380348
  30.0713511  80.7452906 117.1563030  29.2458470  81.0440953 118.3896464
  17.1847003  74.1712059 111.6458544  16.3878166  74.2830753 112.1642040
  16.9572595  74.5098711 110.7799435  37.3402060  77.4911467 113.7865320
  36.5865769  76.9218866 113.6309324  37.4749601  77.4574132 114.7335954
  22.7300688  82.3624870 109.4620039  22.5946363  83.2076406 109.8904887
  23.2710501  82.5644147 108.6985973  16.1830086  79.8800308 110.0347964
  16.6954606  80.6743558 110.1853529  16.8352798  79.1826598 109.9681566
  17.9924970  82.9966064 112.1170717  18.1691599  83.9184029 111.9291701
  18.7881804  82.6824483 112.5465097  22.1335989  69.8574329 123.7154651
  22.8745702  70.4581482 123.6359113  22.3653912  69.1151967 123.1572693
  26.0793152  65.8855432 117.9918933  25.7357421  66.7757073 117.9158043
  26.4472114  65.6957089 117.1288518  14.1479002  78.2088962 110.8107535
  14.9854224  78.6185970 110.5941242  14.3257270  77.2688404 110.7807729
  26.0443435  75.8764043 106.4991368  25.5290058  76.6468647 106.7379755
  25.7720743  75.2029179 107.1224429  23.6290546  70.7213744 111.5576606
  22.7732142  70.3320594 111.3782245  24.0417497  70.8005704 110.6976392
  25.1589692  68.2560087 115.9568166  24.6554488  68.2190222 115.1435971
  25.4520299  69.1652830 116.0164822  21.4032578  68.3398817 114.9634347
  22.2685575  68.1441625 114.6040237  21.4710087  68.1109168 115.8903704
  31.0177709  78.6296397 108.4344541  30.2407151  78.2907557 107.9899703
  31.6969190  78.6349021 107.7599506  25.8329738  73.7491135 108.3251149
  25.5279873  74.0637284 109.1761292  26.7860180  73.8272555 108.3678482
  24.2776170  79.9081358 109.9744103  23.7497531  79.1734118 109.6617340
  23.7763672  80.6856035 109.7284071  29.2569016  78.1030379 115.0911149
  28.5992690  78.7929640 115.1791278  30.0609415  78.4926811 115.4345135
  19.0094897  70.5701024 112.3350714  19.5838649  70.3476206 111.6023907
  19.5965880  70.6389719 113.0879316  28.0674474  76.4574751 113.1415091
  28.5806356  77.0904743 113.6436801  28.7175698  75.8575947 112.7758451
  19.3364484  72.6005485 106.3546600  18.5001797  72.9380172 106.6755874
  19.1969254  72.4654465 105.4173737  21.3117565  67.4442273 111.0625784
  20.6581977  67.1291291 110.4382398  21.2698039  66.8218014 111.7885607
  22.4228770  77.7261568 102.9779076  21.5155831  77.4950822 103.1770225
  22.9199802  76.9299188 103.1653057  25.3296849  86.4359076 105.8975762
  24.6558547  86.7390772 106.5060720  25.7162671  87.2388156 105.5481219
  24.5455305  73.9324207 115.3873431  23.6277867  74.1539154 115.2295119
  24.9615449  74.0070517 114.5285139  25.3290353  75.3315623 110.5176112
  26.0762172  75.8437020 110.2083234  25.5981943  75.0099675 111.3780505
  23.6017003  77.8274163 107.5003066  22.6928222  77.5433196 107.5975536
  23.6312087  78.2473242 106.6406373  28.8336271  81.4380753 111.2694233
  28.3798598  80.5971663 111.3259424  28.2030237  82.0742151 111.6069014
  27.7769190  72.3672739 112.4994901  27.0391947  71.8550125 112.8305143
  28.0295964  71.9273120 111.6878178  27.2769210  83.2757249 112.2044052
  27.5692184  83.8362307 111.4856417  27.7867830  83.5685810 112.9597211
  27.8780817  65.1448991 113.0936670  28.1839694  64.2846354 112.8062585
  28.6033422  65.7366611 112.8935664  14.1705174  75.5479677 111.4818268
  13.9729573  74.9549038 110.7569335  13.6151838  75.2431888 112.1994207
  22.1501897  75.4402784 113.6012861  22.2050507  74.4876620 113.5255338
  21.3393099  75.5962223 114.0854160  23.2993091  79.3682907 104.8391144
  22.8612521  78.6518766 104.3796782  24.0403532  79.5959022 104.2776236
  20.0894257  74.0579844 111.3603240  19.2762123  74.3574014 111.7668432
  20.5853251  73.6635532 112.0777722  22.2402835  84.0537601 113.2937505
  22.1979014  84.2798447 112.3646037  23.1565534  83.8200975 113.4423306
  25.6868469  74.5221668 120.1918134  26.0417857  74.7493141 121.0512600
  26.3340600  74.8540045 119.5695389  31.4166206  77.6440104 110.8967463
  31.2784104  77.8341700 109.9688652  31.0602425  78.4059487 111.3535514
  19.5808332  71.6298199 116.9764475  20.2207711  71.4886958 116.2787438
  18.7485862  71.3432713 116.6003077  31.4435585  79.7116631 115.9078735
  31.8772092  79.6191920 116.7561789  32.1567166  79.6874131 115.2698751
  20.3568636  80.9300630 113.0899468  21.1509234  80.4350950 112.8882042
  19.6460328  80.4018493 112.7267173  25.1763480  83.3118725 117.4411835
  25.2300503  83.8809661 118.2089551  24.3078262  83.4820610 117.0765872
  16.6651399  75.0743711 109.1659220  15.7348987  75.0128167 109.3829182
  16.7608871  74.5519664 108.3695861  16.5836948  71.5998524 111.7537462
  16.8443766  72.5143857 111.6446622  17.4054121  71.1322967 111.9034075
  32.3051135  79.7540332 118.4411620  32.4987025  80.6586142 118.6870895
  32.2051753  79.2947751 119.2750205  23.9587446  69.6398222 120.9401947
  23.3115361  70.3388172 120.8466424  24.7288461  70.0734366 121.3078195
  24.1351580  77.4778987 118.9998767  25.0643640  77.6290147 118.8267734
  23.7142610  77.5663008 118.1447414  22.9339912  81.5029652 116.7697305
  22.7950997  81.1348436 117.6423243  22.1454508  82.0177291 116.5981262
  23.5288064  86.6038748 108.1122841  23.7039819  86.1326791 108.9268464
  22.8420852  87.2304514 108.3404102  24.4845127  80.8811254 114.1586142
  24.1494960  80.8412024 115.0543792  23.9849073  80.2155970 113.6856553
  27.4204319  78.2267289 104.4323202  26.8033489  77.5014117 104.3356255
  26.9520807  78.9876649 104.0890276  29.0758450  82.9366197 122.0928982
  29.0170996  82.2525417 121.4259565  29.4777969  83.6785187 121.6409608
  19.2102865  72.4452713 103.5544506  18.3332331  72.3241514 103.1906753
  19.6860618  71.6538791 103.3023395  29.0775858  80.9005781 120.3242962
  28.1902636  80.5631703 120.4469361  29.6474409  80.1688812 120.5611727
  22.3966791  84.7979003 110.8007027  21.6134312  85.3400683 110.8945251
  23.0959536  85.3152983 111.2001268  25.7063441  70.6073633 113.4441232
  26.2032140  69.8543595 113.1242302  24.9350422  70.6437949 112.8784442
  33.5593198  76.3113998 115.0859524  33.5483074  77.1938714 114.7153457
  32.6910577  75.9585549 114.8914061  26.7893221  79.3645320 111.0179656
  25.8549500  79.4846782 110.8484360  26.9669890  78.4617787 110.7539665
  22.2898409  72.7491016 113.1712917  21.9196197  72.1962056 113.8593822
  22.7857502  72.1449149 112.6187917  30.1765773  75.2062639 111.5529690
  30.6426225  76.0390631 111.4789992  30.6273273  74.7407621 112.2574948
  28.2442004  81.5506461 108.5515842  28.5201848  81.4363055 109.4609716
  27.3746503  81.1523945 108.5128015  28.1482435  67.5743226 115.5920591
  27.2345515  67.8047453 115.7602798  28.5775537  67.6581670 116.4434623
  27.9188894  75.7633118 118.0920485  27.2660344  76.0109026 117.4372938
  28.2969274  74.9497256 117.7582962  24.8796068  85.7992811 112.1948655
  25.0618462  84.9814467 112.6576408  25.7029054  86.0160504 111.7573545
  25.2138233  84.7260997 109.4563704  25.7426000  84.2153451 108.8433866
  25.4766453  84.4103527 110.3209237  17.6863743  70.1595007 119.4166023
  17.7505070  71.0209837 119.0043421  17.6230863  69.5469008 118.6838381
  13.9381558  74.0394568 108.9957412  14.2334999  73.1305247 108.9424466
  13.0369594  74.0182308 108.6738414  25.8467637  85.7601832 115.8007820
  25.7218777  84.9591572 115.2918766  26.5046728  86.2548026 115.3121790
  17.4675805  72.1150565 114.9784961  16.7462391  72.7286532 114.8392434
  18.2569061  72.6508330 114.9001607  27.9102545  83.5610852 117.4287370
  26.9632881  83.4416204 117.3565697  28.2585319  82.6733350 117.5113632
  20.2702119  69.4504991 121.2525612  20.7936521  69.6967288 122.0151922
  20.0514452  70.2825026 120.8328750  15.6669400  71.7208666 109.1196737
  15.3382106  70.8406045 108.9371843  16.0208771  71.6656335 110.0073126
  24.9148979  83.3563569 113.6291723  24.7673941  82.4280276 113.8099293
  25.7402472  83.3783659 113.1448798  18.7811223  72.0081636 109.4872215
  19.1207296  72.5367557 108.7650823  19.2283344  72.3462042 110.2630781
  28.5183101  84.1792127 114.7156595  29.4429648  83.9734989 114.5781047
  28.3498404  83.9308528 115.6245937  21.4754664  70.3918686 118.9375283
  21.1351484  69.5926499 119.3395963  20.7693670  70.6920397 118.3652116
  22.1271136  67.4767999 117.3902606  22.9497205  67.0028477 117.2681496
  22.3709199  68.2558483 117.8901292  20.7679370  70.5056257 107.6865508
  21.4887733  70.8837510 107.1829224  20.1444674  71.2245134 107.7900486
  24.9110493  71.2101406 108.6223840  25.1274107  72.0926044 108.3212668
  24.4304560  70.8187620 107.8929482  19.6509714  74.1687119 115.1994585
  19.5054295  74.4827422 116.0918866  19.1734918  74.7872020 114.6465483
  21.5106097  71.1589667 115.2475474  21.4967666  70.2630761 114.9107772
  22.2278525  71.1660331 115.8813760  23.3632228  71.5927008 117.2928602
  23.1050006  72.5144078 117.2912932  22.8317268  71.1957442 117.9829066
  28.3078417  84.6977795 110.0718687  28.4815294  84.1324217 109.3192539
  28.8007308  85.4978690 109.8898177  20.9142993  70.0404048 110.5163044
  21.0358905  69.1120694 110.7153932  20.6245036  70.0542734 109.6041360
  23.7834184  67.7258958 113.6529764  23.8055881  67.7898291 112.6981744
  24.2002243  66.8863467 113.8470270  34.1617808  77.4614218 111.6908987
  34.6048954  76.7121543 111.2928110  33.2844318  77.4524354 111.3082719
  29.2953589  84.0144559 107.1715585  29.9904494  84.6351252 107.3902900
  29.6376739  83.1639910 107.4467963  31.1945012  81.4644265 108.7002916
  31.7196337  81.8031537 107.9752236  31.1067365  80.5291280 108.5166051
  22.8785673  87.5316248 113.0598169  22.4390663  87.0392627 113.7531026
  23.6293790  86.9889216 112.8190244  31.0036794  78.9469635 121.3186842
  31.0534799  78.7819642 122.2602365  30.8950717  78.0796894 120.9284723
  19.8873052  81.6258180 108.6078931  20.0361173  82.3093645 107.9545604
  20.6939496  81.6063270 109.1228387  28.2940556  74.9300563 122.6346149
  29.1950419  74.7907028 122.3430147  28.3688530  75.0955018 123.5744327
  22.6283361  72.3067417 121.4799335  21.7586671  72.6000984 121.2081924
  22.8642842  72.8907862 122.2006599  32.5054990  81.3666576 121.5628864
  32.2139799  81.7296557 122.3992325  31.8927122  80.6533584 121.3842196
  33.7050673  78.9319456 114.0831434  34.5397564  79.3709260 114.2468995
  33.8409802  78.4558109 113.2639680  30.7542179  76.4899191 120.0308922
  31.2296300  76.6826837 119.2227773  29.8307744  76.5458377 119.7852306
  17.6425685  77.6523358 109.6140000  17.3971727  76.7485688 109.8120210
  17.8121600  77.6540508 108.6719478  25.3322395  68.5247034 118.9964756
  25.8504339  69.2608061 118.6711244  24.9777528  68.8311028 119.8311515
  16.9121333  73.3851716 107.1126162  16.2190578  73.4596071 106.4566198
  16.6673085  72.6212059 107.6347679  25.5834989  64.9447317 114.5165652
  25.8636743  64.2770506 115.1426079  26.3685596  65.1376413 114.0040316
  23.3868458  84.1206311 106.0790679  22.8142425  84.7396498 105.6261151
  23.9601251  84.6705673 106.6130601  29.4543848  73.3664951 118.2637228
  30.4061271  73.4663049 118.2849452  29.2847298  72.5743219 118.7735312
  27.4758227  70.4520534 118.4496628  26.8808159  70.7325547 117.7543117
  27.1907924  70.9414435 119.2213370  26.6065718  84.4043461 107.2099261
  27.5396391  84.3389023 107.4132137  26.5188930  85.2399728 106.7513794
  29.2353734  83.7209331 104.1703209  29.1567366  83.3869195 105.0638967
  30.0563401  84.2131099 104.1694681  31.9331925  76.5871071 117.3779527
  31.9008246  75.6487071 117.5639211  32.5432549  76.6655107 116.6445352
  23.7715256  75.4567124 103.4206731  24.7174361  75.3273332 103.4895149
  23.3929501  74.7181785 103.8976159  32.0826414  73.3782114 117.4237810
  31.5665463  72.5940571 117.2367739  32.9666362  73.0500831 117.5884330
  29.7437141  67.1223130 113.3833623  29.5461962  66.8138218 114.2676955
  30.3536846  67.8484769 113.5131553  37.7508475  77.6487077 116.5185564
  38.4811864  77.3872366 117.0793267  37.1415421  76.9115799 116.5587632
  35.8323772  75.7894940 117.1160015  35.1056936  75.6550905 116.5076507
  35.4171059  76.0971769 117.9216733  21.9558173  73.3817100 103.3561616
  21.0489629  73.0850213 103.4324330  22.2334154  73.0846918 102.4895903
  23.5720239  67.9253990 109.5105858  22.7620967  67.5801075 109.8861104
  24.2604656  67.6161533 110.0993469  25.5010787  67.0032036 111.1330154
  26.0541826  67.4227490 111.7920178  25.7380874  66.0767785 111.1753110
  20.7256958  70.2404035 103.4973596  21.5876122  70.5658933 103.7569413
  20.9107302  69.4535531 102.9846661  28.8789595  69.1132562 110.6408819
  28.2988264  69.7717366 110.2586871  28.6125527  68.2909906 110.2296236
  27.3293161  68.5137619 112.8430139  27.8292939  68.6254154 112.0344458
  27.9728769  68.2098672 113.4830947  27.6614473  71.2732652 109.6965167
  26.7740328  71.5582303 109.4785362  28.0768462  71.1126415 108.8492444
  31.0129009  71.2979173 113.4119506  31.7889399  71.7875625 113.6844123
  30.2877143  71.7237227 113.8691376  33.4501567  72.0106792 114.4693447
  34.0446058  71.7702528 113.7586755  33.5228151  71.2913923 115.0966983
  26.8057686  81.0377327 103.7913187  27.5093536  81.2427329 104.4070843
  26.0820335  81.6054089 104.0562270  27.6355496  76.7887188 109.9115457
  27.5790698  77.2455739 109.0723090  28.1883839  76.0277873 109.7338300
  31.4460302  72.5776920 110.7365577  31.1897236  72.1773555 111.5673784
  30.8213170  73.2920714 110.6115716  35.7572640  75.3172993 113.2436868
  35.1972198  75.3866182 114.0168430  35.1516143  75.1413978 112.5236364
  28.7144383  81.4759856 105.8411647  29.5489987  81.0441054 105.6589122
  28.5528726  81.3041870 106.7688541  28.3690276  77.9791969 107.2067986
  28.3139079  77.8136241 106.2656430  27.7436331  78.6868002 107.3630176
  21.6786401  67.4800078 106.7853305  21.6665071  68.4241918 106.9421576
  22.5709823  67.2970224 106.4912766  25.4938521  64.0742855 111.0399241
  24.7270916  63.5201342 111.1855924  25.9049225  64.1464724 111.9013393
  37.3428659  91.9929507 115.9366824  37.9807068  91.8736254 115.2330164
  37.2249501  92.9410351 115.9954776  34.1518365  91.9456935 115.8728348
  33.8136876  91.8298000 114.9848883  35.0208133  91.5448100 115.8529355
  30.0105180  93.7992412 111.8625239  29.4470046  93.7082348 111.0941527
  29.8957576  92.9792316 112.3427732  35.5904739  97.4663379 107.1739704
  34.9392719  98.0517460 106.7873718  36.3849102  97.9969574 107.2334742
  29.5160366  94.5552516 107.5726839  30.2891242  94.0081503 107.4339714
  29.8685765  95.4196766 107.7841300  32.2801616  93.2605747 117.3695098
  32.8765188  93.0361770 116.6552061  32.3376587  92.5190493 117.9720545
  31.8526644  90.7145182 105.2045289  32.1052165  90.1926704 104.4428752
  30.9151203  90.5511328 105.3071972  36.8969927  89.7180961 113.0120032
  37.6833016  89.3000384 112.6610449  37.1608631  90.6227053 113.1801680
  37.0680004  95.1553811 107.7108689  36.4325837  95.2288438 108.4229593
  36.7377411  95.7447410 107.0327768  42.2978354  89.6556194 113.9153010
  43.0303526  89.0855411 114.1490840  41.5417710  89.2677794 114.3559516
  31.5722933  92.6173288 107.4069663  31.4559191  91.9418192 108.0750748
  31.6825193  92.1305662 106.5901817  33.9154474  92.0783436 111.1116353
  33.5512681  91.5514057 111.8229274  34.7721590  91.6881905 110.9382838
  39.8203774  83.3677768 118.3747619  39.4887099  84.2373179 118.1508834
  39.2249388  83.0514052 119.0541649  33.5559961  87.1073335 106.1077701
  33.7234363  87.9753572 106.4748172  33.3657130  87.2700617 105.1838990
  36.3135294  95.5690314 117.7743532  36.0136017  96.4715353 117.6659339
  35.9686354  95.3022497 118.6264685  29.7647775  92.0204111 113.8080236
  28.8398272  91.8880325 114.0157928  30.0132189  92.7998330 114.3050178
  39.7132438  88.0872854 115.4540969  38.8049315  88.0188263 115.1599730
  39.6620034  88.5644799 116.2822794  33.5349182  89.5630993 107.0924368
  33.4148807  90.0088044 107.9309848  32.8401770  89.9116310 106.5337906
  31.2956074 102.3334634 110.7414499  31.2180104 103.2842460 110.8202980
  30.6917717 101.9880507 111.3989426  41.5794084  86.2889293 117.2318843
  40.9368464  86.5821826 116.5858637  41.0749013  86.1742213 118.0372040
  39.2334248  90.0352466 107.9204702  40.1452104  90.2679853 107.7452400
  38.7243895  90.6189510 107.3579781  37.5175016  94.4577094 121.5565995
  37.9258372  94.0159504 120.8120627  36.7952277  93.8829721 121.8100188
  33.8706086  89.3949701 118.9299552  34.7167281  89.8189114 119.0734201
  33.8104723  88.7383325 119.6238115  37.8403830  95.0178284 115.3118284
  37.2112693  95.1823999 114.6094351  37.4529492  95.4319894 116.0829248
  41.7193062  95.9532722 112.6662647  41.0344100  96.3331624 112.1159681
  41.8036911  96.5628049 113.3994595  37.0205531  87.0554069 120.5880725
  36.7766463  87.8096129 120.0515001  37.2965461  87.4339416 121.4227972
  38.9743994  93.5992681 119.2657991  39.1860889  94.2424441 118.5892372
  38.9273742  92.7654998 118.7979921  36.5770223  86.2110502 116.1694563
  35.7154702  86.5091755 116.4611301  36.6032657  86.4280901 115.2375596
  33.3931792  94.7552692 112.5768369  33.8570138  95.0340395 111.7872991
  33.1288590  93.8536137 112.3941459  30.2855873  94.3024174 115.5148132
  30.8557230  94.7311442 114.8765616  30.8763985  94.0206759 116.2132318
  32.3300678  90.8775845 109.3857934  33.0324721  91.3296888 109.8531860
  31.9981307  90.2359664 110.0137827  26.0726012  89.1359397 114.6875067
  25.2825066  89.3916926 114.2115178  26.5637259  89.9507735 114.7927108
  40.0889822  96.4764637 117.4380348  40.9107265  96.0744824 117.1563030
  40.0852225  96.3732871 118.3896464  28.0240757  89.5003977 111.6458544
  27.2271921  89.6122671 112.1642040  27.7966350  89.8390629 110.7799435
  48.1795815  92.8203385 113.7865320  47.4259523  92.2510783 113.6309324
  48.3143356  92.7866050 114.7335954  33.5694443  97.6916787 109.4620039
  33.4340118  98.5368323 109.8904887  34.1104255  97.8936065 108.6985973
  27.0223840  95.2092225 110.0347964  27.5348361  96.0035476 110.1853529
  27.6746553  94.5118516 109.9681566  28.8318725  98.3257982 112.1170717
  29.0085353  99.2475946 111.9291701  29.6275558  98.0116401 112.5465097
  32.9729743  85.1866246 123.7154651  33.7139457  85.7873400 123.6359113
  33.2047666  84.4443884 123.1572693  36.9186906  81.2147349 117.9918933
  36.5751176  82.1048991 117.9158043  37.2865869  81.0249007 117.1288518
  24.9872757  93.5380880 110.8107535  25.8247979  93.9477888 110.5941242
  25.1651025  92.5980322 110.7807729  36.8837189  91.2055960 106.4991368
  36.3683812  91.9760565 106.7379755  36.6114497  90.5321097 107.1224429
  34.4684300  86.0505661 111.5576606  33.6125896  85.6612512 111.3782245
  34.8811252  86.1297622 110.6976392  35.9983447  83.5852004 115.9568166
  35.4948242  83.5482140 115.1435971  36.2914054  84.4944747 116.0164822
  32.2426333  83.6690734 114.9634347  33.1079329  83.4733543 114.6040237
  32.3103841  83.4401086 115.8903704  41.8571463  93.9588315 108.4344541
  41.0800906  93.6199475 107.9899703  42.5362944  93.9640938 107.7599506
  36.6723492  89.0783053 108.3251149  36.3673628  89.3929202 109.1761292
  37.6253934  89.1564472 108.3678482  35.1169924  95.2373276 109.9744103
  34.5891286  94.5026035 109.6617340  34.6157427  96.0147952 109.7284071
  40.0962770  93.4322296 115.0911149  39.4386444  94.1221558 115.1791278
  40.9003169  93.8218728 115.4345135  29.8488652  85.8992942 112.3350714
  30.4232404  85.6768124 111.6023907  30.4359634  85.9681637 113.0879316
  38.9068229  91.7866669 113.1415091  39.4200111  92.4196661 113.6436801
  39.5569453  91.1867865 112.7758451  30.1758239  87.9297403 106.3546600
  29.3395551  88.2672090 106.6755874  30.0363008  87.7946383 105.4173737
  32.1511319  82.7734191 111.0625784  31.4975732  82.4583208 110.4382398
  32.1091794  82.1509931 111.7885607  33.2622524  93.0553486 102.9779076
  32.3549586  92.8242740 103.1770225  33.7593556  92.2591105 103.1653057
  36.1690603 101.7650993 105.8975762  35.4952302 102.0682690 106.5060720
  36.5556425 102.5680074 105.5481219  35.3849060  89.2616125 115.3873431
  34.4671621  89.4831072 115.2295119  35.8009203  89.3362435 114.5285139
  36.1684107  90.6607540 110.5176112  36.9155926  91.1728937 110.2083234
  36.4375697  90.3391593 111.3780505  34.4410758  93.1566081 107.5003066
  33.5321977  92.8725114 107.5975536  34.4705841  93.5765160 106.6406373
  39.6730025  96.7672670 111.2694233  39.2192352  95.9263580 111.3259424
  39.0423992  97.4034069 111.6069014  38.6162945  87.6964657 112.4994901
  37.8785701  87.1842043 112.8305143  38.8689718  87.2565038 111.6878178
  38.1162964  98.6049167 112.2044052  38.4085939  99.1654224 111.4856417
  38.6261585  98.8977728 112.9597211  38.7174572  80.4740909 113.0936670
  39.0233449  79.6138272 112.8062585  39.4427177  81.0658529 112.8935664
  25.0098928  90.8771595 111.4818268  24.8123328  90.2840956 110.7569335
  24.4545592  90.5723805 112.1994207  32.9895652  90.7694702 113.6012861
  33.0444261  89.8168538 113.5255338  32.1786854  90.9254141 114.0854160
  34.1386845  94.6974825 104.8391144  33.7006275  93.9810684 104.3796782
  34.8797286  94.9250939 104.2776236  30.9288012  89.3871761 111.3603240
  30.1155877  89.6865932 111.7668432  31.4247006  88.9927450 112.0777722
  33.0796590  99.3829518 113.2937505  33.0372768  99.6090365 112.3646037
  33.9959288  99.1492893 113.4423306  36.5262223  89.8513586 120.1918134
  36.8811611  90.0785059 121.0512600  37.1734355  90.1831963 119.5695389
  42.2559960  92.9732022 110.8967463  42.1177859  93.1633618 109.9688652
  41.8996179  93.7351405 111.3535514  30.4202086  86.9590117 116.9764475
  31.0601466  86.8178876 116.2787438  29.5879617  86.6724630 116.6003077
  42.2829340  95.0408549 115.9078735  42.7165847  94.9483838 116.7561789
  42.9960921  95.0166049 115.2698751  31.1962390  96.2592547 113.0899468
  31.9902989  95.7642867 112.8882042  30.4854083  95.7310410 112.7267173
  36.0157235  98.6410643 117.4411835  36.0694257  99.2101579 118.2089551
  35.1472016  98.8112528 117.0765872  27.5045154  90.4035629 109.1659220
  26.5742742  90.3420084 109.3829182  27.6002626  89.8811582 108.3695861
  27.4230703  86.9290442 111.7537462  27.6837520  87.8435775 111.6446622
  28.2447875  86.4614884 111.9034075  43.1444889  95.0832249 118.4411620
  43.3380779  95.9878060 118.6870895  43.0445508  94.6239668 119.2750205
  34.7981200  84.9690140 120.9401947  34.1509115  85.6680090 120.8466424
  35.5682216  85.4026284 121.3078195  34.9745334  92.8070905 118.9998767
  35.9037394  92.9582064 118.8267734  34.5536365  92.8954926 118.1447414
  33.7733666  96.8321569 116.7697305  33.6344752  96.4640354 117.6423243
  32.9848263  97.3469209 116.5981262  34.3681818 101.9330666 108.1122841
  34.5433574 101.4618709 108.9268464  33.6814606 102.5596432 108.3404102
  35.3238881  96.2103172 114.1586142  34.9888714  96.1703942 115.0543792
  34.8242827  95.5447888 113.6856553  38.2598073  93.5559206 104.4323202
  37.6427244  92.8306034 104.3356255  37.7914562  94.3168567 104.0890276
  39.9152205  98.2658115 122.0928982  39.8564751  97.5817335 121.4259565
  40.3171723  99.0077105 121.6409608  30.0496619  87.7744631 103.5544506
  29.1726085  87.6533431 103.1906753  30.5254372  86.9830709 103.3023395
  39.9169612  96.2297699 120.3242962  39.0296391  95.8923620 120.4469361
  40.4868163  95.4980730 120.5611727  33.2360545 100.1270921 110.8007027
  32.4528067 100.6692601 110.8945251  33.9353290 100.6444901 111.2001268
  36.5457195  85.9365550 113.4441232  37.0425895  85.1835513 113.1242302
  35.7744177  85.9729867 112.8784442  44.3986953  91.6405916 115.0859524
  44.3876829  92.5230631 114.7153457  43.5304332  91.2877467 114.8914061
  37.6286976  94.6937238 111.0179656  36.6943255  94.8138700 110.8484360
  37.8063644  93.7909704 110.7539665  33.1292164  88.0782933 113.1712917
  32.7589951  87.5253974 113.8593822  33.6251256  87.4741067 112.6187917
  41.0159527  90.5354557 111.5529690  41.4819979  91.3682549 111.4789992
  41.4667028  90.0699538 112.2574948  39.0835758  96.8798378 108.5515842
  39.3595602  96.7654973 109.4609716  38.2140257  96.4815863 108.5128015
  38.9876190  82.9035144 115.5920591  38.0739270  83.1339371 115.7602798
  39.4169291  82.9873588 116.4434623  38.7582648  91.0925036 118.0920485
  38.1054099  91.3400943 117.4372938  39.1363028  90.2789174 117.7582962
  35.7189822 101.1284729 112.1948655  35.9012217 100.3106385 112.6576408
  36.5422808 101.3452421 111.7573545  36.0531988 100.0552914 109.4563704
  36.5819754  99.5445369 108.8433866  36.3160207  99.7395444 110.3209237
  28.5257498  85.4886924 119.4166023  28.5898824  86.3501755 119.0043421
  28.4624618  84.8760926 118.6838381  24.7775313  89.3686486 108.9957412
  25.0728754  88.4597164 108.9424466  23.8763349  89.3474225 108.6738414
  36.6861392 101.0893750 115.8007820  36.5612531 100.2883490 115.2918766
  37.3440483 101.5839943 115.3121790  28.3069560  87.4442482 114.9784961
  27.5856146  88.0578450 114.8392434  29.0962816  87.9800247 114.9001607
  38.7496300  98.8902770 117.4287370  37.8026636  98.7708121 117.3565697
  39.0979073  98.0025268 117.5113632  31.1095873  84.7796909 121.2525612
  31.6330275  85.0259205 122.0151922  30.8908207  85.6116944 120.8328750
  26.5063154  87.0500583 109.1196737  26.1775861  86.1697962 108.9371843
  26.8602525  86.9948252 110.0073126  35.7542733  98.6855486 113.6291723
  35.6067696  97.7572194 113.8099293  36.5796227  98.7075577 113.1448798
  29.6204978  87.3373553 109.4872215  29.9601050  87.8659475 108.7650823
  30.0677098  87.6753959 110.2630781  39.3576855  99.5084045 114.7156595
  40.2823403  99.3026906 114.5781047  39.1892159  99.2600446 115.6245937
  32.3148418  85.7210604 118.9375283  31.9745239  84.9218417 119.3395963
  31.6087425  86.0212315 118.3652116  32.9664890  82.8059916 117.3902606
  33.7890960  82.3320395 117.2681496  33.2102954  83.5850400 117.8901292
  31.6073125  85.8348175 107.6865508  32.3281487  86.2129428 107.1829224
  30.9838429  86.5537052 107.7900486  35.7504248  86.5393324 108.6223840
  35.9667862  87.4217962 108.3212668  35.2698315  86.1479537 107.8929482
  30.4903469  89.4979037 115.1994585  30.3448050  89.8119340 116.0918866
  30.0128673  90.1163937 114.6465483  32.3499852  86.4881585 115.2475474
  32.3361421  85.5922678 114.9107772  33.0672280  86.4952249 115.8813760
  34.2025983  86.9218925 117.2928602  33.9443760  87.8435996 117.2912932
  33.6711023  86.5249360 117.9829066  39.1472171 100.0269712 110.0718687
  39.3209049  99.4616135 109.3192539  39.6401063 100.8270607 109.8898177
  31.7536748  85.3695965 110.5163044  31.8752659  84.4412612 110.7153932
  31.4638790  85.3834651 109.6041360  34.6227938  83.0550876 113.6529764
  34.6449635  83.1190209 112.6981744  35.0395997  82.2155384 113.8470270
  45.0011563  92.7906135 111.6908987  45.4442709  92.0413461 111.2928110
  44.1238073  92.7816272 111.3082719  40.1347344  99.3436477 107.1715585
  40.8298248  99.9643169 107.3902900  40.4770494  98.4931828 107.4467963
  42.0338767  96.7936182 108.7002916  42.5590091  97.1323455 107.9752236
  41.9461120  95.8583198 108.5166051  33.7179428 102.8608166 113.0598169
  33.2784418 102.3684544 113.7531026  34.4687545 102.3181133 112.8190244
  41.8430548  94.2761552 121.3186842  41.8928553  94.1111560 122.2602365
  41.7344471  93.4088811 120.9284723  30.7266807  96.9550098 108.6078931
  30.8754927  97.6385562 107.9545604  31.5333250  96.9355188 109.1228387
  39.1334310  90.2592480 122.6346149  40.0344173  90.1198945 122.3430147
  39.2082285  90.4246935 123.5744327  33.4677116  87.6359335 121.4799335
  32.5980425  87.9292901 121.2081924  33.7036596  88.2199780 122.2006599
  43.3448745  96.6958494 121.5628864  43.0533553  97.0588474 122.3992325
  42.7320876  95.9825502 121.3842196  44.5444427  94.2611374 114.0831434
  45.3791319  94.7001178 114.2468995  44.6803556  93.7850027 113.2639680
  41.5935933  91.8191108 120.0308922  42.0690055  92.0118755 119.2227773
  40.6701499  91.8750294 119.7852306  28.4819440  92.9815276 109.6140000
  28.2365482  92.0777606 109.8120210  28.6515354  92.9832426 108.6719478
  36.1716150  83.8538952 118.9964756  36.6898093  84.5899979 118.6711244
  35.8171282  84.1602945 119.8311515  27.7515087  88.7143633 107.1126162
  27.0584332  88.7887988 106.4566198  27.5066839  87.9503977 107.6347679
  36.4228744  80.2739235 114.5165652  36.7030498  79.6062424 115.1426079
  37.2079351  80.4668330 114.0040316  34.2262212  99.4498228 106.0790679
  33.6536179 100.0688416 105.6261151  34.7995006  99.9997590 106.6130601
  40.2937602  88.6956869 118.2637228  41.2455025  88.7954966 118.2849452
  40.1241053  87.9035137 118.7735312  38.3151982  85.7812452 118.4496628
  37.7201914  86.0617465 117.7543117  38.0301678  86.2706353 119.2213370
  37.4459472  99.7335379 107.2099261  38.3790145  99.6680940 107.4132137
  37.3582685 100.5691645 106.7513794  40.0747489  99.0501249 104.1703209
  39.9961120  98.7161113 105.0638967  40.8957156  99.5423017 104.1694681
  42.7725680  91.9162988 117.3779527  42.7402000  90.9778989 117.5639211
  43.3826304  91.9947025 116.6445352  34.6109011  90.7859041 103.4206731
  35.5568116  90.6565249 103.4895149  34.2323256  90.0473703 103.8976159
  42.9220168  88.7074032 117.4237810  42.4059217  87.9232488 117.2367739
  43.8060117  88.3792748 117.5884330  40.5830895  82.4515047 113.3833623
  40.3855716  82.1430135 114.2676955  41.1930601  83.1776686 113.5131553
  48.5902230  92.9778995 116.5185564  49.3205618  92.7164283 117.0793267
  47.9809175  92.2407717 116.5587632  46.6717527  91.1186858 117.1160015
  45.9450690  90.9842823 116.5076507  46.2564814  91.4263686 117.9216733
  32.7951928  88.7109018 103.3561616  31.8883383  88.4142130 103.4324330
  33.0727909  88.4138836 102.4895903  34.4113994  83.2545907 109.5105858
  33.6014722  82.9092992 109.8861104  35.0998411  82.9453451 110.0993469
  36.3404542  82.3323954 111.1330154  36.8935581  82.7519408 111.7920178
  36.5774628  81.4059702 111.1753110  31.5650713  85.5695953 103.4973596
  32.4269877  85.8950851 103.7569413  31.7501057  84.7827449 102.9846661
  39.7183349  84.4424479 110.6408819  39.1382018  85.1009283 110.2586871
  39.4519282  83.6201824 110.2296236  38.1686915  83.8429537 112.8430139
  38.6686694  83.9546072 112.0344458  38.8122523  83.5390590 113.4830947
  38.5008227  86.6024570 109.6965167  37.6134082  86.8874220 109.4785362
  38.9162216  86.4418333 108.8492444  41.8522763  86.6271091 113.4119506
  42.6283153  87.1167543 113.6844123  41.1270897  87.0529145 113.8691376
  44.2895322  87.3398710 114.4693447  44.8839813  87.0994446 113.7586755
  44.3621906  86.6205840 115.0966983  37.6451441  96.3669244 103.7913187
  38.3487291  96.5719247 104.4070843  36.9214089  96.9346006 104.0562270
  38.4749251  92.1179106 109.9115457  38.4184452  92.5747657 109.0723090
  39.0277593  91.3569790 109.7338300  42.2854057  87.9068837 110.7365577
  42.0290991  87.5065473 111.5673784  41.6606925  88.6212631 110.6115716
  46.5966395  90.6464911 113.2436868  46.0365953  90.7158100 114.0168430
  45.9909898  90.4705895 112.5236364  39.5538138  96.8051774 105.8411647
  40.3883742  96.3732972 105.6589122  39.3922481  96.6333787 106.7688541
  39.2084030  93.3083887 107.2067986  39.1532834  93.1428158 106.2656430
  38.5830085  94.0159920 107.3630176  32.5180156  82.8091996 106.7853305
  32.5058825  83.7533836 106.9421576  33.4103577  82.6262141 106.4912766
  36.3332275  79.4034773 111.0399241  35.5664671  78.8493259 111.1855924
  36.7442980  79.4756641 111.9013393  44.9912119 107.2748853 115.8728348
  44.6530631 107.1589917 114.9848883  45.8601887 106.8740018 115.8529355
  40.8498935 109.1284329 111.8625239  40.2863800 109.0374266 111.0941527
  40.7351330 108.3084234 112.3427732  46.4298494 112.7955297 107.1739704
  45.7786473 113.3809377 106.7873718  47.2242857 113.3261492 107.2334742
  40.3554121 109.8844434 107.5726839  41.1284997 109.3373421 107.4339714
  40.7079520 110.7488683 107.7841300  42.6920399 106.0437100 105.2045289
  42.9445919 105.5218621 104.4428752  41.7544958 105.8803246 105.3071972
  47.7363681 105.0472879 113.0120032  48.5226771 104.6292302 112.6610449
  48.0002386 105.9518971 113.1801680  47.9073759 110.4845729 107.7108689
  47.2719592 110.5580355 108.4229593  47.5771165 111.0739328 107.0327768
  53.1372109 104.9848112 113.9153010  53.8697281 104.4147329 114.1490840
  52.3811464 104.5969712 114.3559516  42.4116687 107.9465206 107.4069663
  42.2952946 107.2710109 108.0750748  42.5218947 107.4597580 106.5901817
  44.7548228 107.4075353 111.1116353  44.3906436 106.8805974 111.8229274
  45.6115344 107.0173822 110.9382838  50.6597529  98.6969686 118.3747619
  50.3280854  99.5665097 118.1508834  50.0643142  98.3805970 119.0541649
  44.3953715 102.4365253 106.1077701  44.5628118 103.3045489 106.4748172
  44.2050884 102.5992535 105.1838990  40.6041530 107.3496029 113.8080236
  39.6792026 107.2172243 114.0157928  40.8525943 108.1290248 114.3050178
  44.3742936 104.8922910 107.0924368  44.2542561 105.3379961 107.9309848
  43.6795525 105.2408228 106.5337906  42.1349828 117.6626552 110.7414499
  42.0573858 118.6134377 110.8202980  41.5311472 117.3172425 111.3989426
  50.0728002 105.3644384 107.9204702  50.9845858 105.5971770 107.7452400
  49.5637649 105.9481428 107.3579781  47.4163977 101.5402420 116.1694563
  46.5548456 101.8383673 116.4611301  47.4426412 101.7572818 115.2375596
  44.2325547 110.0844610 112.5768369  44.6963892 110.3632313 111.7872991
  43.9682345 109.1828055 112.3941459  41.1249628 109.6316092 115.5148132
  41.6950985 110.0603360 114.8765616  41.7157739 109.3498676 116.2132318
  43.1694433 106.2067763 109.3857934  43.8718476 106.6588806 109.8531860
  42.8375061 105.5651581 110.0137827  36.9119767 104.4651315 114.6875067
  36.1218821 104.7208844 114.2115178  37.4031014 105.2799653 114.7927108
  38.8634512 104.8295894 111.6458544  38.0665675 104.9414589 112.1642040
  38.6360104 105.1682547 110.7799435  44.4088197 113.0208705 109.4620039
  44.2733872 113.8660241 109.8904887  44.9498010 113.2227983 108.6985973
  37.8617595 110.5384143 110.0347964  38.3742115 111.3327393 110.1853529
  38.5140307 109.8410434 109.9681566  39.6712479 113.6549899 112.1170717
  39.8479108 114.5767864 111.9291701  40.4669313 113.3408319 112.5465097
  47.7580661  96.5439267 117.9918933  47.4144930  97.4340909 117.9158043
  48.1259623  96.3540925 117.1288518  35.8266511 108.8672797 110.8107535
  36.6641733 109.2769806 110.5941242  36.0044779 107.9272240 110.7807729
  47.7230944 106.5347878 106.4991368  47.2077567 107.3052483 106.7379755
  47.4508252 105.8613014 107.1224429  45.3078055 101.3797579 111.5576606
  44.4519651 100.9904429 111.3782245  45.7205006 101.4589540 110.6976392
  46.8377201  98.9143922 115.9568166  46.3341997  98.8774057 115.1435971
  47.1307808  99.8236665 116.0164822  43.0820087  98.9982652 114.9634347
  43.9473084  98.8025461 114.6040237  43.1497596  98.7693004 115.8903704
  52.6965218 109.2880233 108.4344541  51.9194660 108.9491392 107.9899703
  53.3756699 109.2932856 107.7599506  47.5117247 104.4074970 108.3251149
  47.2067382 104.7221119 109.1761292  48.4647689 104.4856390 108.3678482
  45.9563679 110.5665194 109.9744103  45.4285040 109.8317953 109.6617340
  45.4551181 111.3439870 109.7284071  40.6882406 101.2284860 112.3350714
  41.2626158 101.0060041 111.6023907  41.2753389 101.2973554 113.0879316
  49.7461983 107.1158587 113.1415091  50.2593865 107.7488579 113.6436801
  50.3963207 106.5159782 112.7758451  41.0151993 103.2589321 106.3546600
  40.1789306 103.5964007 106.6755874  40.8756763 103.1238301 105.4173737
  42.9905074  98.1026109 111.0625784  42.3369486  97.7875126 110.4382398
  42.9485548  97.4801849 111.7885607  44.1016279 108.3845404 102.9779076
  43.1943340 108.1534657 103.1770225  44.5987311 107.5883023 103.1653057
  47.0084358 117.0942911 105.8975762  46.3346056 117.3974608 106.5060720
  47.3950180 117.8971991 105.5481219  46.2242814 104.5908042 115.3873431
  45.3065376 104.8122989 115.2295119  46.6402958 104.6654353 114.5285139
  47.0077862 105.9899458 110.5176112  47.7549681 106.5020855 110.2083234
  47.2769452 105.6683511 111.3780505  45.2804512 108.4857999 107.5003066
  44.3715731 108.2017031 107.5975536  45.3099596 108.9057077 106.6406373
  49.4556699 103.0256574 112.4994901  48.7179456 102.5133960 112.8305143
  49.7083473 102.5856956 111.6878178  49.5568326  95.8032826 113.0936670
  49.8627203  94.9430190 112.8062585  50.2820931  96.3950446 112.8935664
  35.8492683 106.2063513 111.4818268  35.6517082 105.6132873 110.7569335
  35.2939347 105.9015723 112.1994207  43.8289406 106.0986619 113.6012861
  43.8838016 105.1460456 113.5255338  43.0180608 106.2546058 114.0854160
  44.9780600 110.0266742 104.8391144  44.5400030 109.3102601 104.3796782
  45.7191041 110.2542857 104.2776236  41.7681766 104.7163679 111.3603240
  40.9549632 105.0157850 111.7668432  42.2640760 104.3219368 112.0777722
  53.0953715 108.3023939 110.8967463  52.9571613 108.4925535 109.9688652
  52.7389934 109.0643322 111.3535514  41.2595841 102.2882035 116.9764475
  41.8995220 102.1470794 116.2787438  40.4273371 102.0016548 116.6003077
  42.0356145 111.5884465 113.0899468  42.8296743 111.0934785 112.8882042
  41.3247837 111.0602328 112.7267173  38.3438908 105.7327547 109.1659220
  37.4136496 105.6712002 109.3829182  38.4396380 105.2103499 108.3695861
  38.2624457 102.2582360 111.7537462  38.5231275 103.1727693 111.6446622
  39.0841630 101.7906802 111.9034075  45.2075573 117.2622583 108.1122841
  45.3827328 116.7910627 108.9268464  44.5208361 117.8888350 108.3404102
  49.0991828 108.8851124 104.4323202  48.4820998 108.1597952 104.3356255
  48.6308316 109.6460484 104.0890276  40.8890373 103.1036548 103.5544506
  40.0119840 102.9825349 103.1906753  41.3648127 102.3122627 103.3023395
  44.0754300 115.4562839 110.8007027  43.2921821 115.9984519 110.8945251
  44.7747045 115.9736818 111.2001268  47.3850950 101.2657468 113.4441232
  47.8819649 100.5127430 113.1242302  46.6137931 101.3021785 112.8784442
  48.4680730 110.0229155 111.0179656  47.5337009 110.1430618 110.8484360
  48.6457399 109.1201622 110.7539665  43.9685918 103.4074851 113.1712917
  43.5983706 102.8545891 113.8593822  44.4645011 102.8032985 112.6187917
  51.8553282 105.8646475 111.5529690  52.3213734 106.6974466 111.4789992
  52.3060782 105.3991456 112.2574948  49.9229513 112.2090296 108.5515842
  50.1989357 112.0946890 109.4609716  49.0534012 111.8107781 108.5128015
  49.8269944  98.2327062 115.5920591  48.9133024  98.4631288 115.7602798
  50.2563046  98.3165506 116.4434623  46.8925742 115.3844832 109.4563704
  47.4213509 114.8737286 108.8433866  47.1553962 115.0687362 110.3209237
  39.3651252 100.8178842 119.4166023  39.4292579 101.6793673 119.0043421
  39.3018372 100.2052844 118.6838381  35.6169067 104.6978404 108.9957412
  35.9122508 103.7889082 108.9424466  34.7157103 104.6766143 108.6738414
  39.1463314 102.7734400 114.9784961  38.4249900 103.3870368 114.8392434
  39.9356570 103.3092165 114.9001607  37.3456909 102.3792501 109.1196737
  37.0169615 101.4989880 108.9371843  37.6996280 102.3240170 110.0073126
  40.4598732 102.6665471 109.4872215  40.7994805 103.1951392 108.7650823
  40.9070853 103.0045877 110.2630781  43.1542173 101.0502522 118.9375283
  42.8138993 100.2510335 119.3395963  42.4481179 101.3504233 118.3652116
  43.8058645  98.1351834 117.3902606  44.6284714  97.6612312 117.2681496
  44.0496708  98.9142318 117.8901292  42.4466879 101.1640093 107.6865508
  43.1675242 101.5421345 107.1829224  41.8232183 101.8828969 107.7900486
  46.5898002 101.8685242 108.6223840  46.8061616 102.7509879 108.3212668
  46.1092069 101.4771455 107.8929482  41.3297223 104.8270955 115.1994585
  41.1841804 105.1411258 116.0918866  40.8522427 105.4455855 114.6465483
  43.1893606 101.8173503 115.2475474  43.1755175 100.9214596 114.9107772
  43.9066034 101.8244166 115.8813760  45.0419737 102.2510843 117.2928602
  44.7837515 103.1727914 117.2912932  44.5104777 101.8541277 117.9829066
  42.5930502 100.6987883 110.5163044  42.7146413  99.7704529 110.7153932
  42.3032545 100.7126569 109.6041360  45.4621693  98.3842793 113.6529764
  45.4843389  98.4482127 112.6981744  45.8789752  97.5447302 113.8470270
  50.9741098 114.6728394 107.1715585  51.6692003 115.2935087 107.3902900
  51.3164248 113.8223746 107.4467963  52.8732521 112.1228100 108.7002916
  53.3983846 112.4615373 107.9752236  52.7854874 111.1875115 108.5166051
  41.5660561 112.2842016 108.6078931  41.7148682 112.9677480 107.9545604
  42.3727005 112.2647106 109.1228387  39.3213194 108.3107193 109.6140000
  39.0759236 107.4069523 109.8120210  39.4909109 108.3124344 108.6719478
  47.0109904  99.1830870 118.9964756  47.5291848  99.9191897 118.6711244
  46.6565037  99.4894863 119.8311515  38.5908842 104.0435551 107.1126162
  37.8978087 104.1179906 106.4566198  38.3460594 103.2795895 107.6347679
  47.2622498  95.6031152 114.5165652  47.5424252  94.9354341 115.1426079
  48.0473105  95.7960248 114.0040316  45.0655967 114.7790146 106.0790679
  44.4929934 115.3980333 105.6261151  45.6388760 115.3289508 106.6130601
  48.2853227 115.0627296 107.2099261  49.2183900 114.9972858 107.4132137
  48.1976439 115.8983563 106.7513794  50.9141243 114.3793167 104.1703209
  50.8354875 114.0453030 105.0638967  51.7350910 114.8714935 104.1694681
  45.4502765 106.1150959 103.4206731  46.3961870 105.9857167 103.4895149
  45.0717010 105.3765621 103.8976159  51.4224650  97.7806965 113.3833623
  51.2249471  97.4722053 114.2676955  52.0324355  98.5068604 113.5131553
  43.6345682 104.0400935 103.3561616  42.7277138 103.7434048 103.4324330
  43.9121663 103.7430753 102.4895903  45.2507748  98.5837825 109.5105858
  44.4408476  98.2384910 109.8861104  45.9392165  98.2745369 110.0993469
  47.1798296  97.6615872 111.1330154  47.7329335  98.0811325 111.7920178
  47.4168383  96.7351620 111.1753110  42.4044467 100.8987871 103.4973596
  43.2663631 101.2242769 103.7569413  42.5894811 100.1119366 102.9846661
  50.5577104  99.7716397 110.6408819  49.9775773 100.4301201 110.2586871
  50.2913036  98.9493742 110.2296236  49.0080670  99.1721455 112.8430139
  49.5080448  99.2837989 112.0344458  49.6516278  98.8682508 113.4830947
  49.3401982 101.9316487 109.6965167  48.4527837 102.2166138 109.4785362
  49.7555971 101.7710251 108.8492444  52.6916518 101.9563008 113.4119506
  53.4676908 102.4459461 113.6844123  51.9664652 102.3821063 113.8691376
  55.1289076 102.6690628 114.4693447  55.7233567 102.4286364 113.7586755
  55.2015660 101.9497758 115.0966983  48.4845195 111.6961162 103.7913187
  49.1881045 111.9011165 104.4070843  47.7607844 112.2637924 104.0562270
  49.3143005 107.4471023 109.9115457  49.2578207 107.9039575 109.0723090
  49.8671348 106.6861708 109.7338300  53.1247811 103.2360755 110.7365577
  52.8684745 102.8357391 111.5673784  52.5000679 103.9504549 110.6115716
  50.3931892 112.1343691 105.8411647  51.2277496 111.7024890 105.6589122
  50.2316235 111.9625705 106.7688541  50.0477785 108.6375805 107.2067986
  49.9926588 108.4720076 106.2656430  49.4223840 109.3451837 107.3630176
  43.3573910  98.1383914 106.7853305  43.3452580  99.0825753 106.9421576
  44.2497332  97.9554059 106.4912766  47.1726030  94.7326690 111.0399241
  46.4058425  94.1785177 111.1855924  47.5836734  94.8048559 111.9013393
  51.8545748 118.5881239 106.3546600  51.0183060 118.9255925 106.6755874
  51.7150517 118.4530218 105.4173737  51.7284128 118.4328466 103.5544506
  50.8513594 118.3117267 103.1906753  52.2041881 117.6414544 103.3023395
  49.4302596 119.3727469 107.1126162  48.7371841 119.4471824 106.4566198
  49.1854348 118.6087812 107.6347679  54.4739437 119.3692853 103.3561616
  53.5670892 119.0725966 103.4324330  54.7515418 119.0722671 102.4895903
  53.2438222 116.2279788 103.4973596  54.1057386 116.5534687 103.7569413
  53.4288566 115.4411284 102.9846661  54.1967665 113.4675831 106.7853305
  54.1846334 114.4117671 106.9421576  55.0891086 113.2845977 106.4912766
   3.6509341  32.7837363  92.6221069   2.9771040  33.0869060  93.2306026
   4.0375163  33.5866443  92.2726526   5.7416811  24.5745576  91.1568509
   5.1245982  23.8492404  91.0601561   5.2733299  25.3354936  90.8135583
   7.6166082  30.3622846  93.8960892   8.3116986  30.9829539  94.1148206
   7.9589232  29.5118198  94.1713270   1.7080950  30.4684598  92.8035985
   1.1354917  31.0874785  92.3506457   2.2813744  31.0183960  93.3375907
   4.9278210  30.7521748  93.9344568   5.8608883  30.6867310  94.1377443
   4.8401423  31.5878015  93.4759100   7.5566227  30.0687619  90.8948515
   7.4779858  29.7347482  91.7884273   8.3775893  30.5609386  90.8939988
   5.1270178  27.3855614  90.5158494   5.8306028  27.5905616  91.1316149
   4.4032827  27.9532376  90.7807577   7.0356876  27.8238143  92.5656954
   7.8702480  27.3919342  92.3834428   6.8741219  27.6520157  93.4933848
  15.6641151  38.3407794 102.6612130  16.3019561  38.2214542 101.9575470
  15.5461994  39.2888638 102.7200083  12.4730857  38.2935222 102.5973655
  12.1349369  38.1776287 101.7094190  13.3420625  37.8926387 102.5774661
   8.3317673  40.1470699  98.5870546   7.7682538  40.0560636  97.8186834
   8.2170068  39.3270603  99.0673039  13.9117232  43.8141666  93.8985011
  13.2605211  44.3995747  93.5119025  14.7061594  44.3447861  93.9580048
   7.8372859  40.9030804  94.2972145   8.6103735  40.3559791  94.1585021
   8.1898258  41.7675053  94.5086607  10.1739136  37.0623470  91.9290595
  10.4264657  36.5404991  91.1674058   9.2363696  36.8989615  92.0317279
  15.2182419  36.0659248  99.7365338  16.0045509  35.6478671  99.3855755
  15.4821124  36.9705340  99.9046987  15.3892497  41.5032098  94.4353995
  14.7538330  41.5766725  95.1474900  15.0589903  42.0925697  93.7573074
  20.6190846  36.0034481 100.6398317  21.3516018  35.4333698 100.8736146
  19.8630202  35.6156082 101.0804822   9.8935425  38.9651576  94.1314970
   9.7771683  38.2896479  94.7996054  10.0037685  38.4783950  93.3147123
  12.2366966  38.4261723  97.8361659  11.8725173  37.8992344  98.5474581
  13.0934082  38.0360192  97.6628145  11.8772453  33.4551622  92.8323008
  12.0446855  34.3231859  93.1993479  11.6869622  33.6178904  91.9084297
  14.6347786  41.9168601 104.4988838  14.3348509  42.8193640 104.3904645
  14.2898846  41.6500785 105.3509991  18.0344930  34.4351142 102.1786276
  17.1261807  34.3666550 101.8845037  17.9832526  34.9123087 103.0068101
  11.8561674  35.9109280  93.8169675  11.7361299  36.3566331  94.6555155
  11.1614262  36.2594598  93.2583213   9.6168566  48.6812922  97.4659806
   9.5392596  49.6320747  97.5448287   9.0130210  48.3358794  98.1234732
  17.5546740  36.3830753  94.6450009  18.4664596  36.6158140  94.4697706
  17.0456387  36.9667797  94.0825087  16.1616322  41.3656572 102.0363590
  15.5325185  41.5302286 101.3339658  15.7741985  41.7798181 102.8074554
  20.0405554  42.3011009  99.3907954  19.3556593  42.6809911  98.8404987
  20.1249404  42.9106336 100.1239902  11.7144284  41.1030980  99.3013675
  12.1782630  41.3818683  98.5118298  11.4501082  40.2014424  99.1186766
  10.6513170  37.2254132  96.1103240  11.3537214  37.6775176  96.5777167
  10.3193799  36.5837951  96.7383134  18.4102314  42.8242924 104.1625655
  19.2319758  42.4223111 103.8808336  18.4064717  42.7211158 105.1141771
  26.5008307  39.1681672 100.5110626  25.7472015  38.5989070 100.3554631
  26.6355848  39.1344337 101.4581261  11.8906935  44.0395075  96.1865346
  11.7552610  44.8846610  96.6150193  12.4316748  44.2414352  95.4231279
   5.3436332  41.5570513  96.7593271   5.8560853  42.3513763  96.9098835
   5.9959045  40.8596803  96.6926872   7.1531217  44.6736269  98.8416024
   7.3297845  45.5954234  98.6537008   7.9488051  44.3594688  99.2710404
   8.2762533  46.1914443 104.8426366   8.8269958  46.0631506 104.0703360
   7.4374008  46.4909332 104.4921259   3.3085249  39.8859167  97.5352841
   4.1460471  40.2956175  97.3186549   3.4863517  38.9458609  97.5053035
  15.2049681  37.5534248  93.2236674  14.6896305  38.3238852  93.4625062
  14.9326990  36.8799384  93.8469736  12.7896792  32.3983948  98.2821913
  11.9338389  32.0090799  98.1027551  13.2023744  32.4775909  97.4221698
  20.1783955  40.3066602  95.1589848  19.4013398  39.9677762  94.7145010
  20.8575436  40.3119225  94.4844813  14.9935984  35.4261340  95.0496455
  14.6886120  35.7407489  95.9006599  15.9466427  35.5042760  95.0923788
  13.4382416  41.5851563  96.6989409  12.9103778  40.8504323  96.3862647
  12.9369919  42.3626239  96.4529378  18.4175262  39.7800584 101.8156456
  17.7598937  40.4699845 101.9036584  19.2215662  40.1697016 102.1590442
  17.2280721  38.1344956  99.8660397  17.7412603  38.7674948 100.3682107
  17.8781945  37.5346152  99.5003757   8.4970731  34.2775690  93.0791906
   7.6608043  34.6150377  93.4001181   8.3575501  34.1424670  92.1419043
  11.5835016  39.4031773  89.7024382  10.6762078  39.1721027  89.9015531
  12.0806048  38.6069393  89.8898364  14.4903095  48.1129281  92.6221069
  13.8164794  48.4160977  93.2306026  14.8768917  48.9158361  92.2726526
  14.4896600  37.0085828  97.2421418  15.2368419  37.5207225  96.9328540
  14.7588189  36.6869880  98.1025812  12.7623250  39.5044368  94.2248373
  11.8534469  39.2203401  94.3220842  12.7918334  39.9243447  93.3651679
  17.9942517  43.1150958  97.9939540  17.5404844  42.2741868  98.0504731
  17.3636484  43.7512356  98.3314320  16.9375437  34.0442944  99.2240208
  16.1998194  33.5320330  99.5550450  17.1902210  33.6043325  98.4123484
  16.4375457  44.9527454  98.9289358  16.7298431  45.5132512  98.2101724
  16.9474077  45.2456015  99.6842517  11.3108144  37.1172989 100.3258168
  11.3656754  36.1646825 100.2500644  10.4999346  37.2732428 100.8099466
  12.4599338  41.0453112  91.5636451  12.0218768  40.3288971  91.1042088
  13.2009779  41.2729227  91.0021542   9.2500504  35.7350049  98.0848547
   8.4368369  36.0344219  98.4913739   9.7459498  35.3405737  98.8023029
  11.4009082  45.7307806 100.0182811  11.3585261  45.9568652  99.0891343
  12.3171781  45.4971180 100.1668613  20.5772453  39.3210309  97.6212770
  20.4390351  39.5111905  96.6933959  20.2208671  40.0829692  98.0780821
  20.6041832  41.3886836 102.6324041  21.0378339  41.2962125 103.4807095
  21.3173413  41.3644336 101.9944057   9.5174883  42.6070835  99.8144774
  10.3115481  42.1121155  99.6127349   8.8066575  42.0788698  99.4512480
  14.3369727  44.9888930 104.1657142  14.3906749  45.5579866 104.9334858
  13.4684508  45.1590815 103.8011179   5.8257646  36.7513916  95.8904527
   4.8955234  36.6898372  96.1074489   5.9215118  36.2289869  95.0941168
  21.4657382  41.4310537 105.1656927  21.6593272  42.3356347 105.4116202
  21.3658000  40.9717956 105.9995512  12.0946159  43.1799857 103.4942611
  11.9557244  42.8118641 104.3668549  11.3060755  43.6947496 103.3226569
  12.6894311  48.2808953  94.8368148  12.8646066  47.8096996  95.6513770
  12.0027099  48.9074719  95.0649409  13.6451374  42.5581459 100.8831449
  13.3101206  42.5182229 101.7789099  13.1455319  41.8926175 100.4101859
  16.5810565  39.9037494  91.1568509  15.9639736  39.1784322  91.0601561
  16.1127054  40.6646854  90.8135583   7.2555396  51.4298316 101.6108008
   7.4951994  52.0616840 102.2887027   6.4124592  51.0786356 101.8973367
   8.3709111  34.1222918  90.2789813   7.4938578  34.0011719  89.9152060
   8.8466864  33.3308996  90.0268702  11.7683258  47.2377438 104.0149512
  11.6953429  48.0432410 104.5268816  11.3260651  47.4369404 103.1897533
  11.5573037  46.4749208  97.5252333  10.7740559  47.0170888  97.6190558
  12.2565782  46.9923188  97.9246575  14.8669687  32.2843838 100.1686539
  15.3638387  31.5313800  99.8487609  14.0956669  32.3208154  99.6029748
  22.7199445  37.9884203 101.8104830  22.7089321  38.8708919 101.4398763
  21.8516824  37.6355754 101.6159367  14.2281941  47.1364272 106.1707671
  14.9409913  47.7711737 106.0983572  13.7371970  47.2328138 105.3547672
  15.9499468  41.0415525  97.7424962  15.0155747  41.1616987  97.5729667
  16.1276137  40.1387992  97.4784972  19.3372019  36.8832844  98.2774996
  19.8032472  37.7160836  98.2035299  19.7879520  36.4177826  98.9820255
  17.4048251  43.2276665  95.2761148  17.6808094  43.1133260  96.1855023
  16.5352749  42.8294150  95.2373322  14.0402315  47.4763016  98.9193962
  14.2224709  46.6584672  99.3821714  14.8635301  47.6930709  98.4818852
  14.3744480  46.4031201  96.1809011  14.9032247  45.8923656  95.5679173
  14.6372700  46.0873732  97.0454544   7.7300228  47.4546318  98.9406786
   7.0610603  47.9392446  98.4570827   7.5913098  47.7015539  99.8550165
  11.8705497  49.4890062 105.5389445  12.4223805  49.6521683 106.3038530
  12.2111690  50.0794499 104.8669470   3.0987805  35.7164773  95.7202719
   3.3941246  34.8075451  95.6669772   2.1975841  35.6952513  95.3983721
  15.0073884  47.4372037 102.5253127  14.8825023  46.6361777 102.0164072
  15.6652975  47.9318231 102.0367097  17.0708792  45.2381057 104.1532677
  16.1239128  45.1186408 104.0811004  17.4191565  44.3503555 104.2358939
   4.8275647  33.3978871  95.8442044   4.4988353  32.5176250  95.6617150
   5.1815017  33.3426539  96.7318433  14.0755226  45.0333773 100.3537029
  13.9280188  44.1050481 100.5344599  14.9008719  45.0553864  99.8694105
   7.9417470  33.6851841  96.2117521   8.2813542  34.2137762  95.4896130
   8.3889590  34.0232247  96.9876088  17.6789347  45.8562332 101.4401902
  18.6035895  45.6505194 101.3026353  17.5104651  45.6078733 102.3491244
   9.9285617  32.1826462  94.4110814  10.6493979  32.5607715  93.9074531
   9.3050921  32.9015339  94.5145792  14.0716740  32.8871611  95.3469147
  14.2880354  33.7696249  95.0457975  13.5910807  32.4957825  94.6174789
  17.4684664  46.3748000  96.7963994  17.6421541  45.8094422  96.0437846
  17.9613555  47.1748895  96.6143483  10.0749240  31.7174253  97.2408351
  10.1965151  30.7890899  97.4399238   9.7851282  31.7312939  96.3286666
  23.3224055  39.1384423  98.4154293  23.7655201  38.3891748  98.0173417
  22.4450565  39.1294559  98.0328025  18.4559836  45.6914764  93.8960892
  19.1510741  46.3121457  94.1148206  18.7982986  44.8410115  94.1713270
  20.3551259  43.1414470  95.4248223  20.8802583  43.4801742  94.6997543
  20.2673612  42.2061485  95.2411357  12.0391920  49.2086453  99.7843476
  11.5996910  48.7162832 100.4776332  12.7900037  48.6659421  99.5435551
   4.5184259  45.3997994  99.7868104   5.3442279  45.1001766  99.4066747
   4.1678311  44.6305616 100.2357892   9.4865792  44.7524462 101.8565777
   8.8645801  44.0895167 101.5568005  10.1570659  44.7785594 101.1739425
   2.7192864  43.3184320 100.7457037   1.8824772  42.8906495 100.5641039
   2.6916509  43.5116764 101.6827829   9.0479299  43.3028385  95.3324238
   9.1967419  43.9863850  94.6790911   9.8545742  43.2833475  95.8473694
  21.6661237  43.0436781 108.2874171  21.3746045  43.4066762 109.1237632
  21.0533368  42.3303789 108.1087503  22.8656919  40.6089661 100.8076741
  23.7003811  41.0479465 100.9714301  23.0016048  40.1328314  99.9884987
   6.8031932  39.3293563  96.3385307   6.5577974  38.4255893  96.5365517
   6.9727847  39.3310713  95.3964785   6.0727580  35.0621920  93.8371468
   5.3796824  35.1366275  93.1811504   5.8279331  34.2982264  94.3592985
  12.5474705  45.7976516  92.8035985  11.9748672  46.4166703  92.3506457
  13.1207498  46.3475877  93.3375907  15.7671964  46.0813666  93.9344568
  16.7002637  46.0159228  94.1377443  15.6795177  46.9169933  93.4759100
  18.3959981  45.3979536  90.8948515  18.3173613  45.0639400  91.7884273
  19.2169648  45.8901304  90.8939988  21.0938172  38.2641276 104.1024834
  21.0614492  37.3257276 104.2884518  21.7038796  38.3425312 103.3690659
  12.9321503  37.1337328  90.1452038  13.8780608  37.0043537  90.2140456
  12.5535748  36.3951990  90.6221466  26.9114722  39.3257282 103.2430871
  27.6418111  39.0642570 103.8038574  26.3021668  38.5886004 103.2832939
  24.9930019  37.4665145 103.8405322  24.2663183  37.3321110 103.2321813
  24.5777306  37.7741974 104.6462040  11.1164420  35.0587305  90.0806923
  10.2095876  34.7620418  90.1569637  11.3940401  34.7617123  89.2141209
  12.7326486  29.6024195  96.2351164  11.9227214  29.2571280  96.6106410
  13.4210903  29.2931738  96.8238776   9.8863205  31.9174240  90.2218902
  10.7482369  32.2429138  90.4814720  10.0713549  31.1305736  89.7091968
  18.0395841  30.7902767  97.3654125  17.4594510  31.4487571  96.9832178
  17.7731774  29.9680111  96.9541543  16.8220719  32.9502857  96.4210474
  15.9346574  33.2352508  96.2030668  17.2374708  32.7896620  95.5737750
  20.1735255  32.9749378 100.1364813  20.9495646  33.4645830 100.4089430
  19.4483390  33.4007432 100.5936682  22.6107814  33.6876997 101.1938753
  23.2052305  33.4472733 100.4832062  22.6834398  32.9684128 101.8212290
   4.8304970  47.5310608 101.5081918   4.6959438  46.7711009 100.9419916
   4.4137032  48.2551508 101.0410707  15.9663933  42.7147532  90.5158494
  16.6699783  42.9197534  91.1316149  15.2426582  43.2824293  90.7807577
  16.7961743  38.4657393  96.6360764  16.7396944  38.9225944  95.7968396
  17.3490086  37.7048077  96.4583606  20.6066549  34.2547125  97.4610883
  20.3503483  33.8543760  98.2919091  19.9819417  34.9690919  97.3361022
  24.9178887  36.9943198  99.9682175  24.3578445  37.0636387 100.7413737
  24.3122390  36.8184183  99.2481671   7.9874096  48.4279925 101.7200361
   7.8706480  49.3725358 101.6179051   7.1666542  48.1253487 102.1086160
  17.8750630  43.1530061  92.5656954  18.7096234  42.7211259  92.3834428
  17.7134973  42.9812074  93.4933848  17.5296522  39.6562174  93.9313293
  17.4745326  39.4906446  92.9901737  16.9042578  40.3638207  94.0875483
  10.8392648  29.1570283  93.5098611  10.8271318  30.1012123  93.6666882
  11.7316070  28.9740429  93.2158073   9.0128610  49.0808187 104.9356289
   9.9155856  49.1131797 105.2522784   8.7865980  48.1508638 104.9502625
  10.7682212  47.8339174 101.5966368   9.8177843  47.8341035 101.4830740
  11.0714698  47.0871908 101.0802403  26.5034905  53.6699712 102.6612130
  27.1413315  53.5506459 101.9575470  26.3855748  54.6180556 102.7200083
  23.3124612  53.6227140 102.5973655  22.9743123  53.5068205 101.7094190
  24.1814380  53.2218305 102.5774661  19.1711427  55.4762616  98.5870546
  18.6076292  55.3852553  97.8186834  19.0563822  54.6562521  99.0673039
  23.7944395  54.7761992 108.5559861  23.7833035  54.3814790 107.6840364
  23.9565034  54.0428064 109.1493632  16.7175859  56.9713808 101.4254766
  17.5097151  56.6304633 101.0101066  16.9572509  57.0808783 102.3456920
  24.7510986  59.1433584  93.8985011  24.0998966  59.7287665  93.5119025
  25.5455349  59.6739779  93.9580048  18.6766613  56.2322721  94.2972145
  19.4497489  55.6851708  94.1585021  19.0292012  57.0966971  94.5086607
  20.5151656  57.5599104 107.5039045  20.2241522  58.4644734 107.3885711
  21.1508640  57.6015631 108.2183114  21.4407863  54.9375952 104.0940404
  22.0371435  54.7131974 103.3797367  21.4982834  54.1960698 104.6965852
  21.0132891  52.3915387  91.9290595  21.2658412  51.8696909  91.1674058
  20.0757450  52.2281533  92.0317279  26.0576174  51.3951166  99.7365338
  26.8439263  50.9770589  99.3855755  26.3214878  52.2997258  99.9046987
  31.4584601  51.3326399 100.6398317  32.1909773  50.7625616 100.8736146
  30.7023957  50.9447999 101.0804822  20.7329180  54.2943493  94.1314970
  20.6165438  53.6188397  94.7996054  20.8431440  53.8075867  93.3147123
  23.0760721  53.7553640  97.8361659  22.7118928  53.2284261  98.5474581
  23.9327837  53.3652110  97.6628145  28.9810021  45.0447973 105.0992926
  28.6493346  45.9143384 104.8754140  28.3855635  44.7284257 105.7786956
  22.7166208  48.7843540  92.8323008  22.8840610  49.6523777  93.1993479
  22.5263377  48.9470822  91.9084297  25.4741541  57.2460519 104.4988838
  25.1742264  58.1485558 104.3904645  25.1292600  56.9792702 105.3509991
  18.9254022  53.6974316 100.5325543  18.0004519  53.5650530 100.7403234
  19.1738435  54.4768535 101.0295485  28.8738685  49.7643059 102.1786276
  27.9655562  49.6958468 101.8845037  28.8226280  50.2415004 103.0068101
  22.6955428  51.2401198  93.8169675  22.5755054  51.6858248  94.6555155
  22.0008017  51.5886515  93.2583213  16.2862833  53.3407589 101.3669332
  16.4155214  53.5942068 102.2808743  15.6060285  53.9335297 101.0473987
  20.4562321  64.0104839  97.4659806  20.3786350  64.9612664  97.5448287
  19.8523964  63.6650712  98.1234732  22.9479550  51.1832705 110.1221173
  22.1712884  51.7426625 110.1124037  23.5870113  51.6689488 110.6436043
  30.7400331  47.9659498 103.9564149  30.0974711  48.2592031 103.3103944
  30.2355260  47.8512418 104.7617346  28.3940495  51.7122671  94.6450009
  29.3058351  51.9450058  94.4697706  27.8850142  52.2959715  94.0825087
  21.2025923  53.9918158 109.6839140  21.9440607  54.5303202 109.4073963
  20.4962908  54.6184447 109.8410692  26.6781262  56.1347299 108.2811301
  27.0864618  55.6929709 107.5365934  25.9558524  55.5599926 108.5345494
  23.0312332  51.0719905 105.6544858  23.8773528  51.4959319 105.7979507
  22.9710970  50.4153530 106.3483421  27.0010077  56.6948489 102.0363590
  26.3718939  56.8594203 101.3339658  26.6135739  57.1090099 102.8074554
  26.1811778  48.7324274 107.3126032  25.9372710  49.4866334 106.7760308
  26.4571708  49.1109621 108.1473279  28.1350240  55.2762886 105.9903297
  28.3467136  55.9194646 105.3137679  28.0879989  54.4425203 105.5225228
  25.7376469  47.8880707 102.8939870  24.8760948  48.1861960 103.1856607
  25.7638904  48.1051106 101.9620902  22.5538039  56.4322897  99.3013675
  23.0176384  56.7110600  98.5118298  22.2894837  55.5306342  99.1186766
  19.4462120  55.9794379 102.2393439  20.0163477  56.4081647 101.6010923
  20.0370232  55.6976964 102.9377624  21.4906925  52.5546050  96.1103240
  22.1930968  53.0067093  96.5777167  21.1587553  51.9129869  96.7383134
  19.9387286  51.1457806 110.4854450  19.3085947  51.8274087 110.7189847
  19.8323374  51.0340888 109.5407588  15.2332259  50.8129602 101.4120374
  14.4431313  51.0687131 100.9360485  15.7243506  51.6277940 101.5172415
  29.2496068  58.1534842 104.1625655  30.0713512  57.7515029 103.8808336
  29.2458471  58.0503076 105.1141771  17.1847004  51.1774182  98.3703851
  16.3878167  51.2892876  98.8887346  16.9572596  51.5160834  97.5044741
  23.0152672  57.7018885 106.3186365  23.0797104  58.1639292 107.1544537
  22.3063596  57.0716250 106.4468675  13.5169962  51.0660093 103.8435365
  13.7678000  51.9507103 104.1092941  14.0529510  50.8864694 103.0710457
  22.7300689  59.3686992  96.1865346  22.5946364  60.2138528  96.6150193
  23.2710502  59.5706270  95.4231279  16.1830087  56.8862430  96.7593271
  16.6954607  57.6805681  96.9098835  16.8352800  56.1888721  96.6926872
  17.9924972  60.0028187  98.8416024  18.1691600  60.9246151  98.6537008
  18.7881805  59.6886606  99.2710404  22.1335990  46.8636451 110.4399957
  22.8745704  47.4643604 110.3604420  22.3653913  46.1214089 109.8818000
  17.2777328  52.0492819 108.7178187  17.1630843  51.1478076 109.0185286
  16.4221846  52.2956515 108.3663004  24.3569166  59.9910559 110.3165688
  23.9133020  59.2046937 109.9986592  25.0186379  60.1789709 109.6509579
  19.1156287  61.5206360 104.8426366  19.6663712  61.3923424 104.0703360
  18.2767763  61.8201249 104.4921259  26.4550404  60.2713359 108.3447089
  26.4368879  61.0922240 107.8527358  27.3770324  60.1467434 108.5697230
  22.9123458  57.7857488 109.1870597  23.4451795  57.0245776 108.9569905
  22.3837539  57.4931140 109.9294752  26.0793153  42.8917554 104.7164239
  25.7357422  43.7819196 104.6403350  26.4472116  42.7019212 103.8533824
  14.1479004  55.2151085  97.5352841  14.9854226  55.6248093  97.3186549
  14.3257271  54.2750527  97.5053035  26.0443436  52.8826165  93.2236674
  25.5290059  53.6530770  93.4625062  25.7720744  52.2091302  93.8469736
  23.6290547  47.7275866  98.2821913  22.7732143  47.3382717  98.1027551
  24.0417499  47.8067827  97.4221698  25.1589693  45.2622209 102.6813472
  24.6554489  45.2252345 101.8681278  25.4520300  46.1714952 102.7410129
  21.4032579  45.3460939 101.6879654  22.2685576  45.1503748 101.3285544
  21.4710088  45.1171291 102.6149011  25.8329739  50.7553257  95.0496455
  25.5279875  51.0699407  95.9006599  26.7860181  50.8334677  95.0923788
  24.2776171  56.9143481  96.6989409  23.7497532  56.1796240  96.3862647
  23.7763674  57.6918157  96.4529378  29.2569017  55.1092501 101.8156456
  28.5992691  55.7991763 101.9036584  30.0609416  55.4988933 102.1590442
  19.0094898  47.5763147  99.0596021  19.5838650  47.3538329  98.3269214
  19.5965881  47.6451842  99.8124622  28.0674476  53.4636874  99.8660397
  28.5806357  54.0966866 100.3682107  28.7175700  52.8638069  99.5003757
  19.3364486  49.6067608  93.0791906  18.5001798  49.9442295  93.4001181
  19.1969255  49.4716588  92.1419043  21.3117566  44.4504396  97.7871090
  20.6581978  44.1353413  97.1627705  21.2698040  43.8280136  98.5130913
  22.4228771  54.7323691  89.7024382  21.5155833  54.5012944  89.9015531
  22.9199803  53.9361310  89.8898364  25.3296850  63.4421198  92.6221069
  24.6558549  63.7452895  93.2306026  25.7162672  64.2450279  92.2726526
  24.5455306  50.9386329 102.1118738  23.6277868  51.1601277 101.9540426
  24.9615450  51.0132640 101.2530445  25.3290354  52.3377745  97.2421418
  26.0762173  52.8499142  96.9328540  25.5981944  52.0161798  98.1025812
  23.6017004  54.8336286  94.2248373  22.6928224  54.5495319  94.3220842
  23.6312088  55.2535364  93.3651679  27.7769191  49.3734861  99.2240208
  27.0391948  48.8612248  99.5550450  28.0295965  48.9335243  98.4123484
  27.2769211  60.2819372  98.9289358  27.5692185  60.8424429  98.2101724
  27.7867832  60.5747933  99.6842517  27.8780819  42.1511113  99.8181977
  28.1839696  41.2908477  99.5307892  28.6033424  42.7428734  99.6180971
  14.1705175  52.5541800  98.2063575  13.9729575  51.9611161  97.4814641
  13.6151839  52.2494010  98.9239514  22.1501898  52.4464906 100.3258168
  22.2050508  51.4938743 100.2500644  21.3393100  52.6024346 100.8099466
  23.2993092  56.3745030  91.5636451  22.8612522  55.6580888  91.1042088
  24.0403533  56.6021144  91.0021542  20.0894258  51.0641966  98.0848547
  19.2762124  51.3636137  98.4913739  20.5853253  50.6697655  98.8023029
  22.2402836  61.0599723 100.0182811  22.1979015  61.2860569  99.0891343
  23.1565535  60.8263098 100.1668613  25.6868470  51.5283791 106.9163441
  26.0417858  51.7555264 107.7757906  26.3340601  51.8602168 106.2940696
  19.5808333  48.6360322 103.7009782  20.2207712  48.4949081 103.0032745
  18.7485864  48.3494835 103.3248384  20.3568637  57.9362752  99.8144774
  21.1509236  57.4413072  99.6127349  19.6460329  57.4080615  99.4512480
  25.1763482  60.3180848 104.1657142  25.2300504  60.8871784 104.9334858
  24.3078263  60.4882733 103.8011179  16.6651401  52.0805834  95.8904527
  15.7348989  52.0190289  96.1074489  16.7608873  51.5581787  95.0941168
  16.5836950  48.6060647  98.4782769  16.8443767  49.5205980  98.3691929
  17.4054122  48.1385089  98.6279381  18.0561875  50.0198404 105.6481593
  18.7284928  49.8115766 104.9994242  17.2291661  49.8220490 105.2086825
  32.3051136  56.7602454 105.1656927  32.4987026  57.6648265 105.4116202
  32.2051754  56.3009873 105.9995512  23.9587447  46.6460345 107.6647254
  23.3115362  47.3450295 107.5711730  24.7288462  47.0796489 108.0323502
  27.3666245  56.9109197 110.7397807  27.2151751  56.6819749 109.8227891
  27.3570924  57.8679798 110.7529152  24.1351581  54.4841110 105.7244074
  25.0643641  54.6352269 105.5513041  23.7142611  54.5725131 104.8692720
  22.9339913  58.5091774 103.4942611  22.7950999  58.1410559 104.3668549
  22.1454509  59.0239414 103.3226569  23.5288065  63.6100871  94.8368148
  23.7039821  63.1388914  95.6513770  22.8420853  64.2366637  95.0649409
  24.4845128  57.8873377 100.8831449  24.1494961  57.8474147 101.7789099
  23.9849074  57.2218093 100.4101859  18.4589372  53.2941007 106.4084030
  18.3209170  52.5621246 107.0095569  19.3694296  53.2049907 106.1268218
  27.4204320  55.2329411  91.1568509  26.8033490  54.5076239  91.0601561
  26.9520808  55.9938771  90.8135583  21.0871673  53.0060966 105.8967710
  21.7971291  52.3654158 105.8554328  21.0440981  53.2573861 106.8193891
  29.0758452  59.9428320 108.8174289  29.0170998  59.2587540 108.1504872
  29.4777970  60.6847310 108.3654915  19.8000607  49.9926184 107.7163349
  19.2637964  49.5416923 108.3684946  19.2117315  50.1272093 106.9733814
  18.0949150  66.7590233 101.6108008  18.3345749  67.3908758 102.2887027
  17.2518347  66.4078273 101.8973367  19.2102866  49.4514836  90.2789813
  18.3332332  49.3303636  89.9152060  19.6860619  48.6600914  90.0268702
  29.0775859  57.9067904 107.0488269  28.1902638  57.5693825 107.1714668
  29.6474410  57.1750935 107.2857034  10.7305006  54.2391995 100.3731320
  11.4176046  53.9253725  99.7852335  10.5753135  55.1433360 100.0998572
  15.5339728  49.1282192 104.8016344  15.4497917  48.5207861 104.0666754
  14.7122434  49.6191210 104.8025840  22.6077012  62.5669356 104.0149512
  22.5347184  63.3724327 104.5268816  22.1654405  62.7661322 103.1897533
  22.3966792  61.8041126  97.5252333  21.6134314  62.3462806  97.6190558
  23.0959537  62.3215106  97.9246575  25.7063442  47.6135755 100.1686539
  26.2032141  46.8605718  99.8487609  24.9350423  47.6500072  99.6029748
  25.0675696  62.4656190 106.1707671  25.7803668  63.1003655 106.0983572
  24.5765724  62.5620056 105.3547672  26.7893223  56.3707443  97.7424962
  25.8549501  56.4908905  97.5729667  26.9669891  55.4679909  97.4784972
  22.2898411  49.7553138  99.8958223  21.9196198  49.2024179 100.5839129
  22.7857503  49.1511272  99.3433224  30.1765774  52.2124762  98.2774996
  30.6426226  53.0452753  98.2035299  30.6273274  51.7469743  98.9820255
  20.1187609  60.2150633 106.9913241  20.8197069  60.8487116 107.1442636
  19.6482724  60.5565365 106.2308881  28.1482437  44.5805349 102.3165898
  27.2345516  44.8109576 102.4848105  28.5775538  44.6643793 103.1679930
  27.9188895  52.7695241 104.8165792  27.2660345  53.0171148 104.1618245
  28.2969275  51.9559379 104.4828269  24.8796069  62.8054934  98.9193962
  25.0618464  61.9876590  99.3821714  25.7029055  63.0222626  98.4818852
  25.2138235  61.7323119  96.1809011  25.7426001  61.2215574  95.5679173
  25.4766454  61.4165649  97.0454544  23.9676468  53.5115052 111.3031829
  23.2917105  53.4109181 111.9734204  24.7904102  53.3554266 111.7667826
  15.7155327  59.7486988 103.9244344  16.3008764  59.0030676 104.0572248
  15.5180166  60.0590945 104.8081008  18.5693983  62.7838236  98.9406786
  17.9004358  63.2684363  98.4570827  18.4306852  63.0307456  99.8550165
  10.3072982  52.3192589 102.6448787  10.3457082  51.7856179 103.4385905
   9.8013275  51.7927794 102.0259764  22.7099251  64.8181979 105.5389445
  23.2617559  64.9813601 106.3038530  23.0505445  65.4086417 104.8669470
  17.6863744  47.1657129 106.1411330  17.7505071  48.0271960 105.7288727
  17.6230865  46.5531131 105.4083688  17.1616017  49.2380262 109.7884364
  17.7888056  48.8557339 110.4021888  16.3043936  49.0194464 110.1540056
  27.5610125  59.6443237 111.3938099  28.1050029  60.2573195 110.8993054
  26.9796970  60.2022815 111.9105112  13.9381560  51.0456691  95.7202719
  14.2335001  50.1367369  95.6669772  13.0369595  51.0244430  95.3983721
  25.8467638  62.7663955 102.5253127  25.7218778  61.9653695 102.0164072
  26.5046729  63.2610148 102.0367097  17.4675807  49.1212687 101.7030267
  16.7462392  49.7348655 101.5637741  18.2569062  49.6570452 101.6246913
  27.9102547  60.5672975 104.1532677  26.9632882  60.4478326 104.0811004
  28.2585320  59.6795473 104.2358939  20.2702120  46.4567114 107.9770919
  20.7936522  46.7029410 108.7397228  20.0514453  47.2887149 107.5574056
  15.6669401  48.7270788  95.8442044  15.3382107  47.8468167  95.6617150
  16.0208772  48.6718457  96.7318433  24.9148980  60.3625691 100.3537029
  24.7673942  59.4342399 100.5344599  25.7402474  60.3845782  99.8694105
  18.7811224  49.0143758  96.2117521  19.1207297  49.5429679  95.4896130
  19.2283345  49.3524164  96.9876088  21.4754665  47.3980809 105.6620590
  21.1351486  46.5988622 106.0641269  20.7693671  47.6982520 105.0897423
  22.1271137  44.4830121 104.1147913  22.9497206  44.0090600 103.9926803
  22.3709201  45.2620605 104.6146599  20.7679371  47.5118380  94.4110814
  21.4887734  47.8899633  93.9074531  20.1444676  48.2307257  94.5145792
  24.9110494  48.2163529  95.3469147  25.1274109  49.0988167  95.0457975
  24.4304562  47.8249742  94.6174789  19.6509716  51.1749242 101.9239891
  19.5054296  51.4889545 102.8164173  19.1734919  51.7934142 101.3710790
  21.5106099  48.1651790 101.9720781  21.4967667  47.2692883 101.6353079
  22.2278527  48.1722454 102.6059067  23.3632229  48.5989130 104.0173908
  23.1050007  49.5206201 104.0158239  22.8317270  48.2019565 104.7074372
  14.1255378  53.7154586 104.8627552  13.5808846  54.4914394 104.9947827
  15.0034728  54.0625391 104.7046674  20.9142995  47.0466170  97.2408351
  21.0358906  46.1182816  97.4399238  20.6245037  47.0604856  96.3286666
  23.7834185  44.7321081 100.3775071  23.8055882  44.7960414  99.4227050
  24.2002244  43.8925589 100.5715577  14.9121400  52.8424483 107.7557709
  14.1703136  52.9907118 108.3422340  14.5914144  53.1032748 106.8924459
  22.8565062  62.3840461 107.5538099  23.1652189  62.1389608 108.4260799
  23.6540544  62.5887099 107.0656969  22.8785674  64.5378371  99.7843476
  22.4390665  64.0454749 100.4776332  23.6293791  63.9951338  99.5435551
  15.3578013  60.7289911  99.7868104  16.1836033  60.4293683  99.4066747
  15.0072065  59.9597534 100.2357892  20.3259547  60.0816380 101.8565777
  19.7039556  59.4187085 101.5568005  20.9964414  60.1077512 101.1739425
  13.5586618  58.6476238 100.7457037  12.7218527  58.2198412 100.5641039
  13.5310264  58.8408681 101.6827829  20.3984074  48.5598168 111.4498283
  20.4472230  49.4360290 111.0676053  20.9406588  48.0175561 110.8769927
  30.8838920  59.1039291 110.7299421  30.0934463  59.0863430 110.1903920
  30.6472274  59.6427585 111.4848457  31.0036795  55.9531757 108.0432149
  31.0534800  55.7881765 108.9847672  30.8950718  55.0859016 107.6530030
  19.8873054  58.6320303  95.3324238  20.0361174  59.3155767  94.6790911
  20.6939497  58.6125393  95.8473694  28.2940557  51.9362685 109.3591456
  29.1950420  51.7969150 109.0675454  28.3688532  52.1017140 110.2989633
  22.6283363  49.3129540 108.2044642  21.7586672  49.6063106 107.9327231
  22.8642843  49.8969985 108.9251906  32.5054992  58.3728699 108.2874171
  32.2139800  58.7358679 109.1237632  31.8927123  57.6595707 108.1087503
  30.7542180  53.4961313 106.7554229  31.2296301  53.6888960 105.9473080
  29.8307745  53.5520499 106.5097612  17.6425687  54.6585481  96.3385307
  17.3971728  53.7547811  96.5365517  17.8121601  54.6602631  95.3964785
  25.3322396  45.5309157 105.7210063  25.8504340  46.2670184 105.3956551
  24.9777529  45.8373150 106.5556822  16.9121334  50.3913838  93.8371468
  16.2190579  50.4658193  93.1811504  16.6673086  49.6274182  94.3592985
  25.5834991  41.9509440 101.2410959  25.8636744  41.2832629 101.8671386
  26.3685597  42.1438535 100.7285623  23.3868459  61.1268433  92.8035985
  22.8142426  61.7458621  92.3506457  23.9601253  61.6767795  93.3375907
  29.4543849  50.3727073 104.9882534  30.4061272  50.4725171 105.0094758
  29.2847299  49.5805342 105.4980619  27.4758228  47.4582657 105.1741935
  26.8808160  47.7387669 104.4788424  27.1907925  47.9476558 105.9458676
  29.2353736  60.7271454  90.8948515  29.1567367  60.3931317  91.7884273
  30.0563402  61.2193222  90.8939988  31.9331927  53.5933193 104.1024834
  31.9008247  52.6549194 104.2884518  32.5432550  53.6717230 103.3690659
  23.7715258  52.4629246  90.1452038  24.7174362  52.3335454  90.2140456
  23.3929502  51.7243908  90.6221466  32.0826415  50.3844237 104.1483117
  31.5665464  49.6002693 103.9613046  32.9666364  50.0562953 104.3129637
  29.7437142  44.1285252 100.1078930  29.5461963  43.8200340 100.9922262
  30.3536848  44.8546891 100.2376860  23.6553950  56.5146992 111.6052695
  24.5756960  56.6925591 111.7992741  23.6203533  55.5703038 111.4532394
  21.9558175  50.3879223  90.0806923  21.0489630  50.0912335  90.1569637
  22.2334156  50.0909041  89.2141209  12.8736115  51.7085586 100.5305970
  12.5538899  50.8550894 100.2380344  12.3269543  51.9234164 101.2863937
  16.6516023  54.4248027 104.2475476  16.8702032  55.3565135 104.2663510
  17.0641796  54.0656001 105.0330280  23.5720240  44.9316112  96.2351164
  22.7620969  44.5863197  96.6106410  24.2604657  44.6223656  96.8238776
  25.5010789  44.0094159  97.8575461  26.0541827  44.4289612  98.5165484
  25.7380875  43.0829907  97.8998417  20.7256959  47.2466158  90.2218902
  21.5876123  47.5721056  90.4814720  20.9107303  46.4597654  89.7091968
  12.7424375  55.3288497 102.4999091  12.0487847  54.9142450 101.9869046
  13.4897366  55.3709034 101.9032510  28.8789596  46.1194684  97.3654125
  28.2988265  46.7779488  96.9832178  28.6125528  45.2972029  96.9541543
  27.3293162  45.5199742  99.5675446  27.8292941  45.6316276  98.7589764
  27.9728770  45.2160795 100.2076254  21.3875158  53.4278372 112.4543287
  20.9042240  54.2278732 112.6607176  21.4736097  53.4386316 111.5010731
  14.6561118  55.2606751 100.3765106  14.6331806  55.3594439  99.4246989
  14.9661754  56.1071902 100.6982272  17.3148495  57.3182906 104.4911720
  18.2691749  57.2866849 104.4241652  17.1161019  56.8573530 105.3061946
  17.9047878  55.8884022 107.0582518  18.7240767  56.3828101 107.0817355
  18.1784685  54.9715990 107.0300086  27.6614474  48.2794775  96.4210474
  26.7740329  48.5644425  96.2030668  28.0768463  48.1188538  95.5737750
  31.0129010  48.3041296 100.1364813  31.7889400  48.7937748 100.4089430
  30.2877144  48.7299350 100.5936682  33.4501569  49.0168915 101.1938753
  34.0446059  48.7764651 100.4832062  33.5228152  48.2976045 101.8212290
  15.6698724  62.8602526 101.5081918  15.5353192  62.1002927 100.9419916
  15.2530787  63.5843426 101.0410707  26.8057687  58.0439449  90.5158494
  27.5093537  58.2489452  91.1316149  26.0820336  58.6116211  90.7807577
  27.6355498  53.7949311  96.6360764  27.5790699  54.2517862  95.7968396
  28.1883840  53.0339995  96.4583606  31.4460303  49.5839042  97.4610883
  31.1897238  49.1835678  98.2919091  30.8213172  50.2982836  97.3361022
  18.8267850  63.7571843 101.7200361  18.7100234  64.7017275 101.6179051
  18.0060296  63.4545404 102.1086160  13.1582792  50.2222156 107.7574715
  13.8041655  49.7121110 108.2461940  12.9499943  50.9590838 108.3318140
  25.6836184  57.2903004 113.2566856  26.5527344  57.4643656 112.8953491
  25.2042936  58.1097420 113.1342585  21.6786402  44.4862201  93.5098611
  21.6665072  45.4304041  93.6666882  22.5709824  44.3032346  93.2158073
  19.8522364  64.4100105 104.9356289  20.7549611  64.4423715 105.2522784
  19.6259734  63.4800556 104.9502625  21.6075966  63.1631091 101.5966368
  20.6571597  63.1632953 101.4830740  21.9108452  62.4163826 101.0802403
  25.4938522  41.0804977  97.7644548  24.7270918  40.5263464  97.9101230
  25.9049227  41.1526846  98.6258700  34.6338149  70.1053909 108.5559861
  34.6226790  69.7106708 107.6840364  34.7958789  69.3719982 109.1493632
  27.5569614  72.3005726 101.4254766  28.3490906  71.9596550 101.0101066
  27.7966264  72.4100701 102.3456920  31.3545410  72.8891021 107.5039045
  31.0635276  73.7936652 107.3885711  31.9902395  72.9307549 108.2183114
  32.2801617  70.2667870 104.0940404  32.8765189  70.0423892 103.3797367
  32.3376589  69.5252615 104.6965852  27.1256588  68.6699507 101.3669332
  27.2548969  68.9233986 102.2808743  26.4454039  69.2627215 101.0473987
  31.2956075  79.3396757  97.4659806  31.2180105  80.2904582  97.5448287
  30.6917719  78.9942630  98.1234732  33.7873305  66.5124623 110.1221173
  33.0106639  67.0718543 110.1124037  34.4263868  66.9981405 110.6436043
  32.0419677  69.3210076 109.6839140  32.7834362  69.8595120 109.4073963
  31.3356663  69.9476365 109.8410692  37.5175017  71.4639216 108.2811301
  37.9258373  71.0221627 107.5365934  36.7952278  70.8891844 108.5345494
  33.8706087  66.4011823 105.6544858  34.7167282  66.8251237 105.7979507
  33.8104725  65.7445447 106.3483421  38.9743995  70.6054804 105.9903297
  39.1860890  71.2486564 105.3137679  38.9273743  69.7717120 105.5225228
  30.7781041  66.4749724 110.4854450  30.1479701  67.1566005 110.7189847
  30.6717129  66.3632806 109.5407588  26.0726013  66.1421520 101.4120374
  25.2825067  66.3979049 100.9360485  26.5637261  66.9569858 101.5172415
  28.0240759  66.5066099  98.3703851  27.2271922  66.6184794  98.8887346
  27.7966351  66.8452752  97.5044741  33.8546426  73.0310803 106.3186365
  33.9190859  73.4931210 107.1544537  33.1457350  72.4008167 106.4468675
  24.3563716  66.3952011 103.8435365  24.6071755  67.2799020 104.1092941
  24.8923265  66.2156612 103.0710457  30.0561784  60.7770490 112.8479701
  29.6628729  60.2236688 113.5227345  30.8727924  61.0881068 113.2386218
  27.0223841  72.2154348  96.7593271  27.5348362  73.0097598  96.9098835
  27.6746554  71.5180639  96.6926872  28.8318726  75.3320104  98.8416024
  29.0085354  76.2538069  98.6537008  29.6275560  75.0178524  99.2710404
  32.9729745  62.1928369 110.4399957  33.7139458  62.7935522 110.3604420
  33.2047667  61.4506007 109.8818000  28.1171083  67.3784736 108.7178187
  28.0024598  66.4769993 109.0185286  27.2615600  67.6248433 108.3663004
  35.1962920  75.3202477 110.3165688  34.7526775  74.5338855 109.9986592
  35.8580134  75.5081627 109.6509579  29.9550042  76.8498278 104.8426366
  30.5057467  76.7215342 104.0703360  29.1161517  77.1493167 104.4921259
  37.2944158  75.6005276 108.3447089  37.2762634  76.4214158 107.8527358
  38.2164078  75.4759352 108.5697230  33.7517213  73.1149406 109.1870597
  34.2845549  72.3537694 108.9569905  33.2231294  72.8223058 109.9294752
  24.9872758  70.5443002  97.5352841  25.8247980  70.9540011  97.3186549
  25.1651026  69.6042445  97.5053035  30.1758240  64.9359526  93.0791906
  29.3395552  65.2734212  93.4001181  30.0363010  64.8008506  92.1419043
  25.0098929  67.8833718  98.2063575  24.8123329  67.2903078  97.4814641
  24.4545593  67.5785928  98.9239514  36.5262225  66.8575708 106.9163441
  36.8811612  67.0847182 107.7757906  37.1734356  67.1894085 106.2940696
  30.4202088  63.9652239 103.7009782  31.0601467  63.8240999 103.0032745
  29.5879618  63.6786753 103.3248384  27.5045155  67.4097752  95.8904527
  26.5742743  67.3482207  96.1074489  27.6002627  66.8873704  95.0941168
  28.8955629  65.3490322 105.6481593  29.5678683  65.1407684 104.9994242
  28.0685416  65.1512408 105.2086825  34.7981201  61.9752263 107.6647254
  34.1509116  62.6742212 107.5711730  35.5682217  62.4088406 108.0323502
  38.2059999  72.2401115 110.7397807  38.0545506  72.0111666 109.8227891
  38.1964679  73.1971716 110.7529152  34.9745336  69.8133027 105.7244074
  35.9037396  69.9644187 105.5513041  34.5536366  69.9017048 104.8692720
  34.3681820  78.9392788  94.8368148  34.5433575  78.4680832  95.6513770
  33.6814608  79.5658555  95.0649409  29.2983127  68.6232925 106.4084030
  29.1602925  67.8913163 107.0095569  30.2088050  68.5341825 106.1268218
  31.9265427  68.3352884 105.8967710  32.6365046  67.6946076 105.8554328
  31.8834735  68.5865779 106.8193891  39.9152206  75.2720237 108.8174289
  39.8564752  74.5879457 108.1504872  40.3171724  76.0139227 108.3654915
  30.6394361  65.3218102 107.7163349  30.1031718  64.8708840 108.3684946
  30.0511070  65.4564011 106.9733814  28.9342905  82.0882151 101.6108008
  29.1739503  82.7200675 102.2887027  28.0912101  81.7370191 101.8973367
  30.0496620  64.7806753  90.2789813  29.1726087  64.6595554  89.9152060
  30.5254373  63.9892831  90.0268702  21.5698760  69.5683913 100.3731320
  22.2569800  69.2545643  99.7852335  21.4146889  70.4725278 100.0998572
  26.3733483  64.4574109 104.8016344  26.2891671  63.8499779 104.0666754
  25.5516189  64.9483128 104.8025840  33.4470767  77.8961274 104.0149512
  33.3740938  78.7016245 104.5268816  33.0048160  78.0953239 103.1897533
  35.9069450  77.7948108 106.1707671  36.6197422  78.4295572 106.0983572
  35.4159479  77.8911974 105.3547672  30.9581364  75.5442551 106.9913241
  31.6590823  76.1779034 107.1442636  30.4876479  75.8857283 106.2308881
  38.7582650  68.0987158 104.8165792  38.1054100  68.3463066 104.1618245
  39.1363030  67.2851297 104.4828269  34.8070223  68.8406970 111.3031829
  34.1310860  68.7401099 111.9734204  35.6297857  68.6846183 111.7667826
  26.5549082  75.0778906 103.9244344  27.1402519  74.3322594 104.0572248
  26.3573920  75.3882863 104.8081008  29.4087737  78.1130153  98.9406786
  28.7398112  78.5976281  98.4570827  29.2700607  78.3599374  99.8550165
  21.1466737  67.6484506 102.6448787  21.1850836  67.1148097 103.4385905
  20.6407029  67.1219712 102.0259764  33.5493006  80.1473897 105.5389445
  34.1011314  80.3105518 106.3038530  33.8899199  80.7378335 104.8669470
  28.5257499  62.4949047 106.1411330  28.5898825  63.3563878 105.7288727
  28.4624619  61.8823048 105.4083688  28.0009771  64.5672179 109.7884364
  28.6281810  64.1849257 110.4021888  27.1437690  64.3486381 110.1540056
  38.4003880  74.9735154 111.3938099  38.9443784  75.5865113 110.8993054
  37.8190725  75.5314733 111.9105112  24.7775314  66.3748608  95.7202719
  25.0728755  65.4659287  95.6669772  23.8763350  66.3536348  95.3983721
  28.3069561  64.4504605 101.7030267  27.5856147  65.0640573 101.5637741
  29.0962817  64.9862370 101.6246913  31.1095875  61.7859032 107.9770919
  31.6330276  62.0321328 108.7397228  30.8908208  62.6179066 107.5574056
  26.5063156  64.0562706  95.8442044  26.1775862  63.1760085  95.6617150
  26.8602526  64.0010375  96.7318433  32.3148420  62.7272727 105.6620590
  31.9745240  61.9280540 106.0641269  31.6087426  63.0274437 105.0897423
  32.9664891  59.8122039 104.1147913  33.7890961  59.3382517 103.9926803
  33.2102955  60.5912523 104.6146599  24.9649132  69.0446504 104.8627552
  24.4202600  69.8206312 104.9947827  25.8428482  69.3917309 104.7046674
  25.7515154  68.1716400 107.7557709  25.0096890  68.3199036 108.3422340
  25.4307899  68.4324666 106.8924459  33.6958817  77.7132379 107.5538099
  34.0045943  77.4681525 108.4260799  34.4934299  77.9179017 107.0656969
  33.7179429  79.8670288  99.7843476  33.2784419  79.3746667 100.4776332
  34.4687546  79.3243256  99.5435551  26.1971768  76.0581829  99.7868104
  27.0229788  75.7585601  99.4066747  25.8465820  75.2889452 100.2357892
  31.1653301  75.4108297 101.8565777  30.5433310  74.7479002 101.5568005
  31.8358168  75.4369429 101.1739425  24.3980373  73.9768156 100.7457037
  23.5612281  73.5490330 100.5641039  24.3704018  74.1700599 101.6827829
  31.2377829  63.8890085 111.4498283  31.2865984  64.7652208 111.0676053
  31.7800343  63.3467478 110.8769927  41.7232674  74.4331209 110.7299421
  40.9328218  74.4155347 110.1903920  41.4866029  74.9719502 111.4848457
  41.8430549  71.2823675 108.0432149  41.8928554  71.1173682 108.9847672
  41.7344473  70.4150934 107.6530030  39.1334312  67.2654603 109.3591456
  40.0344174  67.1261068 109.0675454  39.2082286  67.4309058 110.2989633
  33.4677117  64.6421458 108.2044642  32.5980426  64.9355024 107.9327231
  33.7036597  65.2261903 108.9251906  43.3448746  73.7020616 108.2874171
  43.0533554  74.0650597 109.1237632  42.7320877  72.9887625 108.1087503
  41.5935934  68.8253231 106.7554229  42.0690056  69.0180877 105.9473080
  40.6701500  68.8812417 106.5097612  28.4819441  69.9877398  96.3385307
  28.2365483  69.0839728  96.5365517  28.6515356  69.9894549  95.3964785
  27.7515089  65.7205756  93.8371468  27.0584333  65.7950111  93.1811504
  27.5066840  64.9566099  94.3592985  34.4947705  71.8438910 111.6052695
  35.4150714  72.0217509 111.7992741  34.4597288  70.8994955 111.4532394
  23.7129870  67.0377504 100.5305970  23.3932654  66.1842812 100.2380344
  23.1663298  67.2526082 101.2863937  27.4909777  69.7539945 104.2475476
  27.7095787  70.6857052 104.2663510  27.9035551  69.3947919 105.0330280
  32.3637642  65.3273150 113.6378225  32.2634369  66.2767507 113.5690316
  32.1459184  64.9991389 112.7654295  31.5650714  62.5758075  90.2218902
  32.4269878  62.9012974  90.4814720  31.7501058  61.7889571  89.7091968
  23.5818130  70.6580415 102.4999091  22.8881601  70.2434368 101.9869046
  24.3291121  70.7000952 101.9032510  32.2268912  68.7570289 112.4543287
  31.7435994  69.5570649 112.6607176  32.3129852  68.7678234 111.5010731
  25.4954872  70.5898669 100.3765106  25.4725560  70.6886356  99.4246989
  25.8055509  71.4363820 100.6982272  28.1542250  72.6474824 104.4911720
  29.1085504  72.6158766 104.4241652  27.9554774  72.1865448 105.3061946
  28.7441632  71.2175940 107.0582518  29.5634521  71.7120019 107.0817355
  29.0178440  70.3007908 107.0300086  26.5092479  78.1894443 101.5081918
  26.3746947  77.4294844 100.9419916  26.0924541  78.9135343 101.0410707
  29.6661605  79.0863760 101.7200361  29.5493989  80.0309193 101.6179051
  28.8454051  78.7837322 102.1086160  23.9976546  65.5514074 107.7574715
  24.6435410  65.0413028 108.2461940  23.7893697  66.2882755 108.3318140
  36.5229939  72.6194921 113.2566856  37.3921098  72.7935574 112.8953491
  36.0436690  73.4389338 113.1342585  30.6916119  79.7392022 104.9356289
  31.5943365  79.7715633 105.2522784  30.4653489  78.8092473 104.9502625
  32.4469721  78.4923009 101.5966368  31.4965352  78.4924870 101.4830740
  32.7502207  77.7455743 101.0802403  28.3374037  62.6981691 111.8549729
  29.2005499  62.3418496 112.0653054  27.7639448  62.3595586 112.5425134
  45.4731904  85.4345827 108.5559861  45.4620544  85.0398625 107.6840364
  45.6352543  84.7011900 109.1493632  38.3963368  87.6297643 101.4254766
  39.1884660  87.2888468 101.0101066  38.6360018  87.7392618 102.3456920
  42.1939165  88.2182939 107.5039045  41.9029031  89.1228570 107.3885711
  42.8296149  88.2599467 108.2183114  43.1195372  85.5959787 104.0940404
  43.7158944  85.3715810 103.3797367  43.1770343  84.8544533 104.6965852
  50.6597530  75.7031808 105.0992926  50.3280855  76.5727219 104.8754140
  50.0643144  75.3868092 105.7786956  47.1529050  87.9044354 104.4988838
  46.8529773  88.8069393 104.3904645  46.8080109  87.6376538 105.3509991
  42.1349830  94.6688675  97.4659806  42.0573859  95.6196500  97.5448287
  41.5311473  94.3234547  98.1234732  44.6267059  81.8416540 110.1221173
  43.8500393  82.4010460 110.1124037  45.2657622  82.3273323 110.6436043
  42.8813432  84.6501994 109.6839140  43.6228116  85.1887038 109.4073963
  42.1750417  85.2768282 109.8410692  48.3568771  86.7931134 108.2811301
  48.7652127  86.3513545 107.5365934  47.6346033  86.2183762 108.5345494
  48.6797586  87.3532325 102.0363590  48.0506448  87.5178039 101.3339658
  48.2923248  87.7673934 102.8074554  52.5586818  88.2886762  99.3907954
  51.8737856  88.6685664  98.8404987  52.6430667  88.8982089 100.1239902
  47.8599287  79.3908109 107.3126032  47.6160219  80.1450170 106.7760308
  48.1359217  79.7693457 108.1473279  41.6174795  81.8041642 110.4854450
  40.9873456  82.4857923 110.7189847  41.5110883  81.6924723 109.5407588
  50.9283577  88.8118677 104.1625655  51.7501021  88.4098864 103.8808336
  50.9245980  88.7086911 105.1141771  44.6940181  88.3602720 106.3186365
  44.7584613  88.8223127 107.1544537  43.9851105  87.7300085 106.4468675
  35.1957471  81.7243928 103.8435365  35.4465509  82.6090938 104.1092941
  35.7317019  81.5448530 103.0710457  59.0189570  85.1557425 100.5110626
  58.2653279  84.5864823 100.3554631  59.1537112  85.1220090 101.4581261
  40.8955538  76.1062408 112.8479701  40.5022484  75.5528606 113.5227345
  41.7121678  76.4172986 113.2386218  37.8617596  87.5446266  96.7593271
  38.3742116  88.3389516  96.9098835  38.5140309  86.8472556  96.6926872
  39.6712481  90.6612022  98.8416024  39.8479109  91.5829987  98.6537008
  40.4669314  90.3470441  99.2710404  43.8123499  77.5220287 110.4399957
  44.5533212  78.1227440 110.3604420  44.0441422  76.7797924 109.8818000
  38.9564837  82.7076654 108.7178187  38.8418352  81.8061911 109.0185286
  38.1009355  82.9540351 108.3663004  46.0356675  90.6494394 110.3165688
  45.5920529  89.8630773 109.9986592  46.6973888  90.8373545 109.6509579
  40.7943796  92.1790196 104.8426366  41.3451221  92.0507259 104.0703360
  39.9555272  92.4785085 104.4921259  48.1337913  90.9297194 108.3447089
  48.1156388  91.7506075 107.8527358  49.0557833  90.8051269 108.5697230
  44.5910967  88.4441324 109.1870597  45.1239304  87.6829612 108.9569905
  44.0625048  88.1514975 109.9294752  47.7580662  73.5501390 104.7164239
  47.4144931  74.4403031 104.6403350  48.1259625  73.3603047 103.8533824
  35.8266513  85.8734920  97.5352841  36.6641735  86.2831928  97.3186549
  36.0044780  84.9334362  97.5053035  48.9556720  90.9403207  98.9289358
  49.2479694  91.5008265  98.2101724  49.4655341  91.2331768  99.6842517
  35.8492684  83.2125635  98.2063575  35.6517084  82.6194996  97.4814641
  35.2939348  82.9077846  98.9239514  43.9190345  91.7183559 100.0182811
  43.8766524  91.9444405  99.0891343  44.8353044  91.4846933 100.1668613
  53.1223096  87.3762589 102.6324041  53.5559602  87.2837878 103.4807095
  53.8354676  87.3520089 101.9944057  46.8550991  90.9764683 104.1657142
  46.9088013  91.5455619 104.9334858  45.9865772  91.1466568 103.8011179
  53.9838645  87.4186290 105.1656927  54.1774535  88.3232100 105.4116202
  53.8839263  86.9593709 105.9995512  45.6374956  77.3044180 107.6647254
  44.9902871  78.0034130 107.5711730  46.4075971  77.7380324 108.0323502
  49.0453754  87.5693032 110.7397807  48.8939260  87.3403584 109.8227891
  49.0358433  88.5263634 110.7529152  45.8139090  85.1424945 105.7244074
  46.7431150  85.2936105 105.5513041  45.3930120  85.2308966 104.8692720
  44.6127422  89.1675610 103.4942611  44.4738508  88.7994394 104.3668549
  43.8242018  89.6823249 103.3226569  45.2075574  94.2684706  94.8368148
  45.3827330  93.7972749  95.6513770  44.5208362  94.8950472  95.0649409
  40.1376881  83.9524842 106.4084030  39.9996679  83.2205081 107.0095569
  41.0481805  83.8633742 106.1268218  50.7545960  90.6012155 108.8174289
  50.6958507  89.9171375 108.1504872  51.1565479  91.3431145 108.3654915
  41.4788116  80.6510019 107.7163349  40.9425473  80.2000758 108.3684946
  40.8904824  80.7855928 106.9733814  39.7736659  97.4174069 101.6108008
  40.0133258  98.0492593 102.2887027  38.9305856  97.0662109 101.8973367
  50.7563368  88.5651739 107.0488269  49.8690147  88.2277661 107.1714668
  51.3261919  87.8334770 107.2857034  32.4092515  84.8975831 100.3731320
  33.0963555  84.5837561  99.7852335  32.2540644  85.8017195 100.0998572
  37.2127237  79.7866027 104.8016344  37.1285426  79.1791697 104.0666754
  36.3909943  80.2775045 104.8025840  44.2864521  93.2253191 104.0149512
  44.2134693  94.0308163 104.5268816  43.8441914  93.4245157 103.1897533
  44.0754301  92.4624961  97.5252333  43.2921823  93.0046641  97.6190558
  44.7747046  92.9798941  97.9246575  46.7463205  93.1240025 106.1707671
  47.4591177  93.7587490 106.0983572  46.2553233  93.2203891 105.3547672
  41.7975118  90.8734469 106.9913241  42.4984578  91.5070952 107.1442636
  41.3270233  91.2149200 106.2308881  46.5583578  93.4638769  98.9193962
  46.7405973  92.6460425  99.3821714  47.3816564  93.6806462  98.4818852
  46.8925744  92.3906954  96.1809011  47.4213510  91.8799409  95.5679173
  47.1553963  92.0749485  97.0454544  45.6463977  84.1698887 111.3031829
  44.9704614  84.0693017 111.9734204  46.4691611  84.0138101 111.7667826
  37.3942836  90.4070824 103.9244344  37.9796273  89.6614512 104.0572248
  37.1967675  90.7174780 104.8081008  40.2481491  93.4422071  98.9406786
  39.5791867  93.9268199  98.4570827  40.1094361  93.6891292  99.8550165
  31.9860491  82.9776424 102.6448787  32.0244591  82.4440015 103.4385905
  31.4800784  82.4511629 102.0259764  44.3886760  95.4765815 105.5389445
  44.9405068  95.6397436 106.3038530  44.7292954  96.0670252 104.8669470
  39.3651253  77.8240964 106.1411330  39.4292580  78.6855795 105.7288727
  39.3018374  77.2114966 105.4083688  38.8403526  79.8964097 109.7884364
  39.4675565  79.5141174 110.4021888  37.9831445  79.6778299 110.1540056
  49.2397634  90.3027072 111.3938099  49.7837538  90.9157030 110.8993054
  48.6584479  90.8606651 111.9105112  47.5255147  93.4247790 102.5253127
  47.4006287  92.6237530 102.0164072  48.1834238  93.9193984 102.0367097
  49.5890056  91.2256810 104.1532677  48.6420391  91.1062161 104.0811004
  49.9372829  90.3379308 104.2358939  41.9489629  77.1150949 107.9770919
  42.4724031  77.3613246 108.7397228  41.7301962  77.9470984 107.5574056
  46.5936489  91.0209526 100.3537029  46.4461451  90.0926234 100.5344599
  47.4189983  91.0429617  99.8694105  50.1970611  91.8438085 101.4401902
  51.1217158  91.6380947 101.3026353  50.0285914  91.5954486 102.3491244
  35.8042887  84.3738422 104.8627552  35.2596355  85.1498230 104.9947827
  36.6822237  84.7209226 104.7046674  36.5908909  83.5008318 107.7557709
  35.8490645  83.6490953 108.3422340  36.2701653  83.7616584 106.8924459
  44.5352571  93.0424296 107.5538099  44.8439698  92.7973443 108.4260799
  45.3328053  93.2470935 107.0656969  44.5573183  95.1962206  99.7843476
  44.1178174  94.7038585 100.4776332  45.3081300  94.6535174  99.5435551
  37.0365522  91.3873747  99.7868104  37.8623542  91.0877519  99.4066747
  36.6859574  90.6181369 100.2357892  42.0047056  90.7400215 101.8565777
  41.3827065  90.0770920 101.5568005  42.6751922  90.7661347 101.1739425
  35.2374127  89.3060073 100.7457037  34.4006036  88.8782248 100.5641039
  35.2097773  89.4992517 101.6827829  42.0771583  79.2182003 111.4498283
  42.1259739  80.0944126 111.0676053  42.6194097  78.6759396 110.8769927
  52.5626429  89.7623126 110.7299421  51.7721972  89.7447265 110.1903920
  52.3259783  90.3011420 111.4848457  52.6824304  86.6115593 108.0432149
  52.7322309  86.4465600 108.9847672  52.5738227  85.7442852 107.6530030
  44.3070872  79.9713375 108.2044642  43.4374181  80.2646941 107.9327231
  44.5430352  80.5553820 108.9251906  54.1842501  89.0312534 108.2874171
  53.8927309  89.3942515 109.1237632  53.5714632  88.3179542 108.1087503
  47.0109905  76.1892992 105.7210063  47.5291849  76.9254019 105.3956551
  46.6565038  76.4956986 106.5556822  49.1545737  78.1166492 105.1741935
  48.5595669  78.3971505 104.4788424  48.8695434  78.6060393 105.9458676
  59.4295986  85.3133035 103.2430871  60.1599374  85.0518324 103.8038574
  58.8202931  84.5761757 103.2832939  57.5111283  83.4540898 103.8405322
  56.7844446  83.3196863 103.2321813  57.0958570  83.7617727 104.6462040
  45.3341459  87.1730828 111.6052695  46.2544469  87.3509427 111.7992741
  45.2991042  86.2286873 111.4532394  34.5523624  82.3669421 100.5305970
  34.2326408  81.5134730 100.2380344  34.0057052  82.5817999 101.2863937
  38.3303532  85.0831862 104.2475476  38.5489541  86.0148970 104.2663510
  38.7429305  84.7239837 105.0330280  43.2031397  80.6565068 113.6378225
  43.1028124  81.6059425 113.5690316  42.9852939  80.3283307 112.7654295
  34.4211884  85.9872333 102.4999091  33.7275355  85.5726286 101.9869046
  35.1684875  86.0292869 101.9032510  43.0662667  84.0862207 112.4543287
  42.5829749  84.8862567 112.6607176  43.1523606  84.0970152 111.5010731
  36.3348627  85.9190587 100.3765106  36.3119315  86.0178274  99.4246989
  36.6449263  86.7655737 100.6982272  38.9936004  87.9766742 104.4911720
  39.9479258  87.9450684 104.4241652  38.7948528  87.5157365 105.3061946
  39.5835387  86.5467858 107.0582518  40.4028276  87.0411936 107.0817355
  39.8572194  85.6299826 107.0300086  37.3486233  93.5186361 101.5081918
  37.2140701  92.7586762 100.9419916  36.9318296  94.2427261 101.0410707
  40.5055359  94.4155678 101.7200361  40.3887743  95.3601111 101.6179051
  39.6847805  94.1129240 102.1086160  34.8370301  80.8805992 107.7574715
  35.4829164  80.3704945 108.2461940  34.6287452  81.6174673 108.3318140
  47.3623693  87.9486839 113.2566856  48.2314853  88.1227491 112.8953491
  46.8830445  88.7681256 113.1342585  41.5309873  95.0683940 104.9356289
  42.4337120  95.1007550 105.2522784  41.3047243  94.1384391 104.9502625
  43.2863475  93.8214927 101.5966368  42.3359106  93.8216788 101.4830740
  43.5895961  93.0747661 101.0802403  39.1767792  78.0273609 111.8549729
  40.0399253  77.6710413 112.0653054  38.6033202  77.6887503 112.5425134
  59.0216169  99.6575465 102.6612130  59.6594579  99.5382212 101.9575470
  58.9037012 100.6056309 102.7200083  55.8305875  99.6102893 102.5973655
  55.4924387  99.4943958 101.7094190  56.6995643  99.2094058 102.5774661
  51.6892691 101.4638369  98.5870546  51.1257556 101.3728306  97.8186834
  51.5745086 100.6438274  99.0673039  56.3125658 100.7637745 108.5559861
  56.3014299 100.3690543 107.6840364  56.4746298 100.0303817 109.1493632
  49.2357123 102.9589561 101.4254766  50.0278415 102.6180386 101.0101066
  49.4753773 103.0684536 102.3456920  57.2692249 105.1309337  93.8985011
  56.6180229 105.7163418  93.5119025  58.0636612 105.6615532  93.9580048
  51.1947877 102.2198474  94.2972145  51.9678753 101.6727461  94.1585021
  51.5473275 103.0842724  94.5086607  53.0332919 103.5474857 107.5039045
  52.7422785 104.4520487 107.3885711  53.6689904 103.5891384 108.2183114
  53.9589126 100.9251705 104.0940404  54.5552698 100.7007728 103.3797367
  54.0164098 100.1836451 104.6965852  53.5314154  98.3791140  91.9290595
  53.7839675  97.8572662  91.1674058  52.5938714  98.2157286  92.0317279
  58.5757437  97.3826919  99.7365338  59.3620526  96.9646342  99.3855755
  58.8396142  98.2873011  99.9046987  58.7467515 102.8199769  94.4353995
  58.1113348 102.8934396  95.1474900  58.4164921 103.4093368  93.7573074
  63.9765864  97.3202152 100.6398317  64.7091036  96.7501369 100.8736146
  63.2205220  96.9323752 101.0804822  53.2510443 100.2819246  94.1314970
  53.1346701  99.6064150  94.7996054  53.3612703  99.7951620  93.3147123
  55.5941984  99.7429393  97.8361659  55.2300191  99.2160014  98.5474581
  56.4509100  99.3527863  97.6628145  61.4991285  91.0323726 105.0992926
  61.1674610  91.9019137 104.8754140  60.9036898  90.7160010 105.7786956
  55.2347471  94.7719293  92.8323008  55.4021873  95.6399530  93.1993479
  55.0444640  94.9346575  91.9084297  57.9922804 103.2336272 104.4988838
  57.6923527 104.1361311 104.3904645  57.6473864 102.9668455 105.3509991
  51.4435286  99.6850069 100.5325543  50.5185782  99.5526283 100.7403234
  51.6919699 100.4644288 101.0295485  61.3919948  95.7518812 102.1786276
  60.4836825  95.6834221 101.8845037  61.3407544  96.2290757 103.0068101
  55.2136692  97.2276951  93.8169675  55.0936317  97.6734001  94.6555155
  54.5189280  97.5762268  93.2583213  48.8044097  99.3283342 101.3669332
  48.9336478  99.5817821 102.2808743  48.1241548  99.9211050 101.0473987
  52.9743584 109.9980592  97.4659806  52.8967614 110.9488418  97.5448287
  52.3705228 109.6526465  98.1234732  55.4660814  97.1708458 110.1221173
  54.6894148  97.7302378 110.1124037  56.1051377  97.6565241 110.6436043
  63.2581594  93.9535251 103.9564149  62.6155975  94.2467784 103.3103944
  62.7536523  93.8388171 104.7617346  60.9121758  97.6998424  94.6450009
  61.8239614  97.9325811  94.4697706  60.4031405  98.2835468  94.0825087
  53.7207186  99.9793911 109.6839140  54.4621871 100.5178955 109.4073963
  53.0144172 100.6060200 109.8410692  59.1962526 102.1223052 108.2811301
  59.6045882 101.6805462 107.5365934  58.4739787 101.5475679 108.5345494
  55.5493596  97.0595658 105.6544858  56.3954791  97.4835072 105.7979507
  55.4892233  96.4029283 106.3483421  59.5191340 102.6824242 102.0363590
  58.8900203 102.8469956 101.3339658  59.1317003 103.0965852 102.8074554
  63.3980572 103.6178680  99.3907954  62.7131610 103.9977582  98.8404987
  63.4824422 104.2274007 100.1239902  58.6993041  94.7200027 107.3126032
  58.4553973  95.4742087 106.7760308  58.9752972  95.0985374 108.1473279
  60.6531504 101.2638639 105.9903297  60.8648399 101.9070399 105.3137679
  60.6061252 100.4300956 105.5225228  58.2557733  93.8756460 102.8939870
  57.3942212  94.1737713 103.1856607  58.2820168  94.0926859 101.9620902
  55.0719302 102.4198650  99.3013675  55.5357648 102.6986353  98.5118298
  54.8076100 101.5182095  99.1186766  51.9643383 101.9670132 102.2393439
  52.5344740 102.3957400 101.6010923  52.5551495 101.6852717 102.9377624
  54.0088188  98.5421803  96.1103240  54.7112232  98.9942846  96.5777167
  53.6768817  97.9005622  96.7383134  52.4568550  97.1333559 110.4854450
  51.8267210  97.8149840 110.7189847  52.3504638  97.0216641 109.5407588
  47.7513522  96.8005355 101.4120374  46.9612576  97.0562884 100.9360485
  48.2424770  97.6153693 101.5172415  61.7677332 104.1410595 104.1625655
  62.5894776 103.7390782 103.8808336  61.7639735 104.0378829 105.1141771
  49.7028268  97.1649935  98.3703851  48.9059431  97.2768629  98.8887346
  49.4753860  97.5036587  97.5044741  55.5333935 103.6894638 106.3186365
  55.5978368 104.1515045 107.1544537  54.8244859 103.0592003 106.4468675
  46.0351225  97.0535846 103.8435365  46.2859264  97.9382856 104.1092941
  46.5710774  96.8740447 103.0710457  69.8583325 100.4849343 100.5110626
  69.1047033  99.9156741 100.3554631  69.9930866 100.4512008 101.4581261
  55.2481953 105.3562745  96.1865346  55.1127628 106.2014281  96.6150193
  55.7891765 105.5582023  95.4231279  51.7349293  91.4354325 112.8479701
  51.3416238  90.8820524 113.5227345  52.5515433  91.7464904 113.2386218
  48.7011350 102.8738183  96.7593271  49.2135871 103.6681434  96.9098835
  49.3534063 102.1764474  96.6926872  50.5106235 105.9903940  98.8416024
  50.6872863 106.9121904  98.6537008  51.3063069 105.6762359  99.2710404
  54.6517254  92.8512204 110.4399957  55.3926967  93.4519357 110.3604420
  54.8835176  92.1089842 109.8818000  49.7958592  98.0368572 108.7178187
  49.6812107  97.1353829 109.0185286  48.9403109  98.2832268 108.3663004
  56.8750429 105.9786312 110.3165688  56.4314284 105.1922690 109.9986592
  57.5367643 106.1665462 109.6509579  51.6337551 107.5082113 104.8426366
  52.1844976 107.3799177 104.0703360  50.7949026 107.8077003 104.4921259
  58.9731667 106.2589112 108.3447089  58.9550143 107.0797993 107.8527358
  59.8951587 106.1343187 108.5697230  55.4304722 103.7733241 109.1870597
  55.9633058 103.0121530 108.9569905  54.9018803 103.4806893 109.9294752
  58.5974417  88.8793307 104.7164239  58.2538686  89.7694949 104.6403350
  58.9653379  88.6894965 103.8533824  46.6660267 101.2026838  97.5352841
  47.5035489 101.6123846  97.3186549  46.8438535 100.2626280  97.5053035
  58.5624699  98.8701918  93.2236674  58.0471323  99.6406523  93.4625062
  58.2902008  98.1967055  93.8469736  56.1471810  93.7151619  98.2821913
  55.2913407  93.3258470  98.1027551  56.5598762  93.7943580  97.4221698
  57.6770957  91.2497962 102.6813472  57.1735753  91.2128098 101.8681278
  57.9701564  92.1590705 102.7410129  53.9213843  91.3336692 101.6879654
  54.7866840  91.1379501 101.3285544  53.9891352  91.1047044 102.6149011
  63.5358973 101.6234273  95.1589848  62.7588416 101.2845433  94.7145010
  64.2150454 101.6286896  94.4844813  58.3511002  96.7429010  95.0496455
  58.0461138  97.0575160  95.9006599  59.3041445  96.8210430  95.0923788
  56.7957434 102.9019234  96.6989409  56.2678796 102.1671993  96.3862647
  56.2944937 103.6793910  96.4529378  61.7750280 101.0968254 101.8156456
  61.1173955 101.7867516 101.9036584  62.5790680 101.4864686 102.1590442
  51.5276162  93.5638900  99.0596021  52.1019914  93.3414082  98.3269214
  52.1147144  93.6327595  99.8124622  60.5855739  99.4512627  99.8660397
  61.0987621 100.0842619 100.3682107  61.2356963  98.8513822  99.5003757
  51.8545749  95.5943361  93.0791906  51.0183061  95.9318048  93.4001181
  51.7150519  95.4592341  92.1419043  54.9410034 100.7199444  89.7024382
  54.0337096 100.4888698  89.9015531  55.4381066  99.9237063  89.8898364
  57.8478113 109.4296951  92.6221069  57.1739812 109.7328648  93.2306026
  58.2343935 110.2326032  92.2726526  57.0636570  96.9262083 102.1118738
  56.1459131  97.1477030 101.9540426  57.4796714  97.0008393 101.2530445
  57.8471618  98.3253498  97.2421418  58.5943437  98.8374895  96.9328540
  58.1163207  98.0037551  98.1025812  56.1198268 100.8212039  94.2248373
  55.2109487 100.5371072  94.3220842  56.1493352 101.2411117  93.3651679
  61.3517535 104.4318628  97.9939540  60.8979862 103.5909538  98.0504731
  60.7211502 105.0680027  98.3314320  60.2950455  95.3610614  99.2240208
  59.5573212  94.8488001  99.5550450  60.5477228  94.9210996  98.4123484
  59.7950475 106.2695125  98.9289358  60.0873449 106.8300182  98.2101724
  60.3049095 106.5623686  99.6842517  60.3962082  88.1386866  99.8181977
  60.7020959  87.2784230  99.5307892  61.1214687  88.7304487  99.6180971
  46.6886438  98.5417553  98.2063575  46.4910838  97.9486914  97.4814641
  46.1333102  98.2369763  98.9239514  54.6683162  98.4340660 100.3258168
  54.7231772  97.4814496 100.2500644  53.8574364  98.5900099 100.8099466
  55.8174356 102.3620783  91.5636451  55.3793786 101.6456642  91.1042088
  56.5584797 102.5896897  91.0021542  52.6075522  97.0517719  98.0848547
  51.7943387  97.3511890  98.4913739  53.1034516  96.6573408  98.8023029
  54.7584100 107.0475476 100.0182811  54.7160279 107.2736323  99.0891343
  55.6746799 106.8138851 100.1668613  58.2049734  97.5159544 106.9163441
  58.5599121  97.7431017 107.7757906  58.8521865  97.8477921 106.2940696
  63.9347470 100.6377980  97.6212770  63.7965369 100.8279576  96.6933959
  63.5783689 101.3997362  98.0780821  52.0989597  94.6236075 103.7009782
  52.7388976  94.4824834 103.0032745  51.2667127  94.3370588 103.3248384
  63.9616850 102.7054507 102.6324041  64.3953357 102.6129796 103.4807095
  64.6748431 102.6812007 101.9944057  52.8749901 103.9238505  99.8144774
  53.6690499 103.4288825  99.6127349  52.1641593 103.3956368  99.4512480
  57.6944745 106.3056601 104.1657142  57.7481767 106.8747537 104.9334858
  56.8259526 106.4758486 103.8011179  49.1832664  98.0681587  95.8904527
  48.2530252  98.0066042  96.1074489  49.2790136  97.5457540  95.0941168
  49.1018213  94.5936400  98.4782769  49.3625030  95.5081733  98.3691929
  49.9235385  94.1260842  98.6279381  50.5743138  96.0074157 105.6481593
  51.2466192  95.7991519 104.9994242  49.7472925  95.8096243 105.2086825
  64.8232400 102.7478207 105.1656927  65.0168290 103.6524018 105.4116202
  64.7233018 102.2885626 105.9995512  56.4768710  92.6336098 107.6647254
  55.8296625  93.3326048 107.5711730  57.2469726  93.0672242 108.0323502
  59.8847508 102.8984950 110.7397807  59.7333015 102.6695502 109.8227891
  59.8752188 103.8555551 110.7529152  56.6532845 100.4716863 105.7244074
  57.5824905 100.6228022 105.5513041  56.2323875 100.5600884 104.8692720
  55.4521177 104.4967527 103.4942611  55.3132262 104.1286312 104.3668549
  54.6635773 105.0115167 103.3226569  56.0469328 109.5976624  94.8368148
  56.2221084 109.1264667  95.6513770  55.3602117 110.2242390  95.0649409
  57.0026392 103.8749130 100.8831449  56.6676224 103.8349900 101.7789099
  56.5030337 103.2093846 100.4101859  50.9770636  99.2816760 106.4084030
  50.8390434  98.5496999 107.0095569  51.8875559  99.1925660 106.1268218
  59.9385583 101.2205164  91.1568509  59.3214754 100.4951992  91.0601561
  59.4702072 101.9814525  90.8135583  53.6052936  98.9936719 105.8967710
  54.3152555  98.3529911 105.8554328  53.5622244  99.2449614 106.8193891
  61.5939715 105.9304073 108.8174289  61.5352261 105.2463293 108.1504872
  61.9959233 106.6723063 108.3654915  52.3181870  95.9801937 107.7163349
  51.7819227  95.5292676 108.3684946  51.7298579  96.1147846 106.9733814
  50.6130414 112.7465986 101.6108008  50.8527012 113.3784511 102.2887027
  49.7699610 112.3954026 101.8973367  51.7284129  95.4390589  90.2789813
  50.8513596  95.3179389  89.9152060  52.2041882  94.6476667  90.0268702
  61.5957122 103.8943657 107.0488269  60.7083901 103.5569578 107.1714668
  62.1655673 103.1626688 107.2857034  43.2486269 100.2267748 100.3731320
  43.9357309  99.9129478  99.7852335  43.0934398 101.1309113 100.0998572
  48.0520992  95.1157945 104.8016344  47.9679180  94.5083614 104.0666754
  47.2303698  95.6066963 104.8025840  55.1258276 108.5545109 104.0149512
  55.0528447 109.3600080 104.5268816  54.6835669 108.7537075 103.1897533
  54.9148055 107.7916879  97.5252333  54.1315577 108.3338559  97.6190558
  55.6140800 108.3090859  97.9246575  58.2244705  93.6011508 100.1686539
  58.7213405  92.8481471  99.8487609  57.4531687  93.6375825  99.6029748
  66.0774463  99.3051874 101.8104830  66.0664339 100.1876589 101.4398763
  65.2091842  98.9523425 101.6159367  57.5856959 108.4531943 106.1707671
  58.2984931 109.0879408 106.0983572  57.0946988 108.5495809 105.3547672
  59.3074486 102.3583196  97.7424962  58.3730765 102.4784658  97.5729667
  59.4851155 101.4555662  97.4784972  54.8079674  95.7428891  99.8958223
  54.4377462  95.1899932 100.5839129  55.3038767  95.1387025  99.3433224
  62.6947037  98.2000515  98.2774996  63.1607490  99.0328506  98.2035299
  63.1454538  97.7345496  98.9820255  52.6368873 106.2026386 106.9913241
  53.3378332 106.8362869 107.1442636  52.1663988 106.5441118 106.2308881
  60.7623269 104.5444336  95.2761148  61.0383112 104.4300931  96.1855023
  59.8927767 104.1461821  95.2373322  60.6663700  90.5681102 102.3165898
  59.7526780  90.7985329 102.4848105  61.0956802  90.6519546 103.1679930
  60.4370159  98.7570994 104.8165792  59.7841609  99.0046901 104.1618245
  60.8150539  97.9435132 104.4828269  57.3977333 108.7930687  98.9193962
  57.5799727 107.9752343  99.3821714  58.2210319 109.0098379  98.4818852
  57.7319498 107.7198872  96.1809011  58.2607264 107.2091327  95.5679173
  57.9947718 107.4041402  97.0454544  56.4857732  99.4990805 111.3031829
  55.8098369  99.3984934 111.9734204  57.3085366  99.3430019 111.7667826
  48.2336591 105.7362741 103.9244344  48.8190028 104.9906429 104.0572248
  48.0361429 106.0466698 104.8081008  51.0875246 108.7713989  98.9406786
  50.4185621 109.2560116  98.4570827  50.9488116 109.0183209  99.8550165
  42.8254245  98.3068342 102.6448787  42.8638345  97.7731932 103.4385905
  42.3194538  97.7803547 102.0259764  55.2280515 110.8057732 105.5389445
  55.7798823 110.9689354 106.3038530  55.5686708 111.3962170 104.8669470
  50.2045008  93.1532882 106.1411330  50.2686334  94.0147713 105.7288727
  50.1412128  92.5406884 105.4083688  49.6797280  95.2256015 109.7884364
  50.3069319  94.8433092 110.4021888  48.8225199  95.0070217 110.1540056
  46.4562823  97.0332444  95.7202719  46.7516264  96.1243122  95.6669772
  45.5550859  97.0120183  95.3983721  58.3648902 108.7539708 102.5253127
  58.2400041 107.9529448 102.0164072  59.0227993 109.2485901 102.0367097
  49.9857070  95.1088440 101.7030267  49.2643656  95.7224408 101.5637741
  50.7750326  95.6446205 101.6246913  60.4283810 106.5548728 104.1532677
  59.4814146 106.4354079 104.0811004  60.7766583 105.6671226 104.2358939
  52.7883384  92.4442867 107.9770919  53.3117785  92.6905163 108.7397228
  52.5695717  93.2762902 107.5574056  48.1850665  94.7146541  95.8442044
  47.8563371  93.8343920  95.6617150  48.5390035  94.6594210  96.7318433
  57.4330244 106.3501444 100.3537029  57.2855206 105.4218152 100.5344599
  58.2583737 106.3721535  99.8694105  51.2992488  95.0019511  96.2117521
  51.6388560  95.5305432  95.4896130  51.7464608  95.3399917  96.9876088
  61.0364365 107.1730003 101.4401902  61.9610913 106.9672864 101.3026353
  60.8679669 106.9246404 102.3491244  53.9935929  93.3856562 105.6620590
  53.6532749  92.5864375 106.0641269  53.2874935  93.6858273 105.0897423
  54.6452400  90.4705874 104.1147913  55.4678470  89.9966353 103.9926803
  54.8890464  91.2496358 104.6146599  53.2860635  93.4994133  94.4110814
  54.0068997  93.8775386  93.9074531  52.6625939  94.2183010  94.5145792
  57.4291758  94.2039282  95.3469147  57.6455372  95.0863920  95.0457975
  56.9485825  93.8125495  94.6174789  52.1690979  97.1624995 101.9239891
  52.0235560  97.4765298 102.8164173  51.6916183  97.7809895 101.3710790
  54.0287362  94.1527543 101.9720781  54.0148931  93.2568636 101.6353079
  54.7459790  94.1598207 102.6059067  55.8813493  94.5864883 104.0173908
  55.6231271  95.5081954 104.0158239  55.3498533  94.1895318 104.7074372
  60.8259682 107.6915670  96.7963994  60.9996559 107.1262093  96.0437846
  61.3188573 108.4916565  96.6143483  46.6436641  99.7030339 104.8627552
  46.0990109 100.4790147 104.9947827  47.5215991 100.0501144 104.7046674
  53.4324258  93.0341923  97.2408351  53.5540169  92.1058569  97.4399238
  53.1426300  93.0480609  96.3286666  56.3015448  90.7196834 100.3775071
  56.3237145  90.7836167  99.4227050  56.7183507  89.8801342 100.5715577
  66.6799073 100.4552093  98.4154293  67.1230219  99.7059418  98.0173417
  65.8025583 100.4462230  98.0328025  61.8134854 107.0082435  93.8960892
  62.5085759 107.6289127  94.1148206  62.1558004 106.1577786  94.1713270
  47.4302663  98.8300236 107.7557709  46.6884399  98.9782871 108.3422340
  47.1095408  99.0908501 106.8924459  63.7126277 104.4582140  95.4248223
  64.2377601 104.7969413  94.6997543  63.6248630 103.5229156  95.2411357
  55.3746326 108.3716214 107.5538099  55.6833452 108.1265361 108.4260799
  56.1721808 108.5762852 107.0656969  55.3966938 110.5254124  99.7843476
  54.9571928 110.0330502 100.4776332  56.1475055 109.9827091  99.5435551
  47.8759277 106.7165664  99.7868104  48.7017297 106.4169436  99.4066747
  47.5253329 105.9473287 100.2357892  52.8440810 106.0692133 101.8565777
  52.2220819 105.4062838 101.5568005  53.5145677 106.0953265 101.1739425
  46.0767882 104.6351991 100.7457037  45.2399790 104.2074165 100.5641039
  46.0491527 104.8284434 101.6827829  52.9165338  94.5473921 111.4498283
  52.9653493  95.4236043 111.0676053  53.4587852  94.0051314 110.8769927
  63.5218058 101.9407510 108.0432149  63.5716063 101.7757518 108.9847672
  63.4131982 101.0734769 107.6530030  52.4054317 104.6196056  95.3324238
  52.5542437 105.3031520  94.6790911  53.2120760 104.6001146  95.8473694
  60.8121821  97.9238438 109.3591456  61.7131683  97.7844903 109.0675454
  60.8869795  98.0892893 110.2989633  55.1464626  95.3005293 108.2044642
  54.2767935  95.5938859 107.9327231  55.3824106  95.8845738 108.9251906
  65.0236255 104.3604452 108.2874171  64.7321063 104.7234432 109.1237632
  64.4108386 103.6471460 108.1087503  66.2231937 101.9257332 100.8076741
  67.0578829 102.3647136 100.9714301  66.3591066 101.4495985  99.9884987
  63.2723443  99.4837066 106.7554229  63.7477565  99.6764713 105.9473080
  62.3489009  99.5396252 106.5097612  50.1606950 100.6461234  96.3385307
  49.9152992  99.7423564  96.5365517  50.3302865 100.6478384  95.3964785
  57.8503660  91.5184910 105.7210063  58.3685604  92.2545937 105.3956551
  57.4958793  91.8248903 106.5556822  49.4302598  96.3789591  93.8371468
  48.7371842  96.4533946  93.1811504  49.1854349  95.6149935  94.3592985
  58.1016254  87.9385193 101.2410959  58.3818008  87.2708382 101.8671386
  58.8866861  88.1314288 100.7285623  55.9049723 107.1144186  92.8035985
  55.3323690 107.7334374  92.3506457  56.4782516 107.6643548  93.3375907
  61.9725112  96.3602827 104.9882534  62.9242535  96.4600924 105.0094758
  61.8028563  95.5681095 105.4980619  59.9939492  93.4458410 105.1741935
  59.3989424  93.7263422 104.4788424  59.7089189  93.9352311 105.9458676
  59.1246982 107.3981337  93.9344568  60.0577655 107.3326898  94.1377443
  59.0370195 108.2337603  93.4759100  61.7534999 106.7147207  90.8948515
  61.6748631 106.3807071  91.7884273  62.5744666 107.2068975  90.8939988
  64.4513190  99.5808946 104.1024834  64.4189510  98.6424947 104.2884518
  65.0613814  99.6592983 103.3690659  56.2896521  98.4504999  90.1452038
  57.2355626  98.3211207  90.2140456  55.9110766  97.7119661  90.6221466
  64.6007679  96.3719990 104.1483117  64.0846727  95.5878446 103.9613046
  65.4847627  96.0438706 104.3129637  62.2618406  90.1161005 100.1078930
  62.0643227  89.8076093 100.9922262  62.8718111  90.8422644 100.2376860
  70.2689740 100.6424953 103.2430871  70.9993128 100.3810241 103.8038574
  69.6596685  99.9053675 103.2832939  68.3505037  98.7832816 103.8405322
  67.6238201  98.6488781 103.2321813  67.9352324  99.0909644 104.6462040
  56.1735214 102.5022745 111.6052695  57.0938223 102.6801344 111.7992741
  56.1384797 101.5578791 111.4532394  54.4739438  96.3754976  90.0806923
  53.5670894  96.0788088  90.1569637  54.7515419  96.0784794  89.2141209
  45.3917379  97.6961339 100.5305970  45.0720163  96.8426647 100.2380344
  44.8450807  97.9109917 101.2863937  49.1697286 100.4123780 104.2475476
  49.3883296 101.3440888 104.2663510  49.5823060 100.0531754 105.0330280
  56.0901504  90.9191865  96.2351164  55.2802232  90.5738950  96.6106410
  56.7785921  90.6099409  96.8238776  58.0192052  89.9969912  97.8575461
  58.5723091  90.4165366  98.5165484  58.2562139  89.0705660  97.8998417
  54.0425151  95.9856986 113.6378225  53.9421878  96.9351343 113.5690316
  53.8246693  95.6575225 112.7654295  45.2605639 101.3164250 102.4999091
  44.5669110 100.9018203 101.9869046  46.0078630 101.3584787 101.9032510
  61.3970859  92.1070437  97.3654125  60.8169528  92.7655241  96.9832178
  61.1306792  91.2847782  96.9541543  59.8474426  91.5075495  99.5675446
  60.3474204  91.6192029  98.7589764  60.4910034  91.2036548 100.2076254
  53.9056421  99.4154125 112.4543287  53.4223503 100.2154485 112.6607176
  53.9917361  99.4262069 111.5010731  47.1742381 101.2482504 100.3765106
  47.1513069 101.3470192  99.4246989  47.4843018 102.0947655 100.6982272
  49.8329759 103.3058659 104.4911720  50.7873013 103.2742602 104.4241652
  49.6342283 102.8449283 105.3061946  50.4229141 101.8759775 107.0582518
  51.2422030 102.3703854 107.0817355  50.6965949 100.9591743 107.0300086
  60.1795737  94.2670528  96.4210474  59.2921592  94.5520178  96.2030668
  60.5949726  94.1064291  95.5737750  63.5310273  94.2917049 100.1364813
  64.3070664  94.7813501 100.4089430  62.8058408  94.7175103 100.5936682
  65.9682832  95.0044668 101.1938753  66.5627323  94.7640404 100.4832062
  66.0409416  94.2851798 101.8212290  48.1879988 108.8478279 101.5081918
  48.0534456 108.0878680 100.9419916  47.7712050 109.5719179 101.0410707
  59.3238951 104.0315202  90.5158494  60.0274801 104.2365205  91.1316149
  58.6001600 104.5991964  90.7807577  60.1536761  99.7825064  96.6360764
  60.0971962 100.2393615  95.7968396  60.7065103  99.0215748  96.4583606
  63.9641567  95.5714795  97.4610883  63.7078501  95.1711431  98.2919091
  63.3394435  96.2858589  97.3361022  68.2753905  98.3110869  99.9682175
  67.7153463  98.3804058 100.7413737  67.6697408  98.1351853  99.2481671
  51.3449114 109.7447596 101.7200361  51.2281498 110.6893028 101.6179051
  50.5241560 109.4421157 102.1086160  61.2325648 104.4697732  92.5656954
  62.0671252 104.0378930  92.3834428  61.0709991 104.2979745  93.4933848
  60.8871540 100.9729845  93.9313293  60.8320344 100.8074116  92.9901737
  60.2617596 101.6805878  94.0875483  45.6764055  96.2097909 107.7574715
  46.3222919  95.6996863 108.2461940  45.4681206  96.9466591 108.3318140
  52.3703628 110.3975858 104.9356289  53.2730874 110.4299468 105.2522784
  52.1440998 109.4676309 104.9502625  54.1257230 109.1506844 101.5966368
  53.1752861 109.1508706 101.4830740  54.4289716 108.4039579 101.0802403
  50.0161546  93.3565526 111.8549729  50.8793008  93.0002331 112.0653054
  49.4426957  93.0179421 112.5425134  66.6699630 114.9394811 102.5973655
  66.3318141 114.8235875 101.7094190  67.5389398 114.5385976 102.5774661
  62.5286445 116.7930287  98.5870546  61.9651310 116.7020224  97.8186834
  62.4138840 115.9730192  99.0673039  60.0750877 118.2881479 101.4254766
  60.8672169 117.9472303 101.0101066  60.3147527 118.3976454 102.3456920
  68.1086004 120.4601255  93.8985011  67.4573984 121.0455335  93.5119025
  68.9030367 120.9907450  93.9580048  62.0341631 117.5490392  94.2972145
  62.8072507 117.0019379  94.1585021  62.3867030 118.4134641  94.5086607
  64.3707909 113.7083058  91.9290595  64.6233430 113.1864579  91.1674058
  63.4332468 113.5449204  92.0317279  69.4151192 112.7118836  99.7365338
  70.2014281 112.2938260  99.3855755  69.6789896 113.6164929  99.9046987
  69.5861269 118.1491687  94.4353995  68.9507102 118.2226313  95.1474900
  69.2558676 118.7385286  93.7573074  74.8159619 112.6494070 100.6398317
  75.5484791 112.0793286 100.8736146  74.0598975 112.2615670 101.0804822
  64.0904198 115.6111164  94.1314970  63.9740456 114.9356067  94.7996054
  64.2006458 115.1243538  93.3147123  66.4335739 115.0721311  97.8361659
  66.0693946 114.5451932  98.5474581  67.2902855 114.6819780  97.6628145
  72.3385039 106.3615644 105.0992926  72.0068364 107.2311055 104.8754140
  71.7430653 106.0451928 105.7786956  66.0741226 110.1011211  92.8323008
  66.2415628 110.9691447  93.1993479  65.8838395 110.2638493  91.9084297
  62.2829040 115.0141987 100.5325543  61.3579537 114.8818201 100.7403234
  62.5313453 115.7936206 101.0295485  66.0530446 112.5568868  93.8169675
  65.9330072 113.0025919  94.6555155  65.3583035 112.9054186  93.2583213
  59.6437851 114.6575260 101.3669332  59.7730232 114.9109739 102.2808743
  58.9635303 115.2502968 101.0473987  63.8137339 125.3272510  97.4659806
  63.7361368 126.2780335  97.5448287  63.2098982 124.9818383  98.1234732
  71.7515513 113.0290342  94.6450009  72.6633369 113.2617728  94.4697706
  71.2425160 113.6127386  94.0825087  69.0951487 109.2048378 102.8939870
  68.2335966 109.5029631 103.1856607  69.1213922 109.4218776 101.9620902
  65.9113057 117.7490568  99.3013675  66.3751402 118.0278271  98.5118298
  65.6469855 116.8474013  99.1186766  62.8037138 117.2962050 102.2393439
  63.3738495 117.7249318 101.6010923  63.3945250 117.0144634 102.9377624
  64.8481943 113.8713720  96.1103240  65.5505986 114.3234764  96.5777167
  64.5162571 113.2297539  96.7383134  58.5907277 112.1297273 101.4120374
  57.8006331 112.3854802 100.9360485  59.0818524 112.9445611 101.5172415
  60.5422022 112.4941852  98.3703851  59.7453185 112.6060547  98.8887346
  60.3147614 112.8328505  97.5044741  56.8744980 112.3827764 103.8435365
  57.1253018 113.2674773 104.1092941  57.4104528 112.2032365 103.0710457
  66.0875707 120.6854663  96.1865346  65.9521382 121.5306199  96.6150193
  66.6285520 120.8873941  95.4231279  59.5405105 118.2030101  96.7593271
  60.0529625 118.9973351  96.9098835  60.1927818 117.5056392  96.6926872
  61.3499990 121.3195857  98.8416024  61.5266618 122.2413822  98.6537008
  62.1456823 121.0054277  99.2710404  69.4368171 104.2085225 104.7164239
  69.0932440 105.0986867 104.6403350  69.8047134 104.0186883 103.8533824
  57.5054022 116.5318755  97.5352841  58.3429244 116.9415764  97.3186549
  57.6832289 115.5918198  97.5053035  69.4018454 114.1993836  93.2236674
  68.8865077 114.9698441  93.4625062  69.1295762 113.5258972  93.8469736
  66.9865565 109.0443537  98.2821913  66.1307161 108.6550387  98.1027551
  67.3992517 109.1235498  97.4221698  68.5164711 106.5789880 102.6813472
  68.0129507 106.5420015 101.8681278  68.8095318 107.4882623 102.7410129
  64.7607597 106.6628610 101.6879654  65.6260594 106.4671419 101.3285544
  64.8285106 106.4338962 102.6149011  74.3752728 116.9526191  95.1589848
  73.5982171 116.6137350  94.7145010  75.0544209 116.9578814  94.4844813
  69.1904757 112.0720928  95.0496455  68.8854892 112.3867077  95.9006599
  70.1435199 112.1502348  95.0923788  67.6351189 118.2311151  96.6989409
  67.1072550 117.4963911  96.3862647  67.1338691 119.0085828  96.4529378
  62.3669916 108.8930818  99.0596021  62.9413668 108.6705999  98.3269214
  62.9540899 108.9619512  99.8124622  71.4249494 114.7804545  99.8660397
  71.9381375 115.4134536 100.3682107  72.0750717 114.1805740  99.5003757
  62.6939503 110.9235279  93.0791906  61.8576816 111.2609965  93.4001181
  62.5544273 110.7884259  92.1419043  64.6692584 105.7672067  97.7871090
  64.0156996 105.4521084  97.1627705  64.6273058 105.1447807  98.5130913
  65.7803789 116.0491362  89.7024382  64.8730851 115.8180615  89.9015531
  66.2774821 115.2528981  89.8898364  68.6871868 124.7588869  92.6221069
  68.0133567 125.0620566  93.2306026  69.0737690 125.5617949  92.2726526
  67.9030324 112.2554000 102.1118738  66.9852886 112.4768947 101.9540426
  68.3190468 112.3300311 101.2530445  68.6865372 113.6545416  97.2421418
  69.4337191 114.1666813  96.9328540  68.9556962 113.3329469  98.1025812
  66.9592022 116.1503957  94.2248373  66.0503242 115.8662989  94.3220842
  66.9887106 116.5703035  93.3651679  71.1344209 110.6902532  99.2240208
  70.3966966 110.1779918  99.5550450  71.3870983 110.2502914  98.4123484
  71.2355837 103.4678784  99.8181977  71.5414713 102.6076148  99.5307892
  71.9608442 104.0596404  99.6180971  57.5280193 113.8709471  98.2063575
  57.3304593 113.2778831  97.4814641  56.9726857 113.5661681  98.9239514
  65.5076916 113.7632577 100.3258168  65.5625526 112.8106414 100.2500644
  64.6968118 113.9192016 100.8099466  66.6568110 117.6912700  91.5636451
  66.2187540 116.9748559  91.1042088  67.3978551 117.9188815  91.0021542
  63.4469276 112.3809637  98.0848547  62.6337142 112.6803808  98.4913739
  63.9428271 111.9865326  98.8023029  74.7741225 115.9669897  97.6212770
  74.6359124 116.1571493  96.6933959  74.4177444 116.7289280  98.0780821
  62.9383351 109.9527992 103.7009782  63.5782730 109.8116752 103.0032745
  62.1060882 109.6662506 103.3248384  63.7143655 119.2530423  99.8144774
  64.5084254 118.7580743  99.6127349  63.0035347 118.7248286  99.4512480
  60.0226418 113.3973505  95.8904527  59.0924007 113.3357960  96.1074489
  60.1183890 112.8749457  95.0941168  59.9411968 109.9228317  98.4782769
  60.2018785 110.8373651  98.3691929  60.7629140 109.4552760  98.6279381
  61.4136893 111.3366075 105.6481593  62.0859946 111.1283437 104.9994242
  60.5866679 111.1388161 105.2086825  66.8863083 124.9268541  94.8368148
  67.0614839 124.4556585  95.6513770  66.1995871 125.5534308  95.0649409
  70.7779338 116.5497082  91.1568509  70.1608508 115.8243910  91.0601561
  70.3095826 117.3106442  90.8135583  62.5677884 110.7682506  90.2789813
  61.6907350 110.6471307  89.9152060  63.0435637 109.9768585  90.0268702
  54.0880024 115.5559666 100.3731320  54.7751064 115.2421396  99.7852335
  53.9328153 116.4601031 100.0998572  58.8914746 110.4449863 104.8016344
  58.8072935 109.8375532 104.0666754  58.0697452 110.9358881 104.8025840
  65.7541810 123.1208797  97.5252333  64.9709332 123.6630477  97.6190558
  66.4534555 123.6382776  97.9246575  69.0638460 108.9303426 100.1686539
  69.5607159 108.1773388  99.8487609  68.2925441 108.9667743  99.6029748
  70.1468241 117.6875113  97.7424962  69.2124519 117.8076576  97.5729667
  70.3244909 116.7847580  97.4784972  65.6473429 111.0720809  99.8958223
  65.2771216 110.5191849 100.5839129  66.1432521 110.4678943  99.3433224
  73.5340792 113.5292433  98.2774996  74.0001244 114.3620424  98.2035299
  73.9848292 113.0637414  98.9820255  71.6017023 119.8736254  95.2761148
  71.8776867 119.7592848  96.1855023  70.7321522 119.4753739  95.2373322
  71.5057455 105.8973020 102.3165898  70.5920534 106.1277246 102.4848105
  71.9350556 105.9811464 103.1679930  68.5713253 123.0490790  96.1809011
  69.1001019 122.5383244  95.5679173  68.8341472 122.7333320  97.0454544
  53.6648000 113.6360259 102.6448787  53.7032099 113.1023850 103.4385905
  53.1588293 113.1095465 102.0259764  61.0438762 108.4824800 106.1411330
  61.1080089 109.3439631 105.7288727  60.9805883 107.8698801 105.4083688
  57.2956578 112.3624361  95.7202719  57.5910019 111.4535040  95.6669772
  56.3944613 112.3412101  95.3983721  60.8250825 110.4380358 101.7030267
  60.1037410 111.0516326 101.5637741  61.6144080 110.9738123 101.6246913
  59.0244419 110.0438459  95.8442044  58.6957125 109.1635838  95.6617150
  59.3783790 109.9886128  96.7318433  62.1386242 110.3311429  96.2117521
  62.4782315 110.8597350  95.4896130  62.5858363 110.6691835  96.9876088
  64.8329683 108.7148480 105.6620590  64.4926503 107.9156293 106.0641269
  64.1268689 109.0150190 105.0897423  65.4846155 105.7997792 104.1147913
  66.3072224 105.3258270 103.9926803  65.7284218 106.5788276 104.6146599
  64.1254389 108.8286051  94.4110814  64.8462752 109.2067303  93.9074531
  63.5019694 109.5474927  94.5145792  68.2685512 109.5331199  95.3469147
  68.4849127 110.4155837  95.0457975  67.7879579 109.1417413  94.6174789
  63.0084734 112.4916913 101.9239891  62.8629314 112.8057216 102.8164173
  62.5309937 113.1101813 101.3710790  64.8681117 109.4819461 101.9720781
  64.8542685 108.5860554 101.6353079  65.5853545 109.4890124 102.6059067
  66.7207247 109.9156801 104.0173908  66.4625025 110.8373872 104.0158239
  66.1892288 109.5187235 104.7074372  57.4830396 115.0322257 104.8627552
  56.9383864 115.8082065 104.9947827  58.3609746 115.3793062 104.7046674
  64.2718013 108.3633841  97.2408351  64.3933924 107.4350487  97.4399238
  63.9820055 108.3772527  96.3286666  67.1409203 106.0488751 100.3775071
  67.1630900 106.1128085  99.4227050  67.5577262 105.2093260 100.5715577
  72.6528609 122.3374352  93.8960892  73.3479513 122.9581045  94.1148206
  72.9951759 121.4869704  94.1713270  74.5520032 119.7874058  95.4248223
  75.0771356 120.1261331  94.6997543  74.4642384 118.8521073  95.2411357
  58.7153031 122.0457582  99.7868104  59.5411051 121.7461354  99.4066747
  58.3647083 121.2765205 100.2357892  56.9161636 119.9643909 100.7457037
  56.0793545 119.5366083 100.5641039  56.8885282 120.1576352 101.6827829
  63.2448071 119.9487974  95.3324238  63.3936192 120.6323438  94.6790911
  64.0514515 119.9293064  95.8473694  61.0000704 115.9753151  96.3385307
  60.7546746 115.0715481  96.5365517  61.1696619 115.9770302  95.3964785
  68.6897414 106.8476828 105.7210063  69.2079358 107.5837855 105.3956551
  68.3352547 107.1540821 106.5556822  60.2696352 111.7081509  93.8371468
  59.5765597 111.7825864  93.1811504  60.0248104 110.9441853  94.3592985
  68.9410009 103.2677110 101.2410959  69.2211762 102.6000299 101.8671386
  69.7260615 103.4606206 100.7285623  66.7443477 122.4436104  92.8035985
  66.1717444 123.0626291  92.3506457  67.3176271 122.9935466  93.3375907
  69.9640737 122.7273254  93.9344568  70.8971410 122.6618816  94.1377443
  69.8763950 123.5629521  93.4759100  72.5928753 122.0439125  90.8948515
  72.5142385 121.7098988  91.7884273  73.4138420 122.5360892  90.8939988
  67.1290276 113.7796917  90.1452038  68.0749380 113.6503125  90.2140456
  66.7504520 113.0411579  90.6221466  73.1012160 105.4452923 100.1078930
  72.9036981 105.1368011 100.9922262  73.7111866 106.1714562 100.2376860
  65.3133193 111.7046893  90.0806923  64.4064648 111.4080006  90.1569637
  65.5909174 111.4076711  89.2141209  56.2311133 113.0253257 100.5305970
  55.9113917 112.1718565 100.2380344  55.6844561 113.2401835 101.2863937
  60.0091041 115.7415698 104.2475476  60.2277050 116.6732805 104.2663510
  60.4216814 115.3823672 105.0330280  66.9295258 106.2483783  96.2351164
  66.1195987 105.9030868  96.6106410  67.6179675 105.9391327  96.8238776
  68.8585807 105.3261830  97.8575461  69.4116845 105.7457283  98.5165484
  69.0955893 104.3997578  97.8998417  64.0831977 108.5633828  90.2218902
  64.9451141 108.8888727  90.4814720  64.2682321 107.7765324  89.7091968
  56.0999393 116.6456168 102.4999091  55.4062864 116.2310121 101.9869046
  56.8472384 116.6876705 101.9032510  72.2364614 107.4362355  97.3654125
  71.6563283 108.0947159  96.9832178  71.9700546 106.6139700  96.9541543
  70.6868180 106.8367413  99.5675446  71.1867958 106.9483947  98.7589764
  71.3303788 106.5328465 100.2076254  58.0136136 116.5774422 100.3765106
  57.9906824 116.6762109  99.4246989  58.3236772 117.4239573 100.6982272
  71.0189492 109.5962445  96.4210474  70.1315347 109.8812096  96.2030668
  71.4343481 109.4356209  95.5737750  74.3704028 109.6208966 100.1364813
  75.1464418 110.1105419 100.4089430  73.6452162 110.0467020 100.5936682
  76.8076587 110.3336586 101.1938753  77.4021077 110.0932321 100.4832062
  76.8803170 109.6143716 101.8212290  70.1632705 119.3607120  90.5158494
  70.8668555 119.5657122  91.1316149  69.4395354 119.9283882  90.7807577
  70.9930516 115.1116981  96.6360764  70.9365717 115.5685533  95.7968396
  71.5458858 114.3507666  96.4583606  74.8035321 110.9006713  97.4610883
  74.5472256 110.5003349  98.2919091  74.1788189 111.6150507  97.3361022
  72.0719403 119.7989649  92.5656954  72.9065007 119.3670848  92.3834428
  71.9103746 119.6271663  93.4933848  71.7265295 116.3021762  93.9313293
  71.6714099 116.1366034  92.9901737  71.1011350 117.0097795  94.0875483
  56.5157810 111.5389827 107.7574715  57.1616673 111.0288781 108.2461940
  56.3074961 112.2758509 108.3318140  65.0361420 105.8029872  93.5098611
  65.0240090 106.7471711  93.6666882  65.9284842 105.6200017  93.2158073
  68.8513540 102.3972648  97.7644548  68.0845936 101.8431135  97.9101230
  69.2624245 102.4694517  98.6258700  73.5333258 126.2527196  93.0791906
  72.6970570 126.5901883  93.4001181  73.3938028 126.1176176  92.1419043
  73.4071638 126.0974424  90.2789813  72.5301105 125.9763225  89.9152060
  73.8829391 125.3060502  90.0268702  71.1090106 127.0373427  93.8371468
  70.4159351 127.1117782  93.1811504  70.8641858 126.2733770  94.3592985
  76.1526947 127.0338811  90.0806923  75.2458403 126.7371924  90.1569637
  76.4302928 126.7368629  89.2141209  74.9225732 123.8925746  90.2218902
  75.7844896 124.2180644  90.4814720  75.1076076 123.1057242  89.7091968
  75.8755175 121.1321789  93.5098611  75.8633845 122.0763629  93.6666882
  76.7678597 120.9491935  93.2158073  15.6641152  15.3469917  89.3857437
  16.3019562  15.2276664  88.6820777  15.5461995  16.2950761  89.4445389
  12.4730858  15.2997345  89.3218962  12.1349370  15.1838410  88.4339497
  13.3420627  14.8988510  89.3019968   8.3317674  17.1532821  85.3115853
   7.7682539  17.0622758  84.5432140   8.2170069  16.3332726  85.7918345
  13.9117233  20.8203789  80.6230318  13.2605213  21.4057869  80.2364331
  14.7061596  21.3509984  80.6825355   7.8372860  17.9092926  81.0217452
   8.6103736  17.3621913  80.8830328   8.1898259  18.7737176  81.2331913
  10.1739138  14.0685592  78.6535902  10.4264658  13.5467114  77.8919365
   9.2363697  13.9051738  78.7562585  15.2182421  13.0721371  86.4610645
  16.0045510  12.6540794  86.1101062  15.4821125  13.9767463  86.6292293
  15.3892498  18.5094221  81.1599302  14.7538331  18.5828848  81.8720206
  15.0589904  19.0987820  80.4818381  20.6190848  13.0096604  87.3643624
  21.3516020  12.4395821  87.5981453  19.8630203  12.6218204  87.8050129
   9.8935426  15.9713698  80.8560277   9.7771685  15.2958602  81.5241361
  10.0037686  15.4846072  80.0392430  12.2366967  15.4323845  84.5606966
  11.8725175  14.9054466  85.2719887  13.0934083  15.0422314  84.3873451
  11.8772454  10.4613745  79.5568315  12.0446857  11.3293981  79.9238786
  11.6869623  10.6241027  78.6329604  14.6347788  18.9230724  91.2234145
  14.3348511  19.8255763  91.1149952  14.2898847  18.6562907  92.0755298
  18.0344931  11.4413264  88.9031582  17.1261809  11.3728673  88.6090343
  17.9832527  11.9185209  89.7313408  11.8561675  12.9171403  80.5414981
  11.7361300  13.3628453  81.3800462  11.1614264  13.2656720  79.9828519
   9.6168567  25.6875044  84.1905113   9.5392597  26.6382869  84.2693593
   9.0130211  25.3420917  84.8480039  17.5546741  13.3892876  81.3695315
  18.4664598  13.6220263  81.1943013  17.0456388  13.9729920  80.8070394
  16.1616324  18.3718694  88.7608897  15.5325186  18.5364408  88.0584965
  15.7741986  18.7860304  89.5319861  20.0405556  19.3073132  86.1153261
  19.3556594  19.6872033  85.5650294  20.1249405  19.9168459  86.8485208
  11.7144286  18.1093102  86.0258982  12.1782631  18.3880805  85.2363604
  11.4501084  17.2076547  85.8432073  10.6513172  14.2316255  82.8348547
  11.3537215  14.6837298  83.3022473  10.3193800  13.5900074  83.4628440
  18.4102315  19.8305047  90.8870961  19.2319759  19.4285234  90.6053643
  18.4064718  19.7273281  91.8387077  26.5008308  16.1743795  87.2355933
  25.7472017  15.6051193  87.0799937  26.6355849  16.1406459  88.1826568
  11.8906936  21.0457197  82.9110652  11.7552611  21.8908733  83.3395500
  12.4316749  21.2476475  82.1476586   5.3436334  18.5632635  83.4838577
   5.8560854  19.3575886  83.6344142   5.9959046  17.8658926  83.4172179
   7.1531218  21.6798392  85.5661331   7.3297847  22.6016356  85.3782314
   7.9488052  21.3656811  85.9955710   8.2762534  23.1976565  91.5671673
   8.8269959  23.0693629  90.7948667   7.4374010  23.4971454  91.2166566
  15.2049683  14.5596370  79.9481981  14.6896306  15.3300975  80.1870368
  14.9326991  13.8861506  80.5715042  20.1783957  17.3128725  81.8835154
  19.4013399  16.9739884  81.4390316  20.8575438  17.3181348  81.2090119
  14.9935986  12.4323462  81.7741762  14.6886121  12.7469612  82.6251905
  15.9466428  12.5104882  81.8169095  13.4382418  18.5913686  83.4234716
  12.9103779  17.8566445  83.1107953  12.9369920  19.3688362  83.1774684
  18.4175264  16.7862706  88.5401762  17.7598938  17.4761968  88.6281891
  19.2215663  17.1759138  88.8835749  17.2280722  15.1407079  86.5905704
  17.7412604  15.7737071  87.0927414  17.8781946  14.5408274  86.2249064
  11.5835018  16.4093896  76.4269689  10.6762079  16.1783149  76.6260838
  12.0806050  15.6131515  76.6143671  14.4903097  25.1191403  79.3466375
  13.8164795  25.4223100  79.9551333  14.8768919  25.9220483  78.9971832
  14.4896601  14.0147950  83.9666725  15.2368420  14.5269347  83.6573847
  14.7588191  13.6932003  84.8271118  12.7623251  16.5106491  80.9493679
  11.8534470  16.2265524  81.0466149  12.7918335  16.9305569  80.0896986
  17.9942519  20.1213080  84.7184847  17.5404846  19.2803990  84.7750037
  17.3636485  20.7574479  85.0559627  16.9375438  11.0505066  85.9485514
  16.1998195  10.5382453  86.2795757  17.1902212  10.6105448  85.1368791
  16.4375458  21.9589577  85.6534665  16.7298432  22.5194634  84.9347031
  16.9474078  22.2518138  86.4087824  11.3108145  14.1235111  87.0503475
  11.3656755  13.1708948  86.9745951  10.4999347  14.2794551  87.5344773
  12.4599339  18.0515234  78.2881758  12.0218769  17.3351093  77.8287395
  13.2009780  18.2791349  77.7266849   9.2500505  12.7412171  84.8093853
   8.4368371  13.0406342  85.2159046   9.7459499  12.3467860  85.5268336
  11.4009083  22.7369928  86.7428118  11.3585262  22.9630774  85.8136650
  12.3171782  22.5033303  86.8913919  20.5772454  16.3272432  84.3458076
  20.4390352  16.5174028  83.4179266  20.2208673  17.0891814  84.8026127
  20.6041833  18.3948959  89.3569348  21.0378340  18.3024248  90.2052402
  21.3173414  18.3706459  88.7189364   9.5174884  19.6132957  86.5390081
  10.3115482  19.1183277  86.3372656   8.8066576  19.0850820  86.1757786
  14.3369728  21.9951053  90.8902448  14.3906751  22.5641989  91.6580164
  13.4684510  22.1652938  90.5256486  21.4657383  18.4372659  91.8902233
  21.6593273  19.3418470  92.1361508  21.3658001  17.9780078  92.7240818
  12.0946160  20.1861979  90.2187918  11.9557246  19.8180763  91.0913856
  11.3060756  20.7009619  90.0471876  12.6894312  25.2871076  81.5613454
  12.8646067  24.8159119  82.3759077  12.0027100  25.9136842  81.7894715
  13.6451375  19.5643582  87.6076756  13.3101208  19.5244352  88.5034406
  13.1455321  18.8988298  87.1347166  16.5810567  16.9099616  77.8813815
  15.9639737  16.1846444  77.7846868  16.1127055  17.6708976  77.5380890
   7.2555397  28.4360438  88.3353315   7.4951995  29.0678962  89.0132333
   6.4124594  28.0848478  88.6218674  11.7683259  24.2439561  90.7394819
  11.6953430  25.0494532  91.2514123  11.3260652  24.4431527  89.9142840
  11.5573039  23.4811331  84.2497640  10.7740560  24.0233011  84.3435865
  12.2565784  23.9985310  84.6491881  14.8669689   9.2905960  86.8931846
  15.3638388   8.5375923  86.5732916  14.0956670   9.3270277  86.3275055
  22.7199446  14.9946326  88.5350137  22.7089322  15.8771041  88.1644070
  21.8516826  14.6417877  88.3404674  14.2281942  24.1426395  92.8952977
  14.9409915  24.7773860  92.8228879  13.7371971  24.2390261  92.0792979
  15.9499469  18.0477647  84.4670269  15.0155748  18.1679110  84.2974973
  16.1276138  17.1450114  84.2030279  19.3372021  13.8894967  85.0020303
  19.8032473  14.7222958  84.9280606  19.7879521  13.4239948  85.7065562
  17.4048252  20.2338788  82.0006455  17.6808096  20.1195383  82.9100329
  16.5352751  19.8356273  81.9618628  14.0402316  24.4825139  85.6439269
  14.2224710  23.6646795  86.1067021  14.8635302  24.6992831  85.2064159
  14.3744481  23.4093324  82.9054317  14.9032248  22.8985779  82.2924479
  14.6372701  23.0935854  83.7699850   7.7300229  24.4608441  85.6652093
   7.0610605  24.9454568  85.1816133   7.5913099  24.7077661  86.5795472
  11.8705498  26.4952184  92.2634751  12.4223806  26.6583806  93.0283837
  12.2111691  27.0856622  91.5914776  15.0073885  24.4434160  89.2498434
  14.8825025  23.6423900  88.7409379  15.6652976  24.9380353  88.7612404
  17.0708794  22.2443180  90.8777984  16.1239129  22.1248531  90.8056310
  17.4191567  21.3565678  90.9604245  14.0755227  22.0395896  87.0782336
  13.9280189  21.1112603  87.2589906  14.9008720  22.0615987  86.5939411
  17.6789349  22.8624455  88.1647209  18.6035896  22.6567316  88.0271660
  17.5104652  22.6140856  89.0736550  14.0716741   9.8933734  82.0714453
  14.2880356  10.7758372  81.7703281  13.5910808   9.5019947  81.3420095
  17.4684665  23.3810122  83.5209300  17.6421542  22.8156545  82.7683153
  17.9613556  24.1811017  83.3388790  23.3224056  16.1446545  85.1399600
  23.7655202  15.3953870  84.7418723  22.4450566  16.1356682  84.7573332
  18.4559837  22.6976887  80.6206198  19.1510742  23.3183579  80.8393513
  18.7982988  21.8472238  80.8958576  20.3551260  20.1476592  82.1493529
  20.8802585  20.4863865  81.4242849  20.2673613  19.2123607  81.9656664
  12.0391921  26.2148575  86.5088782  11.5996912  25.7224954  87.2021639
  12.7900038  25.6721543  86.2680858   4.5184260  22.4060116  86.5113410
   5.3442280  22.1063888  86.1312054   4.1678312  21.6367739  86.9603199
   9.4865793  21.7586585  88.5811084   8.8645803  21.0957290  88.2813312
  10.1570660  21.7847716  87.8984732   2.7192865  20.3246443  87.4702344
   1.8824774  19.8968617  87.2886345   2.6916511  20.5178886  88.4073135
   9.0479300  20.3090508  82.0569545   9.1967421  20.9925972  81.4036217
   9.8545744  20.2895598  82.5719000  21.6661238  20.0498904  95.0119477
  21.3746047  20.4128884  95.8482938  21.0533370  19.3365912  94.8332809
  22.8656921  17.6151783  87.5322047  23.7003812  18.0541588  87.6959608
  23.0016050  17.1390437  86.7130293   6.8031933  16.3355686  83.0630614
   6.5577975  15.4318016  83.2610824   6.9727848  16.3372836  82.1210092
  12.5474706  22.8038638  79.5281292  11.9748673  23.4228825  79.0751764
  13.1207499  23.3538000  80.0621214  15.7671966  23.0875788  80.6589874
  16.7002639  23.0221350  80.8622750  15.6795178  23.9232055  80.2004407
  18.3959982  22.4041659  77.6193822  18.3173614  22.0701522  78.5129580
  19.2169649  22.8963427  77.6185294  21.0938173  15.2703398  90.8270140
  21.0614494  14.3319399  91.0129824  21.7038797  15.3487435  90.0935965
  12.9321504  14.1399451  76.8697345  13.8780609  14.0105659  76.9385763
  12.5535749  13.4014113  77.3466773  26.9114723  16.3319405  89.9676177
  27.6418112  16.0704693  90.5283881  26.3021669  15.5948127  90.0078245
  24.9930020  14.4727268  90.5650628  24.2663184  14.3383232  89.9567120
  24.5777307  14.7804096  91.3707347  11.1164421  12.0649427  76.8052230
  10.2095877  11.7682540  76.8814943  11.3940402  11.7679246  75.9386516
  18.0395843   7.7964889  84.0899432  17.4594512   8.4549693  83.7077484
  17.7731775   6.9742234  83.6786849  16.8220721   9.9564980  83.1455780
  15.9346576  10.2414630  82.9275975  17.2374710   9.7958743  82.2983057
  20.1735257   9.9811501  86.8610119  20.9495647  10.4707953  87.1334736
  19.4483391  10.4069555  87.3181989  22.6107815  10.6939120  87.9184060
  23.2052306  10.4534856  87.2077368  22.6834399   9.9746250  88.5457596
   4.8304971  24.5372731  88.2327225   4.6959439  23.7773132  87.6665223
   4.4137033  25.2613631  87.7656014  15.9663934  19.7209654  77.2403800
  16.6699784  19.9259657  77.8561456  15.2426583  20.2886416  77.5052884
  16.7961744  15.4719515  83.3606070  16.7396946  15.9288067  82.5213703
  17.3490087  14.7110200  83.1828913  20.6066550  11.2609247  84.1856190
  20.3503484  10.8605883  85.0164398  19.9819418  11.9753041  84.0606329
  24.9178888  14.0005321  86.6927481  24.3578446  14.0698510  87.4659043
  24.3122391  13.8246305  85.9726978   7.9874097  25.4342048  88.4445668
   7.8706481  26.3787480  88.3424358   7.1666543  25.1315609  88.8331467
  17.8750631  20.1592183  79.2902260  18.7096235  19.7273382  79.1079735
  17.7134974  19.9874197  80.2179155  17.5296524  16.6624297  80.6558600
  17.4745327  16.4968568  79.7147044  16.9042579  17.3700330  80.8120789
   9.0128611  26.0870310  91.6601596   9.9155858  26.1193920  91.9768091
   8.7865981  25.1570761  91.6747932  10.7682213  24.8401296  88.3211675
   9.8177844  24.8403158  88.2076047  11.0714699  24.0934031  87.8047709
  26.5034907  30.6761835  89.3857437  27.1413317  30.5568582  88.6820777
  26.3855749  31.6242678  89.4445389  23.3124613  30.6289263  89.3218962
  22.9743124  30.5130327  88.4339497  24.1814381  30.2280428  89.3019968
  19.1711429  32.4824739  85.3115853  18.6076294  32.3914676  84.5432140
  19.0563824  31.6624643  85.7918345  23.7944396  31.7824114  95.2805167
  23.7833037  31.3876913  94.4085671  23.9565035  31.0490187  95.8738939
  16.7175860  33.9775931  88.1500073  17.5097152  33.6366755  87.7346372
  16.9572511  34.0870906  89.0702226  24.7510987  36.1495707  80.6230318
  24.0998967  36.7349787  80.2364331  25.5455350  36.6801902  80.6825355
  18.6766614  33.2384844  81.0217452  19.4497490  32.6913831  80.8830328
  19.0292013  34.1029093  81.2331913  20.5151657  34.5661226  94.2284351
  20.2241523  35.4706857  94.1131018  21.1508641  34.6077754  94.9428421
  21.4407864  31.9438075  90.8185711  22.0371436  31.7194097  90.1042674
  21.4982835  31.2022820  91.4211159  21.0132892  29.3977510  78.6535902
  21.2658413  28.8759031  77.8919365  20.0757451  29.2343655  78.7562585
  26.0576175  28.4013288  86.4610645  26.8439264  27.9832712  86.1101062
  26.3214879  29.3059381  86.6292293  26.2286252  33.8386139  81.1599302
  25.5932085  33.9120765  81.8720206  25.8983659  34.4279738  80.4818381
  31.4584602  28.3388522  87.3643624  32.1909774  27.7687738  87.5981453
  30.7023958  27.9510122  87.8050129  20.7329181  31.3005616  80.8560277
  20.6165439  30.6250519  81.5241361  20.8431441  30.8137990  80.0392430
  23.0760722  30.7615763  84.5606966  22.7118929  30.2346384  85.2719887
  23.9327838  30.3714232  84.3873451  28.9810023  22.0510096  91.8238232
  28.6493347  22.9205507  91.5999447  28.3855636  21.7346380  92.5032263
  22.7166209  25.7905663  79.5568315  22.8840611  26.6585899  79.9238786
  22.5263378  25.9532944  78.6329604  25.4741542  34.2522642  91.2234145
  25.1742265  35.1547680  91.1149952  25.1292602  33.9854825  92.0755298
  18.9254024  30.7036439  87.2570849  18.0004520  30.5712653  87.4648541
  19.1738437  31.4830658  87.7540792  28.8738686  26.7705182  88.9031582
  27.9655563  26.7020590  88.6090343  28.8226282  27.2477127  89.7313408
  22.6955430  28.2463320  80.5414981  22.5755055  28.6920371  81.3800462
  22.0008018  28.5948638  79.9828519  16.2862835  30.3469712  88.0914638
  16.4155216  30.6004191  89.0054050  15.6060286  30.9397420  87.7719293
  20.4562322  41.0166962  84.1905113  20.3786352  41.9674787  84.2693593
  19.8523965  40.6712835  84.8480039  22.9479552  28.1894827  96.8466479
  22.1712886  28.7488748  96.8369344  23.5870115  28.6751610  97.3681350
  30.7400332  24.9721620  90.6809456  30.0974712  25.2654153  90.0349251
  30.2355261  24.8574541  91.4862653  28.3940496  28.7184793  81.3695315
  29.3058352  28.9512180  81.1943013  27.8850143  29.3021838  80.8070394
  21.2025924  30.9980281  96.4084446  21.9440608  31.5365325  96.1319270
  20.4962909  31.6246570  96.5655998  26.6781264  33.1409421  95.0056608
  27.0864620  32.6991832  94.2611240  25.9558525  32.5662049  95.2590801
  23.0312334  28.0782028  92.3790165  23.8773529  28.5021442  92.5224814
  22.9710971  27.4215652  93.0728728  27.0010078  33.7010612  88.7608897
  26.3718941  33.8656326  88.0584965  26.6135740  34.1152221  89.5319861
  30.8799310  34.6365050  86.1153261  30.1950348  35.0163951  85.5650294
  30.9643159  35.2460376  86.8485208  26.1811779  25.7386396  94.0371339
  25.9372711  26.4928457  93.5005614  26.4571709  26.1171744  94.8718586
  28.1350242  32.2825009  92.7148604  28.3467137  32.9256769  92.0382985
  28.0879990  31.4487325  92.2470534  25.7376471  24.8942829  89.6185176
  24.8760950  25.1924083  89.9101914  25.7638905  25.1113228  88.6866209
  22.5538040  33.4385020  86.0258982  23.0176386  33.7172723  85.2363604
  22.2894838  32.5368465  85.8432073  19.4462121  32.9856502  88.9638745
  20.0163478  33.4143770  88.3256230  20.0370233  32.7039086  89.6622931
  21.4906926  29.5608172  82.8348547  22.1930969  30.0129216  83.3022473
  21.1587555  28.9191991  83.4628440  19.9387288  28.1519929  97.2099756
  19.3085948  28.8336210  97.4435153  19.8323376  28.0403011  96.2652895
  15.2332260  27.8191725  88.1365681  14.4431314  28.0749254  87.6605791
  15.7243507  28.6340063  88.2417721  29.2496070  35.1596964  90.8870961
  30.0713513  34.7577151  90.6053643  29.2458473  35.0565198  91.8387077
  17.1847005  28.1836304  85.0949157  16.3878169  28.2954999  85.6132653
  16.9572598  28.5222956  84.2290048  23.0152673  34.7081007  93.0431672
  23.0797106  35.1701415  93.8789844  22.3063597  34.0778372  93.1713982
  13.5169963  28.0722215  90.5680671  13.7678002  28.9569225  90.8338247
  14.0529511  27.8926817  89.7955763  37.3402063  31.5035713  87.2355933
  36.5865771  30.9343111  87.0799937  37.4749604  31.4698377  88.1826568
  22.7300691  36.3749115  82.9110652  22.5946366  37.2200651  83.3395500
  23.2710503  36.5768393  82.1476586  16.1830088  33.8924553  83.4838577
  16.6954609  34.6867803  83.6344142  16.8352801  33.1950843  83.4172179
  17.9924973  37.0090309  85.5661331  18.1691601  37.9308274  85.3782314
  18.7881806  36.6948728  85.9955710  22.1335991  23.8698574  97.1645264
  22.8745705  24.4705727  97.0849727  22.3653914  23.1276212  96.6063307
  17.2777329  29.0554941  95.4423494  17.1630845  28.1540198  95.7430593
  16.4221847  29.3018638  95.0908310  24.3569167  36.9972681  97.0410994
  23.9133021  36.2109060  96.7231899  25.0186381  37.1851832  96.3754885
  19.1156288  38.5268483  91.5671673  19.6663713  38.3985546  90.7948667
  18.2767764  38.8263372  91.2166566  26.4550405  37.2775481  95.0692396
  26.4368881  38.0984362  94.5772665  27.3770325  37.1529557  95.2942537
  22.9123459  34.7919611  95.9115904  23.4451796  34.0307899  95.6815212
  22.3837540  34.4993263  96.6540059  26.0793154  19.8979677  91.4409546
  25.7357424  20.7881319  91.3648656  26.4472117  19.7081334  90.5779131
  14.1479005  32.2213207  84.2598148  14.9854227  32.6310216  84.0431856
  14.3257273  31.2812649  84.2298342  26.0443437  29.8888288  79.9481981
  25.5290060  30.6592893  80.1870368  25.7720745  29.2153424  80.5715042
  23.6290548  24.7337989  85.0067219  22.7732144  24.3444839  84.8272858
  24.0417500  24.8129950  84.1467005  25.1589695  22.2684332  89.4058779
  24.6554490  22.2314467  88.5926584  25.4520302  23.1777075  89.4655436
  21.4032581  22.3523062  88.4124961  22.2685577  22.1565870  88.0530850
  21.4710090  22.1233413  89.3394318  31.0177711  32.6420643  81.8835154
  30.2407154  32.3031802  81.4390316  31.6969192  32.6473266  81.2090119
  25.8329740  27.7615380  81.7741762  25.5279876  28.0761529  82.6251905
  26.7860182  27.8396800  81.8169095  24.2776172  33.9205603  83.4234716
  23.7497534  33.1858363  83.1107953  23.7763675  34.6980280  83.1774684
  29.2569018  32.1154624  88.5401762  28.5992693  32.8053885  88.6281891
  30.0609417  32.5051056  88.8835749  19.0094900  24.5825270  85.7841328
  19.5838652  24.3600451  85.0514521  19.5965882  24.6513964  86.5369929
  28.0674477  30.4698997  86.5905704  28.5806359  31.1028988  87.0927414
  28.7175701  29.8700192  86.2249064  19.3364487  26.6129731  79.8037213
  18.5001799  26.9504417  80.1246488  19.1969256  26.4778710  78.8664350
  21.3117567  21.4566519  84.5116397  20.6581980  21.1415536  83.8873012
  21.2698042  20.8342259  85.2376220  22.4228772  31.7385814  76.4269689
  21.5155834  31.5075067  76.6260838  22.9199804  30.9423433  76.6143671
  25.3296851  40.4483321  79.3466375  24.6558550  40.7515018  79.9551333
  25.7162673  41.2512401  78.9971832  24.5455308  27.9448452  88.8364045
  23.6277869  28.1663399  88.6785733  24.9615451  28.0194763  87.9775752
  25.3290356  29.3439868  83.9666725  26.0762174  29.8561265  83.6573847
  25.5981945  29.0223921  84.8271118  23.6017006  31.8398409  80.9493679
  22.6928225  31.5557441  81.0466149  23.6312089  32.2597487  80.0896986
  28.8336273  35.4504998  84.7184847  28.3798600  34.6095908  84.7750037
  28.2030240  36.0866396  85.0559627  27.7769193  26.3796984  85.9485514
  27.0391949  25.8674370  86.2795757  28.0295966  25.9397366  85.1368791
  27.2769212  37.2881495  85.6534665  27.5692187  37.8486552  84.9347031
  27.7867833  37.5810056  86.4087824  27.8780820  19.1573236  86.5427283
  28.1839697  18.2970599  86.2553199  28.6033425  19.7490856  86.3426277
  14.1705176  29.5603923  84.9308881  13.9729576  28.9673283  84.2059948
  13.6151840  29.2556133  85.6484820  22.1501900  29.4527029  87.0503475
  22.2050510  28.5000866  86.9745951  21.3393102  29.6086468  87.5344773
  23.2993093  33.3807152  78.2881758  22.8612523  32.6643011  77.8287395
  24.0403534  33.6083267  77.7266849  20.0894260  28.0704089  84.8093853
  19.2762125  28.3698259  85.2159046  20.5853254  27.6759778  85.5268336
  22.2402838  38.0661846  86.7428118  22.1979016  38.2922692  85.8136650
  23.1565536  37.8325220  86.8913919  25.6868471  28.5345913  93.6408747
  26.0417859  28.7617386  94.5003213  26.3340603  28.8664290  93.0186003
  31.4166208  31.6564349  84.3458076  31.2784107  31.8465945  83.4179266
  31.0602427  32.4183732  84.8026127  19.5808334  25.6422444  90.4255088
  20.2207714  25.5011203  89.7278052  18.7485865  25.3556958  90.0493690
  31.4435588  33.7240876  89.3569348  31.8772095  33.6316165  90.2052402
  32.1567169  33.6998377  88.7189364  20.3568638  34.9424875  86.5390081
  21.1509237  34.4475195  86.3372656  19.6460331  34.4142738  86.1757786
  25.1763483  37.3242970  90.8902448  25.2300505  37.8933907  91.6580164
  24.3078264  37.4944855  90.5256486  16.6651402  29.0867957  82.6149833
  15.7348990  29.0252412  82.8319796  16.7608874  28.5643909  81.8186475
  16.5836951  25.6122769  85.2028075  16.8443768  26.5268103  85.0937236
  17.4054123  25.1447212  85.3524688  18.0561876  27.0260527  92.3726900
  18.7284930  26.8177889  91.7239549  17.2291663  26.8282613  91.9332132
  32.3051137  33.7664577  91.8902233  32.4987028  34.6710387  92.1361508
  32.2051756  33.3071996  92.7240818  23.9587448  23.6522467  94.3892561
  23.3115363  24.3512417  94.2957037  24.7288464  24.0858611  94.7568809
  27.3666246  33.9171320  97.4643114  27.2151753  33.6881871  96.5473198
  27.3570926  34.8741921  97.4774459  24.1351583  31.4903232  92.4489380
  25.0643643  31.6414392  92.2758348  23.7142613  31.5787253  91.5938027
  22.9339914  35.5153897  90.2187918  22.7951000  35.1472681  91.0913856
  22.1454511  36.0301536  90.0471876  23.5288066  40.6162993  81.5613454
  23.7039822  40.1451036  82.3759077  22.8420854  41.2428759  81.7894715
  24.4845129  34.8935499  87.6076756  24.1494962  34.8536269  88.5034406
  23.9849075  34.2280215  87.1347166  18.4589373  30.3003129  93.1329337
  18.3209171  29.5683368  93.7340876  19.3694297  30.2112030  92.8513525
  27.4204321  32.2391534  77.8813815  26.8033492  31.5138362  77.7846868
  26.9520810  33.0000894  77.5380890  21.0871674  30.0123089  92.6213016
  21.7971293  29.3716281  92.5799635  21.0440982  30.2635984  93.5439197
  29.0758453  36.9490442  95.5419596  29.0170999  36.2649662  94.8750179
  29.4777971  37.6909432  95.0900222  19.8000608  26.9988307  94.4408656
  19.2637965  26.5479045  95.0930252  19.2117317  27.1334216  93.6979120
  18.0949152  43.7652356  88.3353315  18.3345750  44.3970880  89.0132333
  17.2518348  43.4140396  88.6218674  19.2102867  26.4576958  77.0035120
  18.3332333  26.3365759  76.6397366  19.6860620  25.6663036  76.7514008
  29.0775860  34.9130026  93.7733575  28.1902639  34.5755948  93.8959974
  29.6474411  34.1813057  94.0102341  10.7305007  31.2454118  87.0976627
  11.4176047  30.9315848  86.5097642  10.5753136  32.1495482  86.8243878
  15.5339729  26.1344314  91.5261650  15.4497918  25.5269984  90.7912060
  14.7122436  26.6253333  91.5271147  22.6077013  39.5731478  90.7394819
  22.5347185  40.3786450  91.2514123  22.1654407  39.7723444  89.9142840
  22.3966793  38.8103248  84.2497640  21.6134315  39.3524929  84.3435865
  23.0959538  39.3277228  84.6491881  25.7063443  24.6197878  86.8931846
  26.2032143  23.8667840  86.5732916  24.9350425  24.6562195  86.3275055
  33.5593201  30.3238243  88.5350137  33.5483077  31.2062959  88.1644070
  32.6910580  29.9709794  88.3404674  25.0675697  39.4718312  92.8952977
  25.7803669  40.1065777  92.8228879  24.5765726  39.5682178  92.0792979
  26.7893224  33.3769565  84.4670269  25.8549503  33.4971028  84.2974973
  26.9669892  32.4742032  84.2030279  22.2898412  26.7615261  86.6203530
  21.9196199  26.2086301  87.3084436  22.7857504  26.1573394  86.0678530
  30.1765775  29.2186884  85.0020303  30.6426227  30.0514876  84.9280606
  30.6273276  28.7531866  85.7065562  20.1187610  37.2212756  93.7158548
  20.8197070  37.8549239  93.8687942  19.6482725  37.5627487  92.9554187
  28.2442006  35.5630706  82.0006455  28.5201850  35.4487300  82.9100329
  27.3746505  35.1648191  81.9618628  28.1482438  21.5867471  89.0411204
  27.2345518  21.8171698  89.2093411  28.5775539  21.6705915  89.8925237
  27.9188896  29.7757363  91.5411098  27.2660347  30.0233271  90.8863551
  28.2969276  28.9621502  91.2073576  24.8796070  39.8117057  85.6439269
  25.0618465  38.9938713  86.1067021  25.7029056  40.0284749  85.2064159
  25.2138236  38.7385242  82.9054317  25.7426002  38.2277696  82.2924479
  25.4766455  38.4227772  83.7699850  23.9676469  30.5177174  98.0277136
  23.2917106  30.4171304  98.6979511  24.7904103  30.3616388  98.4913133
  15.7155329  36.7549111  90.6489651  16.3008765  36.0092799  90.7817555
  15.5180167  37.0653068  91.5326315  18.5693984  39.7900358  85.6652093
  17.9004359  40.2746486  85.1816133  18.4306853  40.0369579  86.5795472
  10.3072983  29.3254711  89.3694094  10.3457083  28.7918302  90.1631212
   9.8013276  28.7989917  88.7505071  22.7099252  41.8244102  92.2634751
  23.2617560  41.9875723  93.0283837  23.0505446  42.4148540  91.5914776
  17.6863746  24.1719252  92.8656636  17.7505072  25.0334083  92.4534034
  17.6230866  23.5593253  92.1328995  17.1616018  26.2442384  96.5129670
  17.7888057  25.8619462  97.1267195  16.3043937  26.0256586  96.8785363
  27.5610127  36.6505359  98.1183406  28.1050031  37.2635318  97.6238361
  26.9796972  37.2084938  98.6350419  13.9381561  28.0518813  82.4448025
  14.2335002  27.1429492  82.3915079  13.0369597  28.0306553  82.1229028
  25.8467640  39.7726077  89.2498434  25.7218779  38.9715817  88.7409379
  26.5046731  40.2672271  88.7612404  17.4675808  26.1274810  88.4275574
  16.7462394  26.7410778  88.2883047  18.2569064  26.6632575  88.3492220
  27.9102548  37.5735098  90.8777984  26.9632884  37.4540449  90.8056310
  28.2585321  36.6857596  90.9604245  20.2702121  23.4629236  94.7016226
  20.7936523  23.7091533  95.4642535  20.0514455  24.2949271  94.2819363
  15.6669402  25.7332911  82.5687350  15.3382109  24.8530290  82.3862456
  16.0208773  25.6780580  83.4563740  24.9148981  37.3687814  87.0782336
  24.7673944  36.4404521  87.2589906  25.7402475  37.3907904  86.5939411
  18.7811226  26.0205881  82.9362828  19.1207298  26.5491802  82.2141436
  19.2283346  26.3586287  83.7121395  28.5183103  38.1916372  88.1647209
  29.4429651  37.9859234  88.0271660  28.3498407  37.9432774  89.0736550
  21.4754666  24.4042932  92.3865896  21.1351487  23.6050745  92.7886576
  20.7693673  24.7044642  91.8142729  22.1271138  21.4892244  90.8393219
  22.9497208  21.0152722  90.7172110  22.3709202  22.2682728  91.3391905
  20.7679373  24.5180502  81.1356121  21.4887735  24.8961755  80.6319838
  20.1444677  25.2369379  81.2391099  24.9110496  25.2225651  82.0714453
  25.1274110  26.1050289  81.7703281  24.4304563  24.8311865  81.3420095
  19.6509717  28.1811365  88.6485198  19.5054298  28.4951668  89.5409479
  19.1734921  28.7996265  88.0956096  21.5106100  25.1713913  88.6966087
  21.4967669  24.2755006  88.3598385  22.2278528  25.1784576  89.3304373
  23.3632231  25.6051253  90.7419215  23.1050008  26.5268323  90.7403545
  22.8317271  25.2081687  91.4319679  28.3078419  38.7102040  83.5209300
  28.4815297  38.1448462  82.7683153  28.8007311  39.5102935  83.3388790
  14.1255379  30.7216709  91.5872859  13.5808847  31.4976517  91.7193133
  15.0034729  31.0687513  91.4291980  20.9142996  24.0528293  83.9653657
  21.0358907  23.1244939  84.1644545  20.6245038  24.0666979  83.0531973
  23.7834186  21.7383203  87.1020377  23.8055883  21.8022536  86.1472357
  24.2002245  20.8987712  87.2960883  34.1617811  31.4738463  85.1399600
  34.6048957  30.7245788  84.7418723  33.2844321  31.4648599  84.7573332
  29.2953592  38.0268804  80.6206198  29.9904496  38.6475497  80.8393513
  29.6376742  37.1764156  80.8958576  14.9121401  29.8486605  94.4803016
  14.1703137  29.9969241  95.0667646  14.5914145  30.1094871  93.6169765
  31.1945015  35.4768510  82.1493529  31.7196339  35.8155783  81.4242849
  31.1067368  34.5415525  81.9656664  22.8565064  39.3902583  94.2783406
  23.1652190  39.1451730  95.1506105  23.6540546  39.5949222  93.7902276
  22.8785676  41.5440493  86.5088782  22.4390666  41.0516872  87.2021639
  23.6293793  41.0013461  86.2680858  15.3578015  37.7352034  86.5113410
  16.1836035  37.4355806  86.1312054  15.0072067  36.9659656  86.9603199
  20.3259548  37.0878502  88.5811084  19.7039557  36.4249207  88.2813312
  20.9964415  37.1139634  87.8984732  13.5586620  35.6538360  87.4702344
  12.7218528  35.2260535  87.2886345  13.5310265  35.8470804  88.4073135
  20.3984075  25.5660290  98.1743590  20.4472231  26.4422413  97.7921360
  20.9406590  25.0237683  97.6015233  30.8838921  36.1101413  97.4544727
  30.0934465  36.0925552  96.9149227  30.6472276  36.6489707  98.2093764
  31.0036796  32.9593880  94.7677456  31.0534801  32.7943887  95.7092979
  30.8950719  32.0921139  94.3775336  19.8873055  35.6382426  82.0569545
  20.0361175  36.3217890  81.4036217  20.6939498  35.6187516  82.5719000
  28.2940558  28.9424808  96.0836762  29.1950421  28.8031273  95.7920760
  28.3688533  29.1079263  97.0234940  22.6283364  26.3191663  94.9289949
  21.7586673  26.6125229  94.6572537  22.8642844  26.9032108  95.6497212
  32.5054993  35.3790821  95.0119477  32.2139801  35.7420802  95.8482938
  31.8927124  34.6657830  94.8332809  33.7050675  32.9443701  87.5322047
  34.5397567  33.3833505  87.6959608  33.8409804  32.4682354  86.7130293
  30.7542181  30.5023436  93.4799535  31.2296303  30.6951082  92.6718387
  29.8307747  30.5582622  93.2342919  17.6425688  31.6647603  83.0630614
  17.3971730  30.7609933  83.2610824  17.8121602  31.6664754  82.1210092
  25.3322398  22.5371280  92.4455369  25.8504342  23.2732306  92.1201858
  24.9777530  22.8435273  93.2802128  16.9121335  27.3975961  80.5616775
  16.2190580  27.4720316  79.9056811  16.6673087  26.6336304  81.0838292
  25.5834992  18.9571562  87.9656266  25.8636746  18.2894751  88.5916692
  26.3685599  19.1500658  87.4530930  23.3868460  38.1330556  79.5281292
  22.8142427  38.7520743  79.0751764  23.9601254  38.6829918  80.0621214
  29.4543850  27.3789196  91.7127841  30.4061273  27.4787294  91.7340065
  29.2847301  26.5867465  92.2225925  27.4758230  24.4644779  91.8987242
  26.8808162  24.7449792  91.2033730  27.1907926  24.9538680  92.6703983
  26.6065720  38.4167706  80.6589874  27.5396393  38.3513268  80.8622750
  26.5188933  39.2523973  80.2004407  29.2353737  37.7333576  77.6193822
  29.1567368  37.3993440  78.5129580  30.0563404  38.2255344  77.6185294
  31.9331928  30.5995316  90.8270140  31.9008248  29.6611317  91.0129824
  32.5432552  30.6779352  90.0935965  23.7715259  29.4691369  76.8697345
  24.7174364  29.3397577  76.9385763  23.3929504  28.7306031  77.3466773
  32.0826416  27.3906359  90.8728424  31.5665465  26.6064816  90.6858353
  32.9666365  27.0625076  91.0374943  29.7437143  21.1347375  86.8324236
  29.5461964  20.8262463  87.7167568  30.3536849  21.8609014  86.9622166
  37.7508478  31.6611323  89.9676177  38.4811866  31.3996611  90.5283881
  37.1415423  30.9240045  90.0078245  35.8323775  29.8019185  90.5650628
  35.1056938  29.6675150  89.9567120  35.4171062  30.1096014  91.3707347
  23.6553951  33.5209115  98.3298002  24.5756961  33.6987714  98.5238048
  23.6203534  32.5765160  98.1777701  21.9558176  27.3941345  76.8052230
  21.0489631  27.0974458  76.8814943  22.2334157  27.0971163  75.9386516
  12.8736116  28.7147709  87.2551276  12.5538901  27.8613017  86.9625650
  12.3269545  28.9296287  88.0109243  16.6516024  31.4310150  90.9720783
  16.8702034  32.3627257  90.9908816  17.0641798  31.0718124  91.7575587
  23.5720242  21.9378235  82.9596471  22.7620970  21.5925320  83.3351717
  24.2604659  21.6285779  83.5484083  25.5010790  21.0156282  84.5820768
  26.0541829  21.4351735  85.2410791  25.7380876  20.0892030  84.6243724
  20.7256961  24.2528280  76.9464209  21.5876125  24.5783179  77.2060026
  20.9107305  23.4659776  76.4337275  12.7424376  32.3350620  89.2244398
  12.0487848  31.9204573  88.7114352  13.4897367  32.3771157  88.6277817
  28.8789597  23.1256807  84.0899432  28.2988266  23.7841611  83.7077484
  28.6125530  22.3034151  83.6786849  27.3293163  22.5261865  86.2920752
  27.8292942  22.6378399  85.4835071  27.9728771  22.2222917  86.9321561
  21.3875159  30.4340494  99.1788593  20.9042241  31.2340854  99.3852482
  21.4736098  30.4448439  98.2256037  14.6561119  32.2668874  87.1010413
  14.6331807  32.3656561  86.1492296  14.9661755  33.1134025  87.4227579
  17.3148497  34.3245029  91.2157027  18.2691750  34.2928971  91.1486959
  17.1161020  33.8635653  92.0307253  17.9047879  32.8946145  93.7827825
  18.7240768  33.3890224  93.8062662  18.1784687  31.9778113  93.7545392
  27.6614475  25.2856897  83.1455780  26.7740330  25.5706548  82.9275975
  28.0768464  25.1250661  82.2983057  31.0129011  25.3103418  86.8610119
  31.7889401  25.7999871  87.1334736  30.2877145  25.7361472  87.3181989
  33.4501570  26.0231037  87.9184060  34.0446061  25.7826773  87.2077368
  33.5228154  25.3038168  88.5457596  15.6698726  39.8664648  88.2327225
  15.5353193  39.1065049  87.6665223  15.2530788  40.5905548  87.7656014
  26.8057689  35.0501572  77.2403800  27.5093539  35.2551574  77.8561456
  26.0820337  35.6178334  77.5052884  27.6355499  30.8011433  83.3606070
  27.5790700  31.2579985  82.5213703  28.1883841  30.0402118  83.1828913
  31.4460305  26.5901165  84.1856190  31.1897239  26.1897801  85.0164398
  30.8213173  27.3044959  84.0606329  35.7572643  29.3297238  86.6927481
  35.1972201  29.3990428  87.4659043  35.1516146  29.1538223  85.9726978
  18.8267851  40.7633965  88.4445668  18.7100236  41.7079398  88.3424358
  18.0060298  40.4607527  88.8331467  28.7144386  35.4884101  79.2902260
  29.5489990  35.0565300  79.1079735  28.5528729  35.3166115  80.2179155
  28.3690278  31.9916214  80.6558600  28.3139082  31.8260486  79.7147044
  27.7436333  32.6992247  80.8120789  13.1582793  27.2284279  94.4820022
  13.8041657  26.7183233  94.9707247  12.9499944  27.9652960  95.0563447
  25.6836185  34.2965126  99.9812162  26.5527345  34.4705779  99.6198797
  25.2042937  35.1159543  99.8587892  21.6786404  21.4924323  80.2343918
  21.6665073  22.4366163  80.3912189  22.5709825  21.3094469  79.9403379
  19.8522366  41.4162227  91.6601596  20.7549612  41.4485838  91.9768091
  19.6259736  40.4862678  91.6747932  21.6075968  40.1693214  88.3211675
  20.6571599  40.1695075  88.2076047  21.9108454  39.4225948  87.8047709
  25.4938523  18.0867100  84.4889855  24.7270919  17.5325587  84.6346537
  25.9049228  18.1588969  85.3504006  37.3428661  46.0053752  89.3857437
  37.9807071  45.8860500  88.6820777  37.2249504  46.9534596  89.4445389
  34.1518367  45.9581180  89.3218962  33.8136879  45.8422245  88.4339497
  35.0208136  45.5572345  89.3019968  30.0105183  47.8116657  85.3115853
  29.4470048  47.7206594  84.5432140  29.8957578  46.9916561  85.7918345
  34.6338150  47.1116032  95.2805167  34.6226791  46.7168830  94.4085671
  34.7958790  46.3782105  95.8738939  27.5569615  49.3067848  88.1500073
  28.3490907  48.9658673  87.7346372  27.7966265  49.4162823  89.0702226
  29.5160369  48.5676762  81.0217452  30.2891245  48.0205749  80.8830328
  29.8685768  49.4321011  81.2331913  31.3545411  49.8953144  94.2284351
  31.0635277  50.7998775  94.1131018  31.9902396  49.9369671  94.9428421
  32.2801618  47.2729992  90.8185711  32.8765191  47.0486015  90.1042674
  32.3376590  46.5314738  91.4211159  31.8526647  44.7269428  78.6535902
  32.1052167  44.2050949  77.8919365  30.9151206  44.5635573  78.7562585
  36.8969930  43.7305206  86.4610645  37.6833019  43.3124629  86.1101062
  37.1608634  44.6351298  86.6292293  42.2978357  43.6680439  87.3643624
  43.0303529  43.0979656  87.5981453  41.5417712  43.2802040  87.8050129
  31.5722935  46.6297534  80.8560277  31.4559194  45.9542437  81.5241361
  31.6825195  46.1429908  80.0392430  33.9154476  46.0907681  84.5606966
  33.5512684  45.5638302  85.2719887  34.7721592  45.7006150  84.3873451
  39.8203777  37.3802013  91.8238232  39.4887102  38.2497424  91.5999447
  39.2249390  37.0638297  92.5032263  33.5559963  41.1197580  79.5568315
  33.7234366  41.9877817  79.9238786  33.3657132  41.2824862  78.6329604
  36.3135297  49.5814559  91.2234145  36.0136020  50.4839598  91.1149952
  35.9686356  49.3146743  92.0755298  29.7647778  46.0328356  87.2570849
  28.8398274  45.9004570  87.4648541  30.0132191  46.8122575  87.7540792
  39.7132440  42.0997100  88.9031582  38.8049318  42.0312508  88.6090343
  39.6620036  42.5769044  89.7313408  33.5349184  43.5755238  80.5414981
  33.4148809  44.0212289  81.3800462  32.8401773  43.9240556  79.9828519
  27.1256589  45.6761630  88.0914638  27.2548970  45.9296109  89.0054050
  26.4454040  46.2689338  87.7719293  31.2956076  56.3458880  84.1905113
  31.2180106  57.2966705  84.2693593  30.6917720  56.0004752  84.8480039
  33.7873306  43.5186745  96.8466479  33.0106640  44.0780665  96.8369344
  34.4263869  44.0043528  97.3681350  41.5794087  40.3013538  90.6809456
  40.9368467  40.5946071  90.0349251  41.0749015  40.1866458  91.4862653
  39.2334250  44.0476711  81.3695315  40.1452107  44.2804098  81.1943013
  38.7243897  44.6313755  80.8070394  32.0419678  46.3272198  96.4084446
  32.7834363  46.8657242  96.1319270  31.3356664  46.9538487  96.5655998
  37.5175018  48.4701339  95.0056608  37.9258374  48.0283749  94.2611240
  36.7952280  47.8953966  95.2590801  33.8706088  43.4073946  92.3790165
  34.7167283  43.8313359  92.5224814  33.8104726  42.7507570  93.0728728
  37.8403833  49.0302530  88.7608897  37.2112695  49.1948244  88.0584965
  37.4529495  49.4444139  89.5319861  41.7193065  49.9656967  86.1153261
  41.0344103  50.3455869  85.5650294  41.8036914  50.5752294  86.8485208
  37.0205533  41.0678314  94.0371339  36.7766465  41.8220375  93.5005614
  37.2965464  41.4463662  94.8718586  38.9743996  47.6116926  92.7148604
  39.1860891  48.2548686  92.0382985  38.9273744  46.7779243  92.2470534
  36.5770225  40.2234747  89.6185176  35.7154704  40.5216001  89.9101914
  36.6032660  40.4405146  88.6866209  33.3931795  48.7676938  86.0258982
  33.8570140  49.0464641  85.2363604  33.1288593  47.8660382  85.8432073
  30.2855876  48.3148419  88.9638745  30.8557233  48.7435688  88.3256230
  30.8763987  48.0331004  89.6622931  32.3300681  44.8900090  82.8348547
  33.0324724  45.3421134  83.3022473  31.9981309  44.2483909  83.4628440
  30.7781042  43.4811847  97.2099756  30.1479703  44.1628128  97.4435153
  30.6717130  43.3694928  96.2652895  26.0726015  43.1483643  88.1365681
  25.2825069  43.4041171  87.6605791  26.5637262  43.9631981  88.2417721
  40.0889824  50.4888882  90.8870961  40.9107268  50.0869069  90.6053643
  40.0852227  50.3857116  91.8387077  28.0240760  43.5128222  85.0949157
  27.2271923  43.6246916  85.6132653  27.7966352  43.8514874  84.2290048
  33.8546428  50.0372925  93.0431672  33.9190860  50.4993332  93.8789844
  33.1457351  49.4070290  93.1713982  24.3563718  43.4014133  90.5680671
  24.6071756  44.2861143  90.8338247  24.8923266  43.2218735  89.7955763
  48.1795817  46.8327630  87.2355933  47.4259526  46.2635028  87.0799937
  48.3143358  46.7990295  88.1826568  33.5694445  51.7041033  82.9110652
  33.4340120  52.5492568  83.3395500  34.1104258  51.9060310  82.1476586
  30.0561785  37.7832612  99.5725008  29.6628730  37.2298811 100.2472652
  30.8727925  38.0943191  99.9631525  27.0223843  49.2216471  83.4838577
  27.5348363  50.0159721  83.6344142  27.6746555  48.5242761  83.4172179
  28.8318727  52.3382227  85.5661331  29.0085356  53.2600192  85.3782314
  29.6275561  52.0240646  85.9955710  32.9729746  39.1990492  97.1645264
  33.7139459  39.7997645  97.0849727  33.2047669  38.4568129  96.6063307
  28.1171084  44.3846859  95.4423494  28.0024599  43.4832116  95.7430593
  27.2615602  44.6310556  95.0908310  29.9550043  53.8560401  91.5671673
  30.5057468  53.7277464  90.7948667  29.1161519  54.1555290  91.2166566
  33.7517214  50.1211529  95.9115904  34.2845551  49.3599817  95.6815212
  33.2231295  49.8285180  96.6540059  36.9186909  35.2271595  91.4409546
  36.5751178  36.1173236  91.3648656  37.2865871  35.0373252  90.5779131
  24.9872759  47.5505125  84.2598148  25.8247981  47.9602133  84.0431856
  25.1651027  46.6104567  84.2298342  34.4684303  40.0629906  85.0067219
  33.6125899  39.6736757  84.8272858  34.8811254  40.1421867  84.1467005
  35.9983449  37.5976250  89.4058779  35.4948245  37.5606385  88.5926584
  36.2914056  38.5068992  89.4655436  32.2426335  37.6814979  88.4124961
  33.1079332  37.4857788  88.0530850  32.3103844  37.4525331  89.3394318
  36.6723495  43.0907298  81.7741762  36.3673630  43.4053447  82.6251905
  37.6253937  43.1688718  81.8169095  40.0962773  47.4446542  88.5401762
  39.4386447  48.1345803  88.6281891  40.9003172  47.8342973  88.8835749
  29.8488654  39.9117187  85.7841328  30.4232406  39.6892369  85.0514521
  30.4359637  39.9805882  86.5369929  38.9068231  45.7990914  86.5905704
  39.4200113  46.4320906  87.0927414  39.5569455  45.1992110  86.2249064
  30.1758241  41.9421648  79.8037213  29.3395554  42.2796335  80.1246488
  30.0363011  41.8070628  78.8664350  32.1511322  36.7858436  84.5116397
  31.4975734  36.4707453  83.8873012  32.1091796  36.1634177  85.2376220
  36.1690606  55.7775238  79.3466375  35.4952304  56.0806935  79.9551333
  36.5556428  56.5804319  78.9971832  35.3849062  43.2740370  88.8364045
  34.4671624  43.4955317  88.6785733  35.8009206  43.3486680  87.9775752
  36.1684110  44.6731785  83.9666725  36.9155929  45.1853183  83.6573847
  36.4375700  44.3515838  84.8271118  38.6162947  41.7088902  85.9485514
  37.8785704  41.1966288  86.2795757  38.8689721  41.2689283  85.1368791
  38.1162967  52.6173412  85.6534665  38.4085941  53.1778469  84.9347031
  38.6261587  52.9101973  86.4087824  38.7174574  34.4865154  86.5427283
  39.0233451  33.6262517  86.2553199  39.4427179  35.0782774  86.3426277
  25.0098931  44.8895840  84.9308881  24.8123330  44.2965201  84.2059948
  24.4545595  44.5848050  85.6484820  32.9895654  44.7818947  87.0503475
  33.0444264  43.8292783  86.9745951  32.1786856  44.9378386  87.5344773
  30.9288014  43.3996007  84.8093853  30.1155880  43.6990177  85.2159046
  31.4247008  43.0051695  85.5268336  33.0796592  53.3953763  86.7428118
  33.0372771  53.6214610  85.8136650  33.9959291  53.1617138  86.8913919
  36.5262226  43.8637831  93.6408747  36.8811614  44.0909304  94.5003213
  37.1734357  44.1956208  93.0186003  42.2559963  46.9856267  84.3458076
  42.1177861  47.1757863  83.4179266  41.8996182  47.7475650  84.8026127
  30.4202089  40.9714362  90.4255088  31.0601468  40.8303121  89.7278052
  29.5879619  40.6848875  90.0493690  42.2829342  49.0532794  89.3569348
  42.7165849  48.9608083  90.2052402  42.9960923  49.0290294  88.7189364
  31.1962393  50.2716792  86.5390081  31.9902991  49.7767113  86.3372656
  30.4854085  49.7434656  86.1757786  36.0157237  52.6534888  90.8902448
  36.0694260  53.2225824  91.6580164  35.1472019  52.8236773  90.5256486
  27.5045156  44.4159874  82.6149833  26.5742744  44.3544330  82.8319796
  27.6002628  43.8935827  81.8186475  27.4230705  40.9414687  85.2028075
  27.6837523  41.8560020  85.0937236  28.2447878  40.4739130  85.3524688
  28.8955631  42.3552444  92.3726900  29.5678684  42.1469806  91.7239549
  28.0685417  42.1574530  91.9332132  43.1444892  49.0956495  91.8902233
  43.3380782  50.0002305  92.1361508  43.0445510  48.6363914  92.7240818
  34.7981203  38.9814385  94.3892561  34.1509118  39.6804335  94.2957037
  35.5682218  39.4150529  94.7568809  38.2060001  49.2463237  97.4643114
  38.0545507  49.0173789  96.5473198  38.1964680  50.2033839  97.4774459
  34.9745337  46.8195150  92.4489380  35.9037397  46.9706310  92.2758348
  34.5536367  46.9079171  91.5938027  33.7733669  50.8445814  90.2187918
  33.6344754  50.4764599  91.0913856  32.9848265  51.3593454  90.0471876
  34.3681821  55.9454911  81.5613454  34.5433576  55.4742954  82.3759077
  33.6814609  56.5720677  81.7894715  35.3238884  50.2227417  87.6076756
  34.9888717  50.1828187  88.5034406  34.8242830  49.5572133  87.1347166
  29.2983128  45.6295047  93.1329337  29.1602926  44.8975286  93.7340876
  30.2088051  45.5403947  92.8513525  31.9265429  45.3415007  92.6213016
  32.6365047  44.7008199  92.5799635  31.8834737  45.5927901  93.5439197
  30.6394363  42.3280224  94.4408656  30.1031720  41.8770963  95.0930252
  30.0511071  42.4626133  93.6979120  30.0496622  41.7868876  77.0035120
  29.1726088  41.6657677  76.6397366  30.5254375  40.9954954  76.7514008
  39.9169615  50.2421944  93.7733575  39.0296393  49.9047866  93.8959974
  40.4868166  49.5104975  94.0102341  21.5698762  46.5746036  87.0976627
  22.2569801  46.2607766  86.5097642  21.4146890  47.4787400  86.8243878
  26.3733484  41.4636232  91.5261650  26.2891673  40.8561902  90.7912060
  25.5516190  41.9545250  91.5271147  33.4470768  54.9023396  90.7394819
  33.3740939  55.7078368  91.2514123  33.0048161  55.1015362  89.9142840
  33.2360548  54.1395166  84.2497640  32.4528069  54.6816846  84.3435865
  33.9353293  54.6569146  84.6491881  36.5457198  39.9489796  86.8931846
  37.0425897  39.1959758  86.5732916  35.7744179  39.9854112  86.3275055
  44.3986955  45.6530161  88.5350137  44.3876831  46.5354877  88.1644070
  43.5304334  45.3001712  88.3404674  37.6286978  48.7061483  84.4670269
  36.6943257  48.8262945  84.2974973  37.8063647  47.8033950  84.2030279
  33.1292166  42.0907179  86.6203530  32.7589954  41.5378219  87.3084436
  33.6251259  41.4865312  86.0678530  41.0159530  44.5478802  85.0020303
  41.4819982  45.3806794  84.9280606  41.4667030  44.0823784  85.7065562
  30.9581365  52.5504674  93.7158548  31.6590824  53.1841157  93.8687942
  30.4876480  52.8919405  92.9554187  38.9876192  36.9159389  89.0411204
  38.0739272  37.1463616  89.2093411  39.4169294  36.9997833  89.8925237
  38.7582651  45.1049281  91.5411098  38.1054101  45.3525189  90.8863551
  39.1363031  44.2913419  91.2073576  35.7189825  55.1408974  85.6439269
  35.9012219  54.3230630  86.1067021  36.5422811  55.3576667  85.2064159
  34.8070224  45.8469092  98.0277136  34.1310861  45.7463221  98.6979511
  35.6297858  45.6908306  98.4913133  26.5549083  52.0841029  90.6489651
  27.1402520  51.3384717  90.7817555  26.3573921  52.3944985  91.5326315
  29.4087738  55.1192276  85.6652093  28.7398114  55.6038404  85.1816133
  29.2700608  55.3661497  86.5795472  21.1466738  44.6546629  89.3694094
  21.1850837  44.1210220  90.1631212  20.6407031  44.1281834  88.7505071
  28.5257500  39.5011169  92.8656636  28.5898827  40.3626000  92.4534034
  28.4624620  38.8885171  92.1328995  28.0009773  41.5734302  96.5129670
  28.6281811  41.1911379  97.1267195  27.1437691  41.3548504  96.8785363
  24.7775315  43.3810731  82.4448025  25.0728756  42.4721409  82.3915079
  23.8763351  43.3598470  82.1229028  28.3069562  41.4566728  88.4275574
  27.5856148  42.0702695  88.2883047  29.0962818  41.9924492  88.3492220
  31.1095876  38.7921154  94.7016226  31.6330278  39.0383451  95.4642535
  30.8908209  39.6241189  94.2819363  26.5063157  41.0624829  82.5687350
  26.1775863  40.1822208  82.3862456  26.8602528  41.0072497  83.4563740
  35.7542736  52.6979731  87.0782336  35.6067698  51.7696439  87.2589906
  36.5796229  52.7199822  86.5939411  29.6204980  41.3497798  82.9362828
  29.9601053  41.8783720  82.2141436  30.0677101  41.6878205  83.7121395
  32.3148421  39.7334849  92.3865896  31.9745241  38.9342662  92.7886576
  31.6087427  40.0336560  91.8142729  32.9664893  36.8184162  90.8393219
  33.7890962  36.3444640  90.7172110  33.2102956  37.5974645  91.3391905
  31.6073127  39.8472420  81.1356121  32.3281490  40.2253673  80.6319838
  30.9838431  40.5661297  81.2391099  35.7504250  40.5517569  82.0714453
  35.9667865  41.4342207  81.7703281  35.2698317  40.1603782  81.3420095
  30.4903471  43.5103282  88.6485198  30.3448052  43.8243585  89.5409479
  30.0128675  44.1288183  88.0956096  32.3499854  40.5005830  88.6966087
  32.3361423  39.6046924  88.3598385  33.0672282  40.5076494  89.3304373
  34.2025985  40.9343170  90.7419215  33.9443763  41.8560241  90.7403545
  33.6711025  40.5373605  91.4319679  24.9649134  46.0508627  91.5872859
  24.4202602  46.8268435  91.7193133  25.8428484  46.3979431  91.4291980
  31.7536750  39.3820211  83.9653657  31.8752662  38.4536857  84.1644545
  31.4638793  39.3958897  83.0531973  34.6227941  37.0675121  87.1020377
  34.6449638  37.1314454  86.1472357  35.0396000  36.2279630  87.2960883
  45.0011565  46.8030381  85.1399600  45.4442711  46.0537706  84.7418723
  44.1238075  46.7940517  84.7573332  25.7515156  45.1778523  94.4803016
  25.0096892  45.3261158  95.0667646  25.4307900  45.4386789  93.6169765
  33.7179430  56.8732411  86.5088782  33.2784421  56.3808789  87.2021639
  34.4687547  56.3305378  86.2680858  26.1971769  53.0643952  86.5113410
  27.0229789  52.7647724  86.1312054  25.8465821  52.2951574  86.9603199
  31.1653302  52.4170420  88.5811084  30.5433312  51.7541125  88.2813312
  31.8358169  52.4431552  87.8984732  24.3980374  50.9830278  87.4702344
  23.5612283  50.5552452  87.2886345  24.3704020  51.1762721  88.4073135
  31.2377830  40.8952208  98.1743590  31.2865985  41.7714331  97.7921360
  31.7800344  40.3529601  97.6015233  41.8430551  48.2885798  94.7677456
  41.8928556  48.1235805  95.7092979  41.7344474  47.4213057  94.3775336
  30.7266809  50.9674343  82.0569545  30.8754930  51.6509808  81.4036217
  31.5333253  50.9479433  82.5719000  39.1334313  44.2716726  96.0836762
  40.0344176  44.1323190  95.7920760  39.2082287  44.4371180  97.0234940
  33.4677118  41.6483580  94.9289949  32.5980428  41.9417146  94.6572537
  33.7036599  42.2324025  95.6497212  44.5444430  48.2735619  87.5322047
  45.3791321  48.7125423  87.6959608  44.6803559  47.7974272  86.7130293
  41.5935936  45.8315354  93.4799535  42.0690057  46.0243000  92.6718387
  40.6701501  45.8874540  93.2342919  28.4819442  46.9939521  83.0630614
  28.2365484  46.0901851  83.2610824  28.6515357  46.9956671  82.1210092
  36.1716152  37.8663197  92.4455369  36.6898096  38.6024224  92.1201858
  35.8171285  38.1727191  93.2802128  27.7515090  42.7267878  80.5616775
  27.0584335  42.8012233  79.9056811  27.5066842  41.9628222  81.0838292
  36.4228746  34.2863480  87.9656266  36.7030500  33.6186669  88.5916692
  37.2079353  34.4792575  87.4530930  40.2937605  42.7081114  91.7127841
  41.2455028  42.8079211  91.7340065  40.1241055  41.9159382  92.2225925
  38.3151984  39.7936697  91.8987242  37.7201916  40.0741710  91.2033730
  38.0301681  40.2830598  92.6703983  42.7725682  45.9287233  90.8270140
  42.7402003  44.9903234  91.0129824  43.3826306  46.0071270  90.0935965
  34.6109013  44.7983286  76.8697345  35.5568118  44.6689495  76.9385763
  34.2323258  44.0597948  77.3466773  42.9220171  42.7198277  90.8728424
  42.4059220  41.9356734  90.6858353  43.8060119  42.3916994  91.0374943
  40.5830898  36.4639292  86.8324236  40.3855719  36.1554381  87.7167568
  41.1930603  37.1900931  86.9622166  48.5902232  46.9903240  89.9676177
  49.3205621  46.7288528  90.5283881  47.9809178  46.2531962  90.0078245
  46.6717529  45.1311103  90.5650628  45.9450693  44.9967068  89.9567120
  46.2564816  45.4387931  91.3707347  34.4947706  48.8501033  98.3298002
  35.4150715  49.0279632  98.5238048  34.4597289  47.9057078  98.1777701
  32.7951930  42.7233263  76.8052230  31.8883386  42.4266376  76.8814943
  33.0727911  42.4263081  75.9386516  23.7129871  44.0439626  87.2551276
  23.3932655  43.1904934  86.9625650  23.1663299  44.2588204  88.0109243
  27.4909778  46.7602067  90.9720783  27.7095788  47.6919175  90.9908816
  27.9035552  46.4010042  91.7575587  34.4113996  37.2670153  82.9596471
  33.6014724  36.9217238  83.3351717  35.0998413  36.9577696  83.5484083
  36.3404544  36.3448199  84.5820768  36.8935583  36.7643653  85.2410791
  36.5774631  35.4183947  84.6243724  32.3637644  42.3335273 100.3623532
  32.2634371  43.2829630 100.2935623  32.1459186  42.0053512  99.4899602
  31.5650715  39.5820198  76.9464209  32.4269879  39.9075096  77.2060026
  31.7501059  38.7951694  76.4337275  23.5818131  47.6642538  89.2244398
  22.8881602  47.2496491  88.7114352  24.3291122  47.7063074  88.6277817
  39.7183352  38.4548724  84.0899432  39.1382021  39.1133529  83.7077484
  39.4519284  37.6326069  83.6786849  38.1686918  37.8553782  86.2920752
  38.6686696  37.9670317  85.4835071  38.8122526  37.5514835  86.9321561
  32.2268914  45.7632412  99.1788593  31.7435995  46.5632772  99.3852482
  32.3129853  45.7740357  98.2256037  25.4954873  47.5960792  87.1010413
  25.4725561  47.6948479  86.1492296  25.8055510  48.4425942  87.4227579
  28.1542251  49.6536947  91.2157027  29.1085505  49.6220889  91.1486959
  27.9554775  49.1927570  92.0307253  28.7441633  48.2238063  93.7827825
  29.5634522  48.7182141  93.8062662  29.0178441  47.3070031  93.7545392
  38.5008230  40.6148815  83.1455780  37.6134085  40.8998466  82.9275975
  38.9162219  40.4542578  82.2983057  41.8522766  40.6395336  86.8610119
  42.6283156  41.1291788  87.1334736  41.1270900  41.0653390  87.3181989
  44.2895324  41.3522955  87.9184060  44.8839815  41.1118691  87.2077368
  44.3621908  40.6330086  88.5457596  26.5092480  55.1956566  88.2327225
  26.3746948  54.4356967  87.6665223  26.0924542  55.9197466  87.7656014
  42.2854059  41.9193083  84.1856190  42.0290993  41.5189718  85.0164398
  41.6606927  42.6336877  84.0606329  46.5966397  44.6589156  86.6927481
  46.0365955  44.7282345  87.4659043  45.9909900  44.4830141  85.9726978
  29.6661606  56.0925883  88.4445668  29.5493990  57.0371316  88.3424358
  28.8454052  55.7899445  88.8331467  23.9976548  42.5576196  94.4820022
  24.6435411  42.0475150  94.9707247  23.7893699  43.2944878  95.0563447
  32.5180158  36.8216241  80.2343918  32.5058828  37.7658081  80.3912189
  33.4103580  36.6386386  79.9403379  32.4469722  55.4985131  88.3211675
  31.4965353  55.4986993  88.2076047  32.7502208  54.7517866  87.8047709
  36.3332278  33.4159018  84.4889855  35.5664673  32.8617504  84.6346537
  36.7442983  33.4880886  85.3504006  28.3374039  39.7043814  98.5795036
  29.2005500  39.3480618  98.7898361  27.7639449  39.3657708  99.2670440
  45.4731905  62.4407950  95.2805167  45.4620546  62.0460748  94.4085671
  45.6352544  61.7074022  95.8738939  50.6597531  52.7093931  91.8238232
  50.3280856  53.5789342  91.5999447  50.0643145  52.3930215  92.5032263
  50.5526195  57.4289017  88.9031582  49.6443072  57.3604426  88.6090343
  50.5013791  57.9060962  89.7313408  44.3742939  58.9047156  80.5414981
  44.2542564  59.3504206  81.3800462  43.6795527  59.2532473  79.9828519
  52.4187841  55.6305456  90.6809456  51.7762221  55.9237989  90.0349251
  51.9142770  55.5158376  91.4862653  47.8599288  56.3970232  94.0371339
  47.6160220  57.1512292  93.5005614  48.1359218  56.7755579  94.8718586
  47.4163980  55.5526665  89.6185176  46.5548459  55.8507918  89.9101914
  47.4426414  55.7697064  88.6866209  36.9119769  58.4775560  88.1365681
  36.1218823  58.7333089  87.6605791  37.4031016  59.2923898  88.2417721
  38.8634514  58.8420140  85.0949157  38.0665678  58.9538834  85.6132653
  38.6360107  59.1806792  84.2290048  35.1957472  58.7306051  90.5680671
  35.4465510  59.6153061  90.8338247  35.7317020  58.5510652  89.7955763
  47.7580663  50.5563512  91.4409546  47.4144933  51.4465154  91.3648656
  48.1259626  50.3665170  90.5779131  45.3078057  55.3921824  85.0067219
  44.4519653  55.0028674  84.8272858  45.7205009  55.4713785  84.1467005
  46.8377204  52.9268167  89.4058779  46.3341999  52.8898303  88.5926584
  47.1307811  53.8360910  89.4655436  40.6882409  55.2409105  85.7841328
  41.2626161  55.0184286  85.0514521  41.2753391  55.3097800  86.5369929
  42.9905076  52.1150354  84.5116397  42.3369489  51.7999371  83.8873012
  42.9485551  51.4926094  85.2376220  46.2242817  58.6032287  88.8364045
  45.3065378  58.8247234  88.6785733  46.6402960  58.6778598  87.9775752
  49.4556702  57.0380819  85.9485514  48.7179458  56.5258206  86.2795757
  49.7083475  56.5981201  85.1368791  49.5568329  49.8157071  86.5427283
  49.8627206  48.9554435  86.2553199  50.2820934  50.4074692  86.3426277
  41.7681769  58.7287924  84.8093853  40.9549634  59.0282095  85.2159046
  42.2640763  58.3343613  85.5268336  47.3655980  59.1929749  93.6408747
  47.7205368  59.4201222  94.5003213  48.0128112  59.5248125  93.0186003
  38.2624460  56.2706605  85.2028075  38.5231277  57.1851938  85.0937236
  39.0841632  55.8031047  85.3524688  45.6374957  54.3106303  94.3892561
  44.9902872  55.0096252  94.2957037  46.4075973  54.7442447  94.7568809
  47.3850952  55.2781713  86.8931846  47.8819652  54.5251676  86.5732916
  46.6137934  55.3146030  86.3275055  43.9685921  57.4199096  86.6203530
  43.5983708  56.8670137  87.3084436  44.4645013  56.8157230  86.0678530
  49.8269947  52.2451307  89.0411204  48.9133027  52.4755534  89.2093411
  50.2563048  52.3289751  89.8925237  49.5976405  60.4341199  91.5411098
  48.9447856  60.6817106  90.8863551  49.9756785  59.6205337  91.2073576
  35.6169070  58.7102649  82.4448025  35.9122511  57.8013327  82.3915079
  34.7157106  58.6890388  82.1229028  37.3456911  56.3916746  82.5687350
  37.0169618  55.5114125  82.3862456  37.6996282  56.3364415  83.4563740
  40.4598735  56.6789716  82.9362828  40.7994807  57.2075637  82.2141436
  40.9070855  57.0170122  83.7121395  43.8058647  52.1476079  90.8393219
  44.6284717  51.6736558  90.7172110  44.0496711  52.9266563  91.3391905
  45.0419740  56.2635088  90.7419215  44.7837517  57.1852159  90.7403545
  44.5104780  55.8665523  91.4319679  42.5930505  54.7112128  83.9653657
  42.7146416  53.7828774  84.1644545  42.3032547  54.7250814  83.0531973
  45.4621695  52.3967039  87.1020377  45.4843392  52.4606372  86.1472357
  45.8789754  51.5571547  87.2960883  49.9728067  59.6008643  96.0836762
  50.8737930  59.4615108  95.7920760  50.0476042  59.7663098  97.0234940
  47.0109907  53.1955115  92.4455369  47.5291850  53.9316142  92.1201858
  46.6565039  53.5019108  93.2802128  47.2622501  49.6155397  87.9656266
  47.5424255  48.9478587  88.5916692  48.0473108  49.8084493  87.4530930
  51.1331359  58.0373031  91.7127841  52.0848782  58.1371129  91.7340065
  50.9634810  57.2451300  92.2225925  49.1545739  55.1228615  91.8987242
  48.5595671  55.4033627  91.2033730  48.8695435  55.6122516  92.6703983
  53.7613925  58.0490195  90.8728424  53.2452974  57.2648651  90.6858353
  54.6453874  57.7208911  91.0374943  51.4224652  51.7931210  86.8324236
  51.2249473  51.4846298  87.7167568  52.0324358  52.5192849  86.9622166
  47.1798299  51.6740117  84.5820768  47.7329338  52.0935570  85.2410791
  47.4168385  50.7475865  84.6243724  49.0080672  53.1845700  86.2920752
  49.5080451  53.2962234  85.4835071  49.6516280  52.8806753  86.9321561
  52.6916520  55.9687254  86.8610119  53.4676910  56.4583706  87.1334736
  51.9664654  56.3945308  87.3181989  55.1289079  56.6814873  87.9184060
  55.7233570  56.4410609  87.2077368  55.2015663  55.9622003  88.5457596
  53.1247814  57.2485000  84.1856190  52.8684748  56.8481636  85.0164398
  52.5000682  57.9628794  84.0606329  47.1726032  48.7450935  84.4889855
  46.4058428  48.1909422  84.6346537  47.5836737  48.8172804  85.3504006
  60.0791390  82.6381112  98.1183406  60.6231294  83.2511071  97.6238361
  59.4978235  83.1960691  98.6350419  67.1519414  93.0991785  95.2805167
  67.1408055  92.7044583  94.4085671  67.3140053  92.3657858  95.8738939
  68.1086005  97.4663377  80.6230318  67.4573985  98.0517458  80.2364331
  68.9030368  97.9969572  80.6825355  63.8726675  95.8828897  94.2284351
  63.5816541  96.7874528  94.1131018  64.5083659  95.9245424  94.9428421
  69.5861270  95.1553809  81.1599302  68.9507103  95.2288436  81.8720206
  69.2558677  95.7447408  80.4818381  74.8159620  89.6556192  87.3643624
  75.5484792  89.0855409  87.5981453  74.0598976  89.2677793  87.8050129
  72.3385040  83.3677766  91.8238232  72.0068365  84.2373177  91.5999447
  71.7430654  83.0514050  92.5032263  68.8316560  95.5690312  91.2234145
  68.5317283  96.4715351  91.1149952  68.4867620  95.3022496  92.0755298
  72.2313704  88.0872853  88.9031582  71.3230581  88.0188261  88.6090343
  72.1801300  88.5644797  89.7313408  63.8137340 102.3334633  84.1905113
  63.7361370 103.2842458  84.2693593  63.2098983 101.9880505  84.8480039
  66.3054570  89.5062498  96.8466479  65.5287904  90.0656418  96.8369344
  66.9445133  89.9919281  97.3681350  74.0975350  86.2889291  90.6809456
  73.4549730  86.5821824  90.0349251  73.5930279  86.1742211  91.4862653
  64.5600942  92.3147952  96.4084446  65.3015626  92.8532995  96.1319270
  63.8537927  92.9414240  96.5655998  70.0356282  94.4577092  95.0056608
  70.4439638  94.0159502  94.2611240  69.3133543  93.8829719  95.2590801
  70.3585096  95.0178283  88.7608897  69.7293959  95.1823997  88.0584965
  69.9710758  95.4319892  89.5319861  74.2374328  95.9532720  86.1153261
  73.5525366  96.3331622  85.5650294  74.3218177  96.5628047  86.8485208
  69.5386797  87.0554067  94.0371339  69.2947729  87.8096128  93.5005614
  69.8146727  87.4339415  94.8718586  71.4925260  93.5992679  92.7148604
  71.7042155  94.2424439  92.0382985  71.4455008  92.7654996  92.2470534
  65.9113058  94.7552691  86.0258982  66.3751404  95.0340394  85.2363604
  65.6469856  93.8536135  85.8432073  63.2962306  89.4687600  97.2099756
  62.6660966  90.1503881  97.4435153  63.1898394  89.3570681  96.2652895
  72.6071088  96.4764635  90.8870961  73.4288531  96.0744822  90.6053643
  72.6033490  96.3732869  91.8387077  80.6977081  92.8203383  87.2355933
  79.9440789  92.2510781  87.0799937  80.8324622  92.7866048  88.1826568
  66.0875709  97.6916786  82.9110652  65.9521384  98.5368321  83.3395500
  66.6285521  97.8936063  82.1476586  62.5743048  83.7708366  99.5725008
  62.1809994  83.2174564 100.2472652  63.3909189  84.0818944  99.9631525
  61.3499991  98.3257980  85.5661331  61.5266619  99.2475945  85.3782314
  62.1456824  98.0116399  85.9955710  65.4911009  85.1866245  97.1645264
  66.2320723  85.7873398  97.0849727  65.7228932  84.4443882  96.6063307
  67.7144185  98.3140352  97.0410994  67.2708039  97.5276731  96.7231899
  68.3761399  98.5019503  96.3754885  62.4731306  99.8436154  91.5671673
  63.0238731  99.7153217  90.7948667  61.6342782 100.1431043  91.2166566
  69.8125423  98.5943152  95.0692396  69.7943899  99.4152033  94.5772665
  70.7345343  98.4697227  95.2942537  66.2698477  96.1087282  95.9115904
  66.8026814  95.3475570  95.6815212  65.7412558  95.8160933  96.6540059
  69.4368172  81.2147348  91.4409546  69.0932442  82.1048989  91.3648656
  69.8047135  81.0249005  90.5779131  69.4018455  91.2055959  79.9481981
  68.8865078  91.9760563  80.1870368  69.1295763  90.5321095  80.5715042
  74.3752729  93.9588313  81.8835154  73.5982172  93.6199473  81.4390316
  75.0544210  93.9640936  81.2090119  67.6351190  95.2373274  83.4234716
  67.1072552  94.5026034  83.1107953  67.1338693  96.0147950  83.1774684
  72.6144036  93.4322295  88.5401762  71.9567710  94.1221556  88.6281891
  73.4184435  93.8218726  88.8835749  71.4249495  91.7866667  86.5905704
  71.9381377  92.4196659  87.0927414  72.0750719  91.1867863  86.2249064
  65.7803790  93.0553484  76.4269689  64.8730852  92.8242738  76.6260838
  66.2774822  92.2591104  76.6143671  68.6871869 101.7650992  79.3466375
  68.0133568 102.0682688  79.9551333  69.0737691 102.5680072  78.9971832
  66.9592024  93.1566079  80.9493679  66.0503243  92.8725112  81.0466149
  66.9887107  93.5765158  80.0896986  72.1911291  96.7672669  84.7184847
  71.7373618  95.9263579  84.7750037  71.5605258  97.4034067  85.0559627
  70.6344230  98.6049165  85.6534665  70.9267205  99.1654222  84.9347031
  71.1442851  98.8977726  86.4087824  66.6568111  94.6974823  78.2881758
  66.2187541  93.9810682  77.8287395  67.3978552  94.9250938  77.7266849
  65.5977855  99.3829516  86.7428118  65.5554034  99.6090363  85.8136650
  66.5140554  99.1492891  86.8913919  74.7741226  92.9732020  84.3458076
  74.6359125  93.1633616  83.4179266  74.4177445  93.7351403  84.8026127
  74.8010606  95.0408547  89.3569348  75.2347113  94.9483836  90.2052402
  75.5142187  95.0166047  88.7189364  68.5338501  98.6410641  90.8902448
  68.5875523  99.2101577  91.6580164  67.6653282  98.8112526  90.5256486
  75.6626155  95.0832248  91.8902233  75.8562045  95.9878058  92.1361508
  75.5626774  94.6239667  92.7240818  70.7241264  95.2338990  97.4643114
  70.5726770  95.0049542  96.5473198  70.7145944  96.1909592  97.4774459
  66.8863084 101.9330664  81.5613454  67.0614840 101.4618707  82.3759077
  66.1995872 102.5596430  81.7894715  67.8420147  96.2103170  87.6076756
  67.5069980  96.1703940  88.5034406  67.3424093  95.5447886  87.1347166
  70.7779339  93.5559205  77.8813815  70.1608510  92.8306033  77.7846868
  70.3095828  94.3168565  77.5380890  72.4333471  98.2658113  95.5419596
  72.3746017  97.5817333  94.8750179  72.8352989  99.0077103  95.0900222
  61.4524170 105.0820027  88.3353315  61.6920768 105.7138551  89.0132333
  60.6093366 104.7308067  88.6218674  72.4350878  96.2297697  93.7733575
  71.5477657  95.8923619  93.8959974  73.0049429  95.4980728  94.0102341
  65.9652031 100.8899149  90.7394819  65.8922203 101.6954121  91.2514123
  65.5229424 101.0891115  89.9142840  65.7541811 100.1270919  84.2497640
  64.9709333 100.6692599  84.3435865  66.4534556 100.6444899  84.6491881
  76.9168219  91.6405914  88.5350137  76.9058095  92.5230630  88.1644070
  76.0485598  91.2877465  88.3404674  68.4250715 100.7885983  92.8952977
  69.1378687 101.4233448  92.8228879  67.9340744 100.8849849  92.0792979
  70.1468242  94.6937236  84.4670269  69.2124521  94.8138698  84.2974973
  70.3244910  93.7909703  84.2030279  73.5340793  90.5354555  85.0020303
  74.0001245  91.3682547  84.9280606  73.9848294  90.0699537  85.7065562
  63.4762628  98.5380427  93.7158548  64.1772088  99.1716910  93.8687942
  63.0057743  98.8795158  92.9554187  71.6017024  96.8798376  82.0006455
  71.8776868  96.7654971  82.9100329  70.7321523  96.4815861  81.9618628
  71.5057456  82.9035142  89.0411204  70.5920536  83.1339369  89.2093411
  71.9350557  82.9873586  89.8925237  71.2763914  91.0925034  91.5411098
  70.6235365  91.3400942  90.8863551  71.6544294  90.2789172  91.2073576
  68.2371088 101.1284727  85.6439269  68.4193483 100.3106383  86.1067021
  69.0604074 101.3452420  85.2064159  68.5713254 100.0552912  82.9054317
  69.1001020  99.5445367  82.2924479  68.8341473  99.7395443  83.7699850
  67.3251487  91.8344845  98.0277136  66.6492124  91.7338974  98.6979511
  68.1479121  91.6784059  98.4913133  61.9269002 101.1068029  85.6652093
  61.2579377 101.5914157  85.1816133  61.7881871 101.3537250  86.5795472
  66.0674270 103.1411773  92.2634751  66.6192578 103.3043394  93.0283837
  66.4080464 103.7316210  91.5914776  70.9185145  97.9673030  98.1183406
  71.4625049  98.5802988  97.6238361  70.3371989  98.5252609  98.6350419
  69.2042658 101.0893748  89.2498434  69.0793797 100.2883488  88.7409379
  69.8621749 101.5839942  88.7612404  71.2677566  98.8902768  90.8777984
  70.3207902  98.7708119  90.8056310  71.6160339  98.0025266  90.9604245
  68.2723999  98.6855484  87.0782336  68.1248962  97.7572192  87.2589906
  69.0977493  98.7075575  86.5939411  71.8758121  99.5084043  88.1647209
  72.8004669  99.3026905  88.0271660  71.7073424  99.2600444  89.0736550
  71.6653437 100.0269711  83.5209300  71.8390315  99.4616133  82.7683153
  72.1582329 100.8270606  83.3388790  77.5192828  92.7906134  85.1399600
  77.9623975  92.0413459  84.7418723  76.6419339  92.7816270  84.7573332
  72.6528610  99.3436475  80.6206198  73.3479514  99.9643168  80.8393513
  72.9951760  98.4931826  80.8958576  74.5520033  96.7936181  82.1493529
  75.0771357  97.1323453  81.4242849  74.4642385  95.8583196  81.9656664
  66.2140082 100.7070254  94.2783406  66.5227208 100.4619401  95.1506105
  67.0115564 100.9116893  93.7902276  66.2360694 102.8608164  86.5088782
  65.7965684 102.3684543  87.2021639  66.9868811 102.3181131  86.2680858
  63.6834566  98.4046173  88.5811084  63.0614575  97.7416878  88.2813312
  64.3539433  98.4307305  87.8984732  63.7559093  86.8827961  98.1743590
  63.8047249  87.7590084  97.7921360  64.2981608  86.3405354  97.6015233
  74.2413939  97.4269084  97.4544727  73.4509483  97.4093223  96.9149227
  74.0047294  97.9657378  98.2093764  74.3611814  94.2761551  94.7677456
  74.4109819  94.1111558  95.7092979  74.2525737  93.4088810  94.3775336
  63.2448073  96.9550096  82.0569545  63.3936193  97.6385561  81.4036217
  64.0514516  96.9355186  82.5719000  71.6515576  90.2592479  96.0836762
  72.5525439  90.1198943  95.7920760  71.7263551  90.4246933  97.0234940
  65.9858382  87.6359333  94.9289949  65.1161691  87.9292899  94.6572537
  66.2217862  88.2199778  95.6497212  75.8630011  96.6958492  95.0119477
  75.5714819  97.0588473  95.8482938  75.2502142  95.9825500  94.8332809
  77.0625693  94.2611372  87.5322047  77.8972585  94.7001176  87.6959608
  77.1984822  93.7850025  86.7130293  74.1117199  91.8191107  93.4799535
  74.5871321  92.0118753  92.6718387  73.1882764  91.8750293  93.2342919
  66.7443478  99.4498227  79.5281292  66.1717445 100.0688414  79.0751764
  67.3176272  99.9997588  80.0621214  72.8118868  88.6956867  91.7127841
  73.7636291  88.7954964  91.7340065  72.6422319  87.9035135  92.2225925
  70.8333248  85.7812450  91.8987242  70.2383180  86.0617463  91.2033730
  70.5482944  86.2706351  92.6703983  69.9640738  99.7335377  80.6589874
  70.8971411  99.6680939  80.8622750  69.8763951 100.5691644  80.2004407
  72.5928755  99.0501247  77.6193822  72.5142386  98.7161111  78.5129580
  73.4138422  99.5423015  77.6185294  75.2906946  91.9162986  90.8270140
  75.2583266  90.9778987  91.0129824  75.9007570  91.9947023  90.0935965
  67.1290277  90.7859039  76.8697345  68.0749381  90.6565248  76.9385763
  66.7504522  90.0473701  77.3466773  75.4401434  88.7074030  90.8728424
  74.9240483  87.9232487  90.6858353  76.3241383  88.3792747  91.0374943
  81.1083496  92.9778993  89.9676177  81.8386884  92.7164281  90.5283881
  80.4990441  92.2407715  90.0078245  79.1898793  91.1186856  90.5650628
  78.4631956  90.9842821  89.9567120  78.7746080  91.4263685  91.3707347
  67.0128969  94.8376786  98.3298002  67.9331979  95.0155385  98.5238048
  66.9778552  93.8932831  98.1777701  65.3133194  88.7109016  76.8052230
  64.4064649  88.4142129  76.8814943  65.5909175  88.4138834  75.9386516
  64.8818907  88.3211026 100.3623532  64.7815634  89.2705383 100.2935623
  64.6640449  87.9929265  99.4899602  64.7450177  91.7508165  99.1788593
  64.2617259  92.5508525  99.3852482  64.8311116  91.7616110  98.2256037
  74.3704029  86.6271089  86.8610119  75.1464419  87.1167541  87.1334736
  73.6452163  87.0529143  87.3181989  76.8076588  87.3398708  87.9184060
  77.4021079  87.0994444  87.2077368  76.8803172  86.6205839  88.5457596
  59.0273743 101.1832319  88.2327225  58.8928211 100.4232720  87.6665223
  58.6105806 101.9073219  87.7656014  70.1632707  96.3669243  77.2403800
  70.8668557  96.5719245  77.8561456  69.4395355  96.9346004  77.5052884
  70.9930517  92.1179104  83.3606070  70.9365718  92.5747655  82.5213703
  71.5458859  91.3569788  83.1828913  74.8035323  87.9068836  84.1856190
  74.5472257  87.5065471  85.0164398  74.1788191  88.6212630  84.0606329
  79.1147661  90.6464909  86.6927481  78.5547219  90.7158098  87.4659043
  78.5091164  90.4705894  85.9726978  62.1842869 102.0801636  88.4445668
  62.0675254 103.0247069  88.3424358  61.3635316 101.7775198  88.8331467
  72.0719404  96.8051772  79.2902260  72.9065008  96.3732970  79.1079735
  71.9103747  96.6333785  80.2179155  71.7265296  93.3083885  80.6558600
  71.6714100  93.1428157  79.7147044  71.1011351  94.0159918  80.8120789
  69.0411203  95.6132797  99.9812162  69.9102363  95.7873449  99.6198797
  68.5617955  96.4327214  99.8587892  63.2097383 102.7329898  91.6601596
  64.1124630 102.7653508  91.9768091  62.9834754 101.8030349  91.6747932
  64.9650986 101.4860885  88.3211675  64.0146617 101.4862746  88.2076047
  65.2683472 100.7393619  87.8047709  60.8555302  85.6919567  98.5795036
  61.7186764  85.3356371  98.7898361  60.2820713  85.3533461  99.2670440
  80.7003679 107.3221423  89.3857437  81.3382089 107.2028170  88.6820777
  80.5824522 108.2702267  89.4445389  77.5093385 107.2748851  89.3218962
  77.1711897 107.1589916  88.4339497  78.3783153 106.8740016  89.3019968
  73.3680201 109.1284327  85.3115853  72.8045066 109.0374264  84.5432140
  73.2532596 108.3084232  85.7918345  77.9913168 108.4283703  95.2805167
  77.9801809 108.0336501  94.4085671  78.1533808 107.6949775  95.8738939
  70.9144633 110.6235519  88.1500073  71.7065925 110.2826344  87.7346372
  71.1541283 110.7330494  89.0702226  78.9479760 112.7955295  80.6230318
  78.2967739 113.3809376  80.2364331  79.7424122 113.3261490  80.6825355
  72.8735387 109.8844432  81.0217452  73.6466263 109.3373419  80.8830328
  73.2260786 110.7488682  81.2331913  74.7120429 111.2120815  94.2284351
  74.4210295 112.1166445  94.1131018  75.3477414 111.2537342  94.9428421
  75.6376636 108.5897663  90.8185711  76.2340209 108.3653685  90.1042674
  75.6951608 107.8482409  91.4211159  75.2101665 106.0437098  78.6535902
  75.4627185 105.5218620  77.8919365  74.2726224 105.8803244  78.7562585
  80.2544947 105.0472877  86.4610645  81.0408037 104.6292300  86.1101062
  80.5183652 105.9518969  86.6292293  80.4255025 110.4845727  81.1599302
  79.7900858 110.5580354  81.8720206  80.0952431 111.0739326  80.4818381
  85.6553375 104.9848110  87.3643624  86.3878547 104.4147327  87.5981453
  84.8992730 104.5969710  87.8050129  74.9297953 107.9465204  80.8560277
  74.8134212 107.2710108  81.5241361  75.0400213 107.4597578  80.0392430
  77.2729494 107.4075351  84.5606966  76.9087702 106.8805972  85.2719887
  78.1296610 107.0173820  84.3873451  83.1778795  98.6969684  91.8238232
  82.8462120  99.5665095  91.5999447  82.5824408  98.3805968  92.5032263
  76.9134981 102.4365251  79.5568315  77.0809384 103.3045488  79.9238786
  76.7232150 102.5992533  78.6329604  79.6710314 110.8982230  91.2234145
  79.3711038 111.8007269  91.1149952  79.3261374 110.6314413  92.0755298
  73.1222796 107.3496027  87.2570849  72.1973292 107.2172241  87.4648541
  73.3707209 108.1290246  87.7540792  83.0707458 103.4164770  88.9031582
  82.1624336 103.3480179  88.6090343  83.0195054 103.8936715  89.7313408
  76.8924202 104.8922909  80.5414981  76.7723827 105.3379959  81.3800462
  76.1976791 105.2408226  79.9828519  70.4831607 106.9929300  88.0914638
  70.6123988 107.2463779  89.0054050  69.8029058 107.5857008  87.7719293
  74.6531094 117.6626550  84.1905113  74.5755124 118.6134375  84.2693593
  74.0492738 117.3172423  84.8480039  77.1448324 104.8354416  96.8466479
  76.3681658 105.3948336  96.8369344  77.7838887 105.3211199  97.3681350
  84.9369105 101.6181209  90.6809456  84.2943485 101.9113742  90.0349251
  84.4324033 101.5034129  91.4862653  82.5909268 105.3644382  81.3695315
  83.5027124 105.5971769  81.1943013  82.0818915 105.9481426  80.8070394
  75.3994696 107.6439869  96.4084446  76.1409381 108.1824913  96.1319270
  74.6931682 108.2706158  96.5655998  80.8750036 109.7869010  95.0056608
  81.2833392 109.3451420  94.2611240  80.1527298 109.2121637  95.2590801
  77.2281106 104.7241616  92.3790165  78.0742301 105.1481030  92.5224814
  77.1679744 104.0675241  93.0728728  81.1978851 110.3470200  88.7608897
  80.5687713 110.5115914  88.0584965  80.8104513 110.7611810  89.5319861
  85.0768083 111.2824638  86.1153261  84.3919121 111.6623539  85.5650294
  85.1611932 111.8919965  86.8485208  80.3780551 102.3845985  94.0371339
  80.1341483 103.1388045  93.5005614  80.6540482 102.7631332  94.8718586
  82.3319014 108.9284597  92.7148604  82.5435909 109.5716357  92.0382985
  82.2848762 108.0946914  92.2470534  79.9345243 101.5402418  89.6185176
  79.0729722 101.8383671  89.9101914  79.9607678 101.7572817  88.6866209
  76.7506813 110.0844608  86.0258982  77.2145158 110.3632311  85.2363604
  76.4863611 109.1828053  85.8432073  73.6430894 109.6316090  88.9638745
  74.2132251 110.0603358  88.3256230  74.2339005 109.3498675  89.6622931
  75.6875699 106.2067761  82.8348547  76.3899742 106.6588804  83.3022473
  75.3556327 105.5651580  83.4628440  74.1356060 104.7979517  97.2099756
  73.5054721 105.4795798  97.4435153  74.0292148 104.6862599  96.2652895
  69.4301033 104.4651313  88.1365681  68.6400087 104.7208842  87.6605791
  69.9212280 105.2799651  88.2417721  83.4464842 111.8056553  90.8870961
  84.2682286 111.4036740  90.6053643  83.4427245 111.7024787  91.8387077
  71.3815778 104.8295893  85.0949157  70.5846941 104.9414587  85.6132653
  71.1541370 105.1682545  84.2290048  77.2121446 111.3540596  93.0431672
  77.2765878 111.8161003  93.8789844  76.5032369 110.7237961  93.1713982
  67.7138736 104.7181804  90.5680671  67.9646774 105.6028814  90.8338247
  68.2498284 104.5386405  89.7955763  91.5370835 108.1495301  87.2355933
  90.7834544 107.5802699  87.0799937  91.6718376 108.1157966  88.1826568
  76.9269463 113.0208703  82.9110652  76.7915138 113.8660239  83.3395500
  77.4679276 113.2227981  82.1476586  73.4136803  99.1000283  99.5725008
  73.0203748  98.5466482 100.2472652  74.2302943  99.4110862  99.9631525
  70.3798861 110.5384141  83.4838577  70.8923381 111.3327392  83.6344142
  71.0321573 109.8410432  83.4172179  72.1893745 113.6549898  85.5661331
  72.3660374 114.5767862  85.3782314  72.9850579 113.3408317  85.9955710
  76.3304764 100.5158162  97.1645264  77.0714477 101.1165315  97.0849727
  76.5622687  99.7735800  96.6063307  71.4746102 105.7014530  95.4423494
  71.3599617 104.7999787  95.7430593  70.6190620 105.9478226  95.0908310
  78.5537940 113.6432270  97.0410994  78.1101794 112.8568648  96.7231899
  79.2155153 113.8311420  96.3754885  73.3125061 115.1728071  91.5671673
  73.8632486 115.0445135  90.7948667  72.4736537 115.4722960  91.2166566
  80.6519178 113.9235070  95.0692396  80.6337653 114.7443951  94.5772665
  81.5739098 113.7989145  95.2942537  77.1092232 111.4379199  95.9115904
  77.6420569 110.6767487  95.6815212  76.5806313 111.1452851  96.6540059
  80.2761927  96.5439265  91.4409546  79.9326196  97.4340907  91.3648656
  80.6440889  96.3540923  90.5779131  68.3447777 108.8672796  84.2598148
  69.1822999 109.2769804  84.0431856  68.5226045 107.9272238  84.2298342
  80.2412210 106.5347876  79.9481981  79.7258833 107.3052481  80.1870368
  79.9689518 105.8613012  80.5715042  77.8259321 101.3797577  85.0067219
  76.9700917 100.9904428  84.8272858  78.2386272 101.4589538  84.1467005
  79.3558467  98.9143920  89.4058779  78.8523263  98.8774056  88.5926584
  79.6489074  99.8236663  89.4655436  75.6001353  98.9982650  88.4124961
  76.4654350  98.8025459  88.0530850  75.6678862  98.7693002  89.3394318
  85.2146484 109.2880231  81.8835154  84.4375926 108.9491390  81.4390316
  85.8937965 109.2932854  81.2090119  80.0298513 104.4074968  81.7741762
  79.7248648 104.7221118  82.6251905  80.9828955 104.4856388  81.8169095
  78.4744945 110.5665192  83.4234716  77.9466306 109.8317951  83.1107953
  77.9732447 111.3439868  83.1774684  83.4537791 108.7614212  88.5401762
  82.7961465 109.4513474  88.6281891  84.2578190 109.1510644  88.8835749
  73.2063672 101.2284858  85.7841328  73.7807424 101.0060040  85.0514521
  73.7934655 101.2973553  86.5369929  82.2643249 107.1158585  86.5905704
  82.7775131 107.7488577  87.0927414  82.9144473 106.5159780  86.2249064
  73.5333259 103.2589319  79.8037213  72.6970571 103.5964006  80.1246488
  73.3938029 103.1238299  78.8664350  75.5086340  98.1026107  84.5116397
  74.8550752  97.7875124  83.8873012  75.4666814  97.4801847  85.2376220
  76.6197545 108.3845402  76.4269689  75.7124606 108.1534655  76.6260838
  77.1168577 107.5883021  76.6143671  79.5265624 117.0942909  79.3466375
  78.8527322 117.3974606  79.9551333  79.9131446 117.8971990  78.9971832
  78.7424080 104.5908040  88.8364045  77.8246642 104.8122987  88.6785733
  79.1584224 104.6654351  87.9775752  79.5259128 105.9899456  83.9666725
  80.2730947 106.5020853  83.6573847  79.7950718 105.6683509  84.8271118
  77.7985778 108.4857997  80.9493679  76.8896997 108.2017030  81.0466149
  77.8280862 108.9057075  80.0896986  83.0305046 112.0964586  84.7184847
  82.5767373 111.2555496  84.7750037  82.3999012 112.7325985  85.0559627
  81.9737965 103.0256572  85.9485514  81.2360722 102.5133959  86.2795757
  82.2264739 102.5856954  85.1368791  81.4737985 113.9341083  85.6534665
  81.7660959 114.4946140  84.9347031  81.9836605 114.2269644  86.4087824
  82.0749592  95.8032824  86.5427283  82.3808469  94.9430188  86.2553199
  82.8002197  96.3950445  86.3426277  68.3673949 106.2063511  84.9308881
  68.1698348 105.6132872  84.2059948  67.8120613 105.9015721  85.6484820
  76.3470672 106.0986617  87.0503475  76.4019282 105.1460454  86.9745951
  75.5361874 106.2546057  87.5344773  77.4961866 110.0266741  78.2881758
  77.0581296 109.3102599  77.8287395  78.2372307 110.2542855  77.7266849
  74.2863032 104.7163677  84.8093853  73.4730898 105.0157848  85.2159046
  74.7822026 104.3219366  85.5268336  76.4371610 114.7121434  86.7428118
  76.3947789 114.9382280  85.8136650  77.3534309 114.4784809  86.8913919
  79.8837244 105.1805502  93.6408747  80.2386632 105.4076975  94.5003213
  80.5309375 105.5123878  93.0186003  85.6134981 108.3023938  84.3458076
  85.4752879 108.4925534  83.4179266  85.2571200 109.0643320  84.8026127
  73.7777107 102.2882033  90.4255088  74.4176486 102.1470792  89.7278052
  72.9454637 102.0016546  90.0493690  85.6404360 110.3700465  89.3569348
  86.0740867 110.2775754  90.2052402  86.3535941 110.3457965  88.7189364
  74.5537411 111.5884463  86.5390081  75.3478009 111.0934783  86.3372656
  73.8429103 111.0602326  86.1757786  79.3732255 113.9702559  90.8902448
  79.4269278 114.5393495  91.6580164  78.5047037 114.1404444  90.5256486
  70.8620174 105.7327545  82.6149833  69.9317762 105.6712000  82.8319796
  70.9577646 105.2103498  81.8186475  70.7805723 102.2582358  85.2028075
  71.0412541 103.1727691  85.0937236  71.6022896 101.7906800  85.3524688
  72.2530649 103.6720115  92.3726900  72.9253702 103.4637477  91.7239549
  71.4260435 103.4742201  91.9332132  86.5019910 110.4124165  91.8902233
  86.6955800 111.3169976  92.1361508  86.4020528 109.9531584  92.7240818
  78.1556221 100.2982056  94.3892561  77.5084136 100.9972005  94.2957037
  78.9257236 100.7318200  94.7568809  81.5635019 110.5630908  97.4643114
  81.4120525 110.3341460  96.5473198  81.5539698 111.5201509  97.4774459
  78.3320355 108.1362821  92.4489380  79.2612415 108.2873980  92.2758348
  77.9111385 108.2246842  91.5938027  77.1308687 112.1613485  90.2187918
  76.9919772 111.7932270  91.0913856  76.3423283 112.6761125  90.0471876
  77.7256839 117.2622582  81.5613454  77.9008594 116.7910625  82.3759077
  77.0389627 117.8888348  81.7894715  78.6813902 111.5395088  87.6076756
  78.3463735 111.4995858  88.5034406  78.1817848 110.8739804  87.1347166
  72.6558146 106.9462718  93.1329337  72.5177944 106.2142957  93.7340876
  73.5663069 106.8571618  92.8513525  81.6173094 108.8851122  77.8813815
  81.0002264 108.1597950  77.7846868  81.1489582 109.6460482  77.5380890
  75.2840447 106.6582677  92.6213016  75.9940065 106.0175869  92.5799635
  75.2409755 106.9095572  93.5439197  83.2727225 113.5950031  95.5419596
  83.2139771 112.9109251  94.8750179  83.6746744 114.3369021  95.0900222
  73.9969381 103.6447895  94.4408656  73.4606738 103.1938634  95.0930252
  73.4086089 103.7793804  93.6979120  72.2917924 120.4111944  88.3353315
  72.5314522 121.0430469  89.0132333  71.4487120 120.0599984  88.6218674
  73.4071639 103.1036547  77.0035120  72.5301106 102.9825347  76.6397366
  73.8829393 102.3122625  76.7514008  83.2744632 111.5589614  93.7733575
  82.3871411 111.2215536  93.8959974  83.8443184 110.8272646  94.0102341
  64.9273780 107.8913706  87.0976627  65.6144819 107.5775436  86.5097642
  64.7721908 108.7955071  86.8243878  69.7308502 102.7803903  91.5261650
  69.6466690 102.1729572  90.7912060  68.9091208 103.2712921  91.5271147
  76.8045786 116.2191067  90.7394819  76.7315957 117.0246038  91.2514123
  76.3623179 116.4183033  89.9142840  76.5935565 115.4562837  84.2497640
  75.8103087 115.9984517  84.3435865  77.2928311 115.9736817  84.6491881
  79.9032216 101.2657466  86.8931846  80.4000915 100.5127429  86.5732916
  79.1319197 101.3021783  86.3275055  87.7561973 106.9697832  88.5350137
  87.7451849 107.8522547  88.1644070  86.8879352 106.6169383  88.3404674
  79.2644469 116.1177901  92.8952977  79.9772442 116.7525366  92.8228879
  78.7734498 116.2141767  92.0792979  80.9861996 110.0229154  84.4670269
  80.0518275 110.1430616  84.2974973  81.1638665 109.1201620  84.2030279
  76.4867184 103.4074849  86.6203530  76.1164972 102.8545890  87.3084436
  76.9826277 102.8032983  86.0678530  84.3734548 105.8646473  85.0020303
  84.8395000 106.6974464  84.9280606  84.8242048 105.3991454  85.7065562
  74.3156383 113.8672344  93.7158548  75.0165842 114.5008827  93.8687942
  73.8451498 114.2087076  92.9554187  82.4410779 112.2090294  82.0006455
  82.7170623 112.0946889  82.9100329  81.5715277 111.8107779  81.9618628
  82.3451210  98.2327060  89.0411204  81.4314290  98.4631287  89.2093411
  82.7744312  98.3165504  89.8925237  82.1157669 106.4216952  91.5411098
  81.4629119 106.6692859  90.8863551  82.4938049 105.6081090  91.2073576
  79.0764843 116.4576645  85.6439269  79.2587237 115.6398301  86.1067021
  79.8997829 116.6744337  85.2064159  79.4107008 115.3844830  82.9054317
  79.9394775 114.8737285  82.2924479  79.6735228 115.0687360  83.7699850
  78.1645242 107.1636763  98.0277136  77.4885879 107.0630892  98.6979511
  78.9872876 107.0075977  98.4913133  69.9124101 113.4008699  90.6489651
  70.4977538 112.6552387  90.7817555  69.7148939 113.7112656  91.5326315
  72.7662756 116.4359947  85.6652093  72.0973131 116.9206074  85.1816133
  72.6275626 116.6829167  86.5795472  64.5041756 105.9714300  89.3694094
  64.5425855 105.4377890  90.1631212  63.9982049 105.4449505  88.7505071
  76.9068025 118.4703690  92.2634751  77.4586333 118.6335312  93.0283837
  77.2474218 119.0608128  91.5914776  71.8832518 100.8178840  92.8656636
  71.9473845 101.6793671  92.4534034  71.8199638 100.2052842  92.1328995
  71.3584791 102.8901973  96.5129670  71.9856829 102.5079050  97.1267195
  70.5012709 102.6716175  96.8785363  68.1350333 104.6978402  82.4448025
  68.4303774 103.7889080  82.3915079  67.2338369 104.6766141  82.1229028
  80.0436412 116.4185666  89.2498434  79.9187552 115.6175406  88.7409379
  80.7015503 116.9131859  88.7612404  71.6644580 102.7734398  88.4275574
  70.9431166 103.3870366  88.2883047  72.4537836 103.3092163  88.3492220
  82.1071320 114.2194686  90.8777984  81.1601656 114.1000037  90.8056310
  82.4554094 113.3317184  90.9604245  74.4670894 100.1088825  94.7016226
  74.9905296 100.3551121  95.4642535  74.2483227 100.9408860  94.2819363
  69.8638175 102.3792499  82.5687350  69.5350881 101.4989878  82.3862456
  70.2177546 102.3240168  83.4563740  79.1117754 114.0147402  87.0782336
  78.9642716 113.0864110  87.2589906  79.9371247 114.0367493  86.5939411
  72.9779998 102.6665469  82.9362828  73.3176071 103.1951390  82.2141436
  73.4252119 103.0045875  83.7121395  82.7151876 114.8375961  88.1647209
  83.6398423 114.6318822  88.0271660  82.5467179 114.5892362  89.0736550
  75.6723439 101.0502520  92.3865896  75.3320259 100.2510333  92.7886576
  74.9662445 101.3504231  91.8142729  76.3239911  98.1351832  90.8393219
  77.1465980  97.6612311  90.7172110  76.5677974  98.9142316  91.3391905
  74.9648145 101.1640091  81.1356121  75.6856508 101.5421344  80.6319838
  74.3413449 101.8828968  81.2391099  79.1079268 101.8685240  82.0714453
  79.3242882 102.7509878  81.7703281  78.6273335 101.4771453  81.3420095
  73.8478489 104.8270953  88.6485198  73.7023070 105.1411256  89.5409479
  73.3703693 105.4455853  88.0956096  75.7074872 101.8173501  88.6966087
  75.6936441 100.9214594  88.3598385  76.4247300 101.8244165  89.3304373
  77.5601003 102.2510841  90.7419215  77.3018781 103.1727912  90.7403545
  77.0286043 101.8541276  91.4319679  82.5047192 115.3561628  83.5209300
  82.6784069 114.7908051  82.7683153  82.9976083 116.1562523  83.3388790
  68.3224152 107.3676297  91.5872859  67.7777620 108.1436105  91.7193133
  69.2003501 107.7147102  91.4291980  75.1111768 100.6987881  83.9653657
  75.2327679  99.7704527  84.1644545  74.8213811 100.7126567  83.0531973
  77.9802959  98.3842792  87.1020377  78.0024655  98.4482125  86.1472357
  78.3971018  97.5447300  87.2960883  88.3586583 108.1198051  85.1399600
  88.8017729 107.3705376  84.7418723  87.4813093 108.1108188  84.7573332
  83.4922364 114.6728393  80.6206198  84.1873269 115.2935085  80.8393513
  83.8345514 113.8223744  80.8958576  69.1090173 106.4946194  94.4803016
  68.3671910 106.6428829  95.0667646  68.7882918 106.7554459  93.6169765
  85.3913787 112.1228098  82.1493529  85.9165112 112.4615371  81.4242849
  85.3036140 111.1875114  81.9656664  77.0533836 116.0362172  94.2783406
  77.3620963 115.7911319  95.1506105  77.8509318 116.2408810  93.7902276
  77.0754448 118.1900082  86.5088782  76.6359438 117.6976460  87.2021639
  77.8262565 117.6473049  86.2680858  69.5546787 114.3811622  86.5113410
  70.3804807 114.0815394  86.1312054  69.2040839 113.6119245  86.9603199
  74.5228320 113.7338091  88.5811084  73.9008330 113.0708796  88.2813312
  75.1933187 113.7599222  87.8984732  67.7555392 112.2997949  87.4702344
  66.9187301 111.8720123  87.2886345  67.7279038 112.4930392  88.4073135
  74.5952848 102.2119879  98.1743590  74.6441003 103.0882001  97.7921360
  75.1375362 101.6697272  97.6015233  85.2005569 109.6053468  94.7677456
  85.2503573 109.4403476  95.7092979  85.0919492 108.7380727  94.3775336
  74.0841827 112.2842014  82.0569545  74.2329948 112.9677478  81.4036217
  74.8908271 112.2647104  82.5719000  82.4909331 105.5884396  96.0836762
  83.3919194 105.4490861  95.7920760  82.5657305 105.7538851  97.0234940
  76.8252136 102.9651251  94.9289949  75.9555446 103.2584817  94.6572537
  77.0611617 103.5491696  95.6497212  86.7023765 112.0250410  95.0119477
  86.4108574 112.3880390  95.8482938  86.0895897 111.3117418  94.8332809
  87.9019448 109.5903290  87.5322047  88.7366339 110.0293094  87.6959608
  88.0378576 109.1141943  86.7130293  84.9510954 107.1483024  93.4799535
  85.4265075 107.3410671  92.6718387  84.0276519 107.2042210  93.2342919
  71.8394460 108.3107192  83.0630614  71.5940502 107.4069522  83.2610824
  72.0090375 108.3124342  82.1210092  79.5291170  99.1830868  92.4455369
  80.0473114  99.9191895  92.1201858  79.1746303  99.4894861  93.2802128
  71.1090108 104.0435549  80.5616775  70.4159353 104.1179904  79.9056811
  70.8641860 103.2795893  81.0838292  79.7803764  95.6031150  87.9656266
  80.0605518  94.9354340  88.5916692  80.5654371  95.7960246  87.4530930
  77.5837233 114.7790144  79.5281292  77.0111200 115.3980332  79.0751764
  78.1570026 115.3289506  80.0621214  83.6512623 104.0248784  91.7127841
  84.6030045 104.1246882  91.7340065  83.4816073 103.2327053  92.2225925
  81.6727002 101.1104368  91.8987242  81.0776934 101.3909380  91.2033730
  81.3876699 101.5998269  92.6703983  80.8034493 115.0627295  80.6589874
  81.7365166 114.9972856  80.8622750  80.7157705 115.8983561  80.2004407
  83.4322509 114.3793165  77.6193822  83.3536141 114.0453028  78.5129580
  84.2532176 114.8714933  77.6185294  86.1300700 107.2454904  90.8270140
  86.0977020 106.3070905  91.0129824  86.7401324 107.3238941  90.0935965
  77.9684031 106.1150957  76.8697345  78.9143136 105.9857165  76.9385763
  77.5898276 105.3765619  77.3466773  86.2795189 104.0365948  90.8728424
  85.7634238 103.2524404  90.6858353  87.1635137 103.7084664  91.0374943
  83.9405916  97.7806963  86.8324236  83.7430737  97.4722051  87.7167568
  84.5505621  98.5068602  86.9622166  91.9477250 108.3070911  89.9676177
  92.6780639 108.0456199  90.5283881  91.3384196 107.5699633  90.0078245
  90.0292547 106.4478774  90.5650628  89.3025711 106.3134739  89.9567120
  89.6139834 106.7555602  91.3707347  77.8522724 110.1668703  98.3298002
  78.7725733 110.3447302  98.5238048  77.8172307 109.2224749  98.1777701
  76.1526948 104.0400934  76.8052230  75.2458404 103.7434046  76.8814943
  76.4302929 103.7430752  75.9386516  67.0704889 105.3607297  87.2551276
  66.7507673 104.5072605  86.9625650  66.5238317 105.5755875  88.0109243
  70.8484796 108.0769738  90.9720783  71.0670806 109.0086846  90.9908816
  71.2610570 107.7177712  91.7575587  77.7689014  98.5837823  82.9596471
  76.9589742  98.2384908  83.3351717  78.4573431  98.2745367  83.5484083
  79.6979562  97.6615870  84.5820768  80.2510601  98.0811323  85.2410791
  79.9349649  96.7351618  84.6243724  75.7212662 103.6502944 100.3623532
  75.6209389 104.5997301 100.2935623  75.5034204 103.3221183  99.4899602
  74.9225733 100.8987869  76.9464209  75.7844897 101.2242767  77.2060026
  75.1076077 100.1119365  76.4337275  66.9393149 108.9810208  89.2244398
  66.2456620 108.5664161  88.7114352  67.6866140 109.0230745  88.6277817
  83.0758370  99.7716395  84.0899432  82.4957039 100.4301199  83.7077484
  82.8094302  98.9493740  83.6786849  81.5261936  99.1721453  86.2920752
  82.0261714  99.2837987  85.4835071  82.1697544  98.8682506  86.9321561
  75.5843932 107.0800083  99.1788593  75.1011013 107.8800443  99.3852482
  75.6704871 107.0908027  98.2256037  68.8529891 108.9128462  87.1010413
  68.8300579 109.0116149  86.1492296  69.1630528 109.7593613  87.4227579
  71.5117269 110.9704617  91.2157027  72.4660523 110.9388560  91.1486959
  71.3129793 110.5095241  92.0307253  72.1016651 109.5405733  93.7827825
  72.9209540 110.0349812  93.8062662  72.3753459 108.6237701  93.7545392
  81.8583248 101.9316486  83.1455780  80.9709103 102.2166136  82.9275975
  82.2737237 101.7710249  82.2983057  85.2097784 101.9563007  86.8610119
  85.9858174 102.4459459  87.1334736  84.4845918 102.3821061  87.3181989
  87.6470342 102.6690626  87.9184060  88.2414833 102.4286362  87.2077368
  87.7196926 101.9497756  88.5457596  69.8667498 116.5124237  88.2327225
  69.7321966 115.7524638  87.6665223  69.4499560 117.2365137  87.7656014
  81.0026461 111.6961160  77.2403800  81.7062311 111.9011163  77.8561456
  80.2789110 112.2637922  77.5052884  81.8324271 107.4471022  83.3606070
  81.7759473 107.9039573  82.5213703  82.3852614 106.6861706  83.1828913
  85.6429077 103.2360753  84.1856190  85.3866011 102.8357389  85.0164398
  85.0181945 103.9504547  84.0606329  89.9541415 105.9756827  86.6927481
  89.3940973 106.0450016  87.4659043  89.3484918 105.7997811  85.9726978
  73.0236624 117.4093554  88.4445668  72.9069008 118.3538986  88.3424358
  72.2029070 117.1067115  88.8331467  82.9113158 112.1343689  79.2902260
  83.7458762 111.7024888  79.1079735  82.7497501 111.9625703  80.2179155
  82.5659051 108.6375803  80.6558600  82.5107854 108.4720074  79.7147044
  81.9405106 109.3451836  80.8120789  67.3551566 103.8743867  94.4820022
  68.0010429 103.3642821  94.9707247  67.1468717 104.6112549  95.0563447
  75.8755176  98.1383912  80.2343918  75.8633846  99.0825752  80.3912189
  76.7678598  97.9554057  79.9403379  74.0491138 118.0621816  91.6601596
  74.9518385 118.0945426  91.9768091  73.8228508 117.1322267  91.6747932
  75.8044740 116.8152802  88.3211675  74.8540371 116.8154664  88.2076047
  76.1077226 116.0685537  87.8047709  79.6907295  94.7326688  84.4889855
  78.9239691  94.1785175  84.6346537  80.1018000  94.8048557  85.3504006
  71.6949057 101.0211484  98.5795036  72.5580518 100.6648289  98.7898361
  71.1214467 100.6825379  99.2670440  88.3487140 122.6040769  89.3218962
  88.0105651 122.4881833  88.4339497  89.2176908 122.2031934  89.3019968
  84.2073955 124.4576245  85.3115853  83.6438821 124.3666182  84.5432140
  84.0926351 123.6376150  85.7918345  81.7538387 125.9527437  88.1500073
  82.5459679 125.6118261  87.7346372  81.9935038 126.0622412  89.0702226
  83.7129141 125.2136350  81.0217452  84.4860017 124.6665337  80.8830328
  84.0654540 126.0780599  81.2331913  86.0495419 121.3729016  78.6535902
  86.3020940 120.8510537  77.8919365  85.1119978 121.2095162  78.7562585
  91.0938702 120.3764794  86.4610645  91.8801791 119.9584218  86.1101062
  91.3577406 121.2810887  86.6292293  91.2648779 125.8137645  81.1599302
  90.6294612 125.8872271  81.8720206  90.9346186 126.4031244  80.4818381
  96.4947129 120.3140028  87.3643624  97.2272301 119.7439244  87.5981453
  95.7386485 119.9261628  87.8050129  85.7691708 123.2757122  80.8560277
  85.6527966 122.6002025  81.5241361  85.8793968 122.7889496  80.0392430
  88.1123249 122.7367269  84.5606966  87.7481456 122.2097890  85.2719887
  88.9690365 122.3465738  84.3873451  94.0172549 114.0261602  91.8238232
  93.6855874 114.8957013  91.5999447  93.4218163 113.7097886  92.5032263
  87.7528736 117.7657169  79.5568315  87.9203138 118.6337405  79.9238786
  87.5625905 117.9284451  78.6329604  83.9616550 122.6787945  87.2570849
  83.0367047 122.5464159  87.4648541  84.2100964 123.4582164  87.7540792
  87.7317957 120.2214826  80.5414981  87.6117582 120.6671877  81.3800462
  87.0370545 120.5700144  79.9828519  81.3225362 122.3221218  88.0914638
  81.4517743 122.5755697  89.0054050  80.6422813 122.9148926  87.7719293
  93.4303023 120.6936299  81.3695315  94.3420879 120.9263686  81.1943013
  92.9212670 121.2773344  80.8070394  90.7738998 116.8694335  89.6185176
  89.9123477 117.1675589  89.9101914  90.8001432 117.0864734  88.6866209
  87.5900567 125.4136526  86.0258982  88.0538913 125.6924229  85.2363604
  87.3257365 124.5119971  85.8432073  84.4824648 124.9608008  88.9638745
  85.0526005 125.3895276  88.3256230  85.0732760 124.6790592  89.6622931
  86.5269453 121.5359678  82.8348547  87.2293496 121.9880722  83.3022473
  86.1950082 120.8943497  83.4628440  80.2694787 119.7943231  88.1365681
  79.4793841 120.0500760  87.6605791  80.7606034 120.6091569  88.2417721
  82.2209532 120.1587810  85.0949157  81.4240696 120.2706505  85.6132653
  81.9935125 120.4974463  84.2290048  78.5532490 120.0473722  90.5680671
  78.8040528 120.9320731  90.8338247  79.0892038 119.8678323  89.7955763
  87.7663218 128.3500621  82.9110652  87.6308892 129.1952157  83.3395500
  88.3073030 128.5519899  82.1476586  81.2192615 125.8676059  83.4838577
  81.7317136 126.6619309  83.6344142  81.8715328 125.1702350  83.4172179
  83.0287500 128.9841815  85.5661331  83.2054128 129.9059780  85.3782314
  83.8244333 128.6700235  85.9955710  91.1155681 111.8731183  91.4409546
  90.7719951 112.7632825  91.3648656  91.4834644 111.6832841  90.5779131
  79.1841532 124.1964713  84.2598148  80.0216754 124.6061722  84.0431856
  79.3619800 123.2564156  84.2298342  91.0805964 121.8639794  79.9481981
  90.5652587 122.6344399  80.1870368  90.8083272 121.1904930  80.5715042
  88.6653075 116.7089495  85.0067219  87.8094671 116.3196345  84.8272858
  89.0780027 116.7881456  84.1467005  90.1952222 114.2435838  89.4058779
  89.6917017 114.2065973  88.5926584  90.4882829 115.1528581  89.4655436
  86.4395108 114.3274568  88.4124961  87.3048104 114.1317376  88.0530850
  86.5072616 114.0984920  89.3394318  90.8692267 119.7366886  81.7741762
  90.5642403 120.0513035  82.6251905  91.8222709 119.8148306  81.8169095
  89.3138699 125.8957109  83.4234716  88.7860061 125.1609869  83.1107953
  88.8126202 126.6731786  83.1774684  84.0457427 116.5576776  85.7841328
  84.6201179 116.3351957  85.0514521  84.6328409 116.6265470  86.5369929
  93.1037004 122.4450503  86.5905704  93.6168886 123.0780494  87.0927414
  93.7538228 121.8451698  86.2249064  84.3727014 118.5881237  79.8037213
  83.5364326 118.9255923  80.1246488  84.2331783 118.4530217  78.8664350
  86.3480094 113.4318025  84.5116397  85.6944507 113.1167042  83.8873012
  86.3060568 112.8093765  85.2376220  87.4591299 123.7137320  76.4269689
  86.5518361 123.4826573  76.6260838  87.9562331 122.9174939  76.6143671
  89.5817835 119.9199958  88.8364045  88.6640396 120.1414905  88.6785733
  89.9977978 119.9946269  87.9775752  90.3652882 121.3191374  83.9666725
  91.1124701 121.8312771  83.6573847  90.6344472 120.9975427  84.8271118
  88.6379533 123.8149915  80.9493679  87.7290752 123.5308947  81.0466149
  88.6674616 124.2348993  80.0896986  92.8131720 118.3548490  85.9485514
  92.0754476 117.8425876  86.2795757  93.0658493 117.9148872  85.1368791
  92.9143347 111.1324742  86.5427283  93.2202224 110.2722106  86.2553199
  93.6395952 111.7242362  86.3426277  79.2067703 121.5355429  84.9308881
  79.0092103 120.9424789  84.2059948  78.6514367 121.2307639  85.6484820
  87.1864427 121.4278535  87.0503475  87.2413036 120.4752372  86.9745951
  86.3755629 121.5837974  87.5344773  88.3355620 125.3558658  78.2881758
  87.8975050 124.6394517  77.8287395  89.0766061 125.5834773  77.7266849
  85.1256787 120.0455595  84.8093853  84.3124652 120.3449765  85.2159046
  85.6215781 119.6511284  85.5268336  84.6170861 117.6173950  90.4255088
  85.2570241 117.4762710  89.7278052  83.7848392 117.3308464  90.0493690
  85.3931165 126.9176381  86.5390081  86.1871764 126.4226701  86.3372656
  84.6822858 126.3894244  86.1757786  81.7013929 121.0619463  82.6149833
  80.7711517 121.0003918  82.8319796  81.7971401 120.5395415  81.8186475
  81.6199478 117.5874275  85.2028075  81.8806295 118.5019609  85.0937236
  82.4416650 117.1198718  85.3524688  83.0924403 119.0012033  92.3726900
  83.7647457 118.7929395  91.7239549  82.2654190 118.8034119  91.9332132
  92.4566848 124.2143040  77.8813815  91.8396019 123.4889868  77.7846868
  91.9883337 124.9752400  77.5380890  84.2465394 118.4328464  77.0035120
  83.3694860 118.3117265  76.6397366  84.7223147 117.6414542  76.7514008
  75.7667534 123.2205624  87.0976627  76.4538574 122.9067354  86.5097642
  75.6115663 124.1246989  86.8243878  80.5702256 118.1095820  91.5261650
  80.4860445 117.5021490  90.7912060  79.7484963 118.6004839  91.5271147
  90.7425970 116.5949384  86.8931846  91.2394670 115.8419346  86.5732916
  89.9712952 116.6313701  86.3275055  91.8255751 125.3521071  84.4670269
  90.8912030 125.4722534  84.2974973  92.0032419 124.4493538  84.2030279
  87.3260939 118.7366767  86.6203530  86.9558726 118.1837807  87.3084436
  87.8220031 118.1324900  86.0678530  95.2128302 121.1938390  85.0020303
  95.6788754 122.0266382  84.9280606  95.6635803 120.7283372  85.7065562
  93.1844965 113.5618977  89.0411204  92.2708045 113.7923204  89.2093411
  93.6138066 113.6457422  89.8925237  75.3435510 121.3006217  89.3694094
  75.3819610 120.7669808  90.1631212  74.8375803 120.7741423  88.7505071
  82.7226273 116.1470758  92.8656636  82.7867599 117.0085589  92.4534034
  82.6593393 115.5344759  92.1328995  78.9744088 120.0270319  82.4448025
  79.2697529 119.1180998  82.3915079  78.0732124 120.0058059  82.1229028
  82.5038335 118.1026316  88.4275574  81.7824921 118.7162284  88.2883047
  83.2931591 118.6384081  88.3492220  80.7031929 117.7084417  82.5687350
  80.3744636 116.8281796  82.3862456  81.0571300 117.6532086  83.4563740
  83.8173753 117.9957387  82.9362828  84.1569825 118.5243308  82.2141436
  84.2645873 118.3337793  83.7121395  86.5117193 116.3794438  92.3865896
  86.1714014 115.5802251  92.7886576  85.8056200 116.6796148  91.8142729
  87.1633665 113.4643750  90.8393219  87.9859735 112.9904228  90.7172110
  87.4071729 114.2434234  91.3391905  85.8041900 116.4932008  81.1356121
  86.5250262 116.8713261  80.6319838  85.1807204 117.2120885  81.2391099
  89.9473023 117.1977157  82.0714453  90.1636637 118.0801795  81.7703281
  89.4667090 116.8063371  81.3420095  84.6872244 120.1562871  88.6485198
  84.5416825 120.4703174  89.5409479  84.2097448 120.7747771  88.0956096
  86.5468627 117.1465419  88.6966087  86.5330196 116.2506512  88.3598385
  87.2641055 117.1536082  89.3304373  88.3994758 117.5802759  90.7419215
  88.1412535 118.5019829  90.7403545  87.8679798 117.1833193  91.4319679
  79.1617906 122.6968215  91.5872859  78.6171374 123.4728023  91.7193133
  80.0397256 123.0439020  91.4291980  85.9505523 116.0279799  83.9653657
  86.0721434 115.0996445  84.1644545  85.6607565 116.0418485  83.0531973
  88.8196713 113.7134709  87.1020377  88.8418410 113.7774042  86.1472357
  89.2364772 112.8739218  87.2960883  80.3940542 129.7103540  86.5113410
  81.2198562 129.4107312  86.1312054  80.0434594 128.9411162  86.9603199
  78.5949147 127.6289867  87.4702344  77.7581055 127.2012041  87.2886345
  78.5672792 127.8222310  88.4073135  84.9235582 127.6133932  82.0569545
  85.0723702 128.2969396  81.4036217  85.7302025 127.5939022  82.5719000
  82.6788215 123.6399109  83.0630614  82.4334257 122.7361439  83.2610824
  82.8484129 123.6416260  82.1210092  90.3684925 114.5122786  92.4455369
  90.8866868 115.2483813  92.1201858  90.0140057 114.8186779  93.2802128
  81.9483862 119.3727467  80.5616775  81.2553107 119.4471822  79.9056811
  81.7035614 118.6087810  81.0838292  90.6197519 110.9323068  87.9656266
  90.8999273 110.2646257  88.5916692  91.4048126 111.1252164  87.4530930
  88.8077786 121.4442875  76.8697345  89.7536890 121.3149083  76.9385763
  88.4292031 120.7057537  77.3466773  94.7799670 113.1098881  86.8324236
  94.5824491 112.8013969  87.7167568  95.3899376 113.8360520  86.9622166
  86.9920703 119.3692851  76.8052230  86.0852158 119.0725964  76.8814943
  87.2696684 119.0722669  75.9386516  77.9098643 120.6899215  87.2551276
  77.5901428 119.8364523  86.9625650  77.3632071 120.9047793  88.0109243
  81.6878551 123.4061656  90.9720783  81.9064561 124.3378763  90.9908816
  82.1004325 123.0469630  91.7575587  88.6082769 113.9129741  82.9596471
  87.7983497 113.5676826  83.3351717  89.2967186 113.6037285  83.5484083
  90.5373317 112.9907788  84.5820768  91.0904356 113.4103241  85.2410791
  90.7743403 112.0643536  84.6243724  85.7619488 116.2279786  76.9464209
  86.6238652 116.5534685  77.2060026  85.9469832 115.4411282  76.4337275
  77.7786903 124.3102126  89.2244398  77.0850375 123.8956079  88.7114352
  78.5259894 124.3522663  88.6277817  93.9152124 115.1008313  84.0899432
  93.3350793 115.7593117  83.7077484  93.6488057 114.2785657  83.6786849
  92.3655690 114.5013371  86.2920752  92.8655469 114.6129905  85.4835071
  93.0091298 114.1974423  86.9321561  79.6923646 124.2420380  87.1010413
  79.6694334 124.3408067  86.1492296  80.0024282 125.0885531  87.4227579
  92.6977002 117.2608403  83.1455780  91.8102857 117.5458054  82.9275975
  93.1130991 117.1002167  82.2983057  96.0491538 117.2854924  86.8610119
  96.8251928 117.7751377  87.1334736  95.3239672 117.7112978  87.3181989
  98.4864097 117.9982543  87.9184060  99.0808588 117.7578279  87.2077368
  98.5590680 117.2789674  88.5457596  92.6718026 122.7762939  83.3606070
  92.6153227 123.2331491  82.5213703  93.2246368 122.0153624  83.1828913
  96.4822832 118.5652671  84.1856190  96.2259766 118.1649307  85.0164398
  95.8575700 119.2796465  84.0606329  93.4052805 123.9667720  80.6558600
  93.3501609 123.8011992  79.7147044  92.7798860 124.6743753  80.8120789
  78.1945320 119.2035785  94.4820022  78.8404184 118.6934739  94.9707247
  77.9862471 119.9404466  95.0563447  86.7148931 113.4675829  80.2343918
  86.7027600 114.4117669  80.3912189  87.6072352 113.2845975  79.9403379
  90.5301050 110.0618606  84.4889855  89.7633446 109.5077093  84.6346537
  90.9411755 110.1340475  85.3504006  26.5034908   7.6823957  76.1102744
  27.1413318   7.5630704  75.4066084  26.3855751   8.6304801  76.1690696
  23.3124614   7.6351385  76.0464268  22.9743126   7.5192450  75.1584803
  24.1814382   7.2342550  76.0265274  19.1711430   9.4886862  72.0361159
  18.6076295   9.3976799  71.2677447  19.0563825   8.6686766  72.5163652
  23.7944397   8.7886237  82.0050474  23.7833038   8.3939035  81.1330978
  23.9565037   8.0552310  82.5984245  16.7175862  10.9838053  74.8745380
  17.5097154  10.6428878  74.4591679  16.9572512  11.0933028  75.7947533
  24.7510989  13.1557829  67.3475624  24.0998968  13.7411910  66.9609638
  25.5455351  13.6864024  67.4070662  18.6766616  10.2446966  67.7462759
  19.4497492   9.6975954  67.6075634  19.0292015  11.1091216  67.9577220
  20.5151658  11.5723349  80.9529658  20.2241524  12.4768980  80.8376324
  21.1508643  11.6139876  81.6673727  21.4407865   8.9500197  77.5431017
  22.0371437   8.7256220  76.8287980  21.4982837   8.2084943  78.1456465
  21.0132893   6.4039633  65.3781208  21.2658414   5.8821154  64.6164671
  20.0757453   6.2405778  65.4807892  26.0576176   5.4075411  73.1855952
  26.8439266   4.9894834  72.8346369  26.3214881   6.3121503  73.3537600
  26.2286254  10.8448261  67.8844608  25.5932087  10.9182888  68.5965513
  25.8983660  11.4341860  67.2063688  31.4584603   5.3450644  74.0888930
  32.1909775   4.7749861  74.3226760  30.7023959   4.9572245  74.5295436
  20.7329182   8.3067739  67.5805583  20.6165440   7.6312642  68.2486668
  20.8431442   7.8200112  66.7637736  23.0760723   7.7677886  71.2852273
  22.7118930   7.2408507  71.9965194  23.9327839   7.3776355  71.1118758
  28.9810024  -0.9427782  78.5483539  28.6493349  -0.0732371  78.3244754
  28.3855637  -1.2591498  79.2277569  22.7166210   2.7967785  66.2813621
  22.8840612   3.6648022  66.6484092  22.5263379   2.9595067  65.3574910
  25.4741543  11.2584764  77.9479452  25.1742266  12.1609803  77.8395259
  25.1292603  10.9916947  78.8000604  18.9254025   7.7098561  73.9816156
  18.0004521   7.5774775  74.1893848  19.1738438   8.4892780  74.4786098
  28.8738687   3.7767304  75.6276889  27.9655564   3.7082713  75.3335650
  28.8226283   4.2539249  76.4558714  22.6955431   5.2525443  67.2660288
  22.5755056   5.6982494  68.1045768  22.0008019   5.6010761  66.7073826
  16.2862836   7.3531835  74.8159945  16.4155217   7.6066314  75.7299357
  15.6060287   7.9459543  74.4964600  20.4562323  18.0229085  70.9150419
  20.3786353  18.9736910  70.9938900  19.8523967  17.6774957  71.5725346
  22.9479553   5.1956950  83.5711786  22.1712887   5.7550870  83.5614651
  23.5870116   5.6813733  84.0926656  30.7400334   1.9783743  77.4054763
  30.0974714   2.2716276  76.7594557  30.2355262   1.8636663  78.2107959
  28.3940497   5.7246916  68.0940622  29.3058353   5.9574303  67.9188320
  27.8850144   6.3083960  67.5315701  21.2025925   8.0042403  83.1329753
  21.9440610   8.5427447  82.8564577  20.4962911   8.6308692  83.2901305
  26.6781265  10.1471544  81.7301915  27.0864621   9.7053954  80.9856547
  25.9558526   9.5724171  81.9836108  23.0312335   5.0844151  79.1035472
  23.8773530   5.5083564  79.2470121  22.9710973   4.4277775  79.7974035
  27.0010079  10.7072734  75.4854203  26.3718942  10.8718449  74.7830271
  26.6135742  11.1214344  76.2565168  30.8799311  11.6427172  72.8398567
  30.1950350  12.0226074  72.2895601  30.9643161  12.2522499  73.5730515
  26.1811780   2.7448519  80.7616645  25.9372712   3.4990580  80.2250921
  26.4571711   3.1233867  81.5963892  28.1350243   9.2887131  79.4393911
  28.3467138   9.9318891  78.7628292  28.0879991   8.4549448  78.9715841
  25.7376472   1.9004952  76.3430483  24.8760951   2.1986206  76.6347221
  25.7638907   2.1175351  75.4111516  22.5538041  10.4447143  72.7504289
  23.0176387  10.7234846  71.9608911  22.2894839   9.5430587  72.5677379
  19.4462122   9.9918624  75.6884052  20.0163479  10.4205892  75.0501536
  20.0370234   9.7101209  76.3868238  21.4906927   6.5670295  69.5593854
  22.1930971   7.0191339  70.0267780  21.1587556   5.9254114  70.1873747
  19.9387289   5.1582052  83.9345063  19.3085950   5.8398332  84.1680460
  19.8323377   5.0465133  82.9898201  29.2496071  12.1659087  77.6116268
  30.0713515  11.7639274  77.3298950  29.2458474  12.0627321  78.5632384
  23.0152674  11.7143130  79.7676979  23.0797107  12.1763537  80.6035150
  22.3063598  11.0840495  79.8959288  37.3402064   8.5097835  73.9601240
  36.5865772   7.9405233  73.8045244  37.4749605   8.4760500  74.9071874
  22.7300692  13.3811238  69.6355959  22.5946367  14.2262773  70.0640807
  23.2710505  13.5830515  68.8721893  16.1830089  10.8986676  70.2083884
  16.6954610  11.6929926  70.3589449  16.8352802  10.2012966  70.1417486
  17.9924974  14.0152432  72.2906637  18.1691602  14.9370397  72.1027621
  18.7881808  13.7010851  72.7201017  24.3569168  14.0034804  83.7656301
  23.9133023  13.2171183  83.4477206  25.0186382  14.1913955  83.1000192
  19.1156290  15.5330606  78.2916980  19.6663715  15.4047669  77.5193973
  18.2767765  15.8325495  77.9411872  26.4550406  14.2837604  81.7937702
  26.4368882  15.1046485  81.3017971  27.3770327  14.1591679  82.0187843
  22.9123461  11.7981733  82.6361211  23.4451797  11.0370022  82.4060519
  22.3837542  11.5055385  83.3785365  26.0443438   6.8950411  66.6727288
  25.5290062   7.6655015  66.9115675  25.7720747   6.2215547  67.2960349
  31.0177712   9.6482765  68.6080461  30.2407155   9.3093925  68.1635623
  31.6969193   9.6535388  67.9335426  25.8329741   4.7677503  68.4987069
  25.5279877   5.0823652  69.3497212  26.7860184   4.8458923  68.5414402
  24.2776173  10.9267726  70.1480023  23.7497535  10.1920486  69.8353260
  23.7763676  11.7042402  69.9019991  29.2569019   9.1216746  75.2647069
  28.5992694   9.8116008  75.3527198  30.0609419   9.5113178  75.6081055
  28.0674478   7.4761119  73.3151011  28.5806360   8.1091111  73.8172720
  28.7175702   6.8762315  72.9494371  22.4228774   8.7447936  63.1514996
  21.5155835   8.5137190  63.3506145  22.9199805   7.9485555  63.3388977
  25.3296852  17.4545443  66.0711682  24.6558551  17.7577140  66.6796640
  25.7162674  18.2574524  65.7217139  24.5455309   4.9510575  75.5609351
  23.6277870   5.1725522  75.4031039  24.9615453   5.0256885  74.7021059
  25.3290357   6.3501990  70.6912032  26.0762176   6.8623388  70.3819154
  25.5981946   6.0286043  71.5516425  23.6017007   8.8460531  67.6738986
  22.6928226   8.5619564  67.7711456  23.6312091   9.2659610  66.8142293
  28.8336274  12.4567121  71.4430153  28.3798601  11.6158030  71.4995344
  28.2030241  13.0928519  71.7804934  27.7769194   3.3859107  72.6730821
  27.0391951   2.8736493  73.0041063  28.0295967   2.9459488  71.8614098
  27.2769214  14.2943617  72.3779972  27.5692188  14.8548674  71.6592337
  27.7867834  14.5872178  73.1333131  22.1501901   6.4589152  73.7748781
  22.2050511   5.5062988  73.6991258  21.3393103   6.6148591  74.2590080
  23.2993095  10.3869275  65.0127064  22.8612525   9.6705134  64.5532702
  24.0403536  10.6145390  64.4512156  20.0894261   5.0766211  71.5339160
  19.2762126   5.3760382  71.9404352  20.5853255   4.6821900  72.2513642
  22.2402839  15.0723968  73.4673425  22.1979018  15.2984815  72.5381957
  23.1565538  14.8387343  73.6159226  25.6868473   5.5408036  80.3654054
  26.0417860   5.7679509  81.2248520  26.3340604   5.8726413  79.7431309
  31.4166210   8.6626472  71.0703383  31.2784108   8.8528068  70.1424572
  31.0602428   9.4245855  71.5271434  31.4435589  10.7302999  76.0814654
  31.8772096  10.6378288  76.9297708  32.1567170  10.7060499  75.4434670
  20.3568640  11.9486997  73.2635387  21.1509238  11.4537318  73.0617962
  19.6460332  11.4204861  72.9003093  25.1763484  14.3305093  77.6147755
  25.2300506  14.8996029  78.3825471  24.3078265  14.5006978  77.2501792
  32.3051139  10.7726699  78.6147540  32.4987029  11.6772510  78.8606815
  32.2051757  10.3134119  79.4486125  27.3666247  10.9233442  84.1888420
  27.2151754  10.6943994  83.2718504  27.3570927  11.8804044  84.2019765
  24.1351584   8.4965355  79.1734687  25.0643644   8.6476515  79.0003654
  23.7142614   8.5849376  78.3183333  22.9339916  12.5216019  76.9433225
  22.7951001  12.1534804  77.8159163  22.1454512  13.0363659  76.7717182
  23.5288068  17.6225116  68.2858761  23.7039823  17.1513159  69.1004384
  22.8420856  18.2490882  68.5140022  24.4845131  11.8997622  74.3322062
  24.1494963  11.8598392  75.2279712  23.9849076  11.2342338  73.8592473
  18.4589375   7.3065252  79.8574643  18.3209173   6.5745491  80.4586183
  19.3694298   7.2174152  79.5758831  27.4204322   9.2453656  64.6059122
  26.8033493   8.5200485  64.5092175  26.9520811  10.0063017  64.2626196
  21.0871675   7.0185211  79.3458323  21.7971294   6.3778404  79.3044942
  21.0440983   7.2698106  80.2684504  29.0758454  13.9552565  82.2664902
  29.0171000  13.2711785  81.5995485  29.4777972  14.6971555  81.8145528
  18.0949153  20.7714479  75.0598621  18.3345751  21.4033003  75.7377640
  17.2518349  20.4202519  75.3463980  29.0775861  11.9192149  80.4978882
  28.1902640  11.5818070  80.6205281  29.6474412  11.1875180  80.7347647
  22.6077015  16.5793601  77.4640125  22.5347186  17.3848573  77.9759430
  22.1654408  16.7785567  76.6388147  22.3966794  15.8165371  70.9742947
  21.6134316  16.3587051  71.0681171  23.0959539  16.3339351  71.3737188
  25.7063444   1.6260001  73.6177152  26.2032144   0.8729963  73.2978222
  24.9350426   1.6624317  73.0520361  33.5593202   7.3300366  75.2595444
  33.5483078   8.2125081  74.8889377  32.6910581   6.9771917  75.0649981
  25.0675698  16.4780435  79.6198284  25.7803670  17.1127900  79.5474185
  24.5765727  16.5744301  78.8038286  26.7893225  10.3831688  71.1915576
  25.8549504  10.5033150  71.0220280  26.9669894   9.4804155  70.9275585
  22.2898413   3.7677384  73.3448837  21.9196201   3.2148424  74.0329742
  22.7857506   3.1635517  72.7923837  30.1765776   6.2249007  71.7265610
  30.6426229   7.0576999  71.6525912  30.6273277   5.7593989  72.4310868
  20.1187612  14.2274879  80.4403855  20.8197071  14.8611362  80.5933249
  19.6482727  14.5689610  79.6799494  28.2442008  12.5692828  68.7251762
  28.5201851  12.4549423  69.6345636  27.3746506  12.1710313  68.6863935
  27.9188898   6.7819486  78.2656405  27.2660348   7.0295393  77.6108858
  28.2969278   5.9683624  77.9318882  24.8796072  16.8179179  72.3684575
  25.0618466  16.0000835  72.8312328  25.7029058  17.0346871  71.9309465
  25.2138237  15.7447364  69.6299624  25.7426004  15.2339819  69.0169786
  25.4766457  15.4289895  70.4945157  23.9676471   7.5239297  84.7522442
  23.2917108   7.4233426  85.4224817  24.7904105   7.3678511  85.2158439
  15.7155330  13.7611234  77.3734957  16.3008767  13.0154921  77.5062862
  15.5180168  14.0715190  78.2571621  18.5693985  16.7962481  72.3897400
  17.9004360  17.2808609  71.9061440  18.4306855  17.0431701  73.3040778
  22.7099254  18.8306225  78.9880058  23.2617562  18.9937846  79.7529143
  23.0505447  19.4210662  78.3160083  27.5610128  13.6567482  84.8428713
  28.1050032  14.2697440  84.3483667  26.9796973  14.2147060  85.3595726
  25.8467641  16.7788200  75.9743740  25.7218780  15.9777940  75.4654686
  26.5046732  17.2734393  75.4857710  27.9102549  14.5797220  77.6023290
  26.9632885  14.4602571  77.5301617  28.2585322  13.6919718  77.6849552
  24.9148983  14.3749936  73.8027643  24.7673945  13.4466644  73.9835213
  25.7402476  14.3970027  73.3184718  28.5183104  15.1978495  74.8892515
  29.4429652  14.9921356  74.7516966  28.3498408  14.9494896  75.7981857
  24.9110497   2.2287774  68.7959760  25.1274111   3.1112412  68.4948588
  24.4304564   1.8373987  68.0665402  19.6509718   5.1873487  75.3730504
  19.5054299   5.5013790  76.2654786  19.1734922   5.8058388  74.8201403
  28.3078421  15.7164163  70.2454607  28.4815298  15.1510585  69.4928459
  28.8007312  16.5165057  70.0634097  34.1617812   8.4800585  71.8644907
  34.6048958   7.7307911  71.4664030  33.2844322   8.4710722  71.4818639
  29.2953593  15.0330927  67.3451505  29.9904498  15.6537620  67.5638820
  29.6376743  14.1826278  67.6203883  31.1945016  12.4830632  68.8738836
  31.7196340  12.8217905  68.1488156  31.1067369  11.5477648  68.6901970
  22.8565065  16.3964706  81.0028712  23.1652191  16.1513853  81.8751412
  23.6540547  16.6011345  80.5147583  22.8785677  18.5502616  73.2334089
  22.4390667  18.0578994  73.9266946  23.6293794  18.0075583  72.9926164
  15.3578016  14.7414157  73.2358717  16.1836036  14.4417928  72.8557361
  15.0072068  13.9721779  73.6848506  20.3259549  14.0940625  75.3056391
  19.7039558  13.4311330  75.0058619  20.9964416  14.1201757  74.6230038
  13.5586621  12.6600483  74.1947651  12.7218529  12.2322657  74.0131652
  13.5310266  12.8532926  75.1318442  30.8838922  13.1163536  84.1790034
  30.0934466  13.0987675  83.6394533  30.6472277  13.6551830  84.9339070
  31.0036797   9.9656002  81.4922762  31.0534802   9.8006010  82.4338285
  30.8950721   9.0983261  81.1020643  19.8873056  12.6444548  68.7814851
  20.0361176  13.3280013  68.1281524  20.6939499  12.6249638  69.2964307
  28.2940560   5.9486930  82.8082069  29.1950422   5.8093395  82.5166067
  28.3688534   6.1141385  83.7480246  22.6283365   3.3253785  81.6535255
  21.7586674   3.6187351  81.3817844  22.8642845   3.9094230  82.3742519
  32.5054994  12.3852944  81.7364784  32.2139802  12.7482925  82.5728245
  31.8927125  11.6719952  81.5578116  33.7050676   9.9505824  74.2567354
  34.5397568  10.3895628  74.4204914  33.8409805   9.4744477  73.4375600
  30.7542182   7.5085559  80.2044842  31.2296304   7.7013205  79.3963693
  29.8307748   7.5644744  79.9588226  17.6425689   8.6709726  69.7875920
  17.3971731   7.7672056  69.9856130  17.8121604   8.6726876  68.8455398
  23.3868462  15.1392679  66.2526599  22.8142429  15.7582866  65.7997071
  23.9601255  15.6892040  66.7866521  29.4543851   4.3851319  78.4373147
  30.4061274   4.4849416  78.4585372  29.2847302   3.5929587  78.9471232
  27.4758231   1.4706902  78.6232548  26.8808163   1.7511915  77.9279037
  27.1907928   1.9600803  79.3949290  26.6065721  15.4229829  67.3835181
  27.5396395  15.3575390  67.5868056  26.5188934  16.2586096  66.9249714
  29.2353738  14.7395699  64.3439129  29.1567370  14.4055563  65.2374886
  30.0563405  15.2317467  64.3430601  31.9331929   7.6057438  77.5515447
  31.9008249   6.6673439  77.7375131  32.5432553   7.6841475  76.8181272
  23.7715260   6.4753491  63.5942651  24.7174365   6.3459699  63.6631069
  23.3929505   5.7368153  64.0712079  32.0826418   4.3968482  77.5973730
  31.5665466   3.6126938  77.4103659  32.9666366   4.0687198  77.7620250
  29.7437145  -1.8590503  73.5569543  29.5461966  -2.1675414  74.4412875
  30.3536850  -1.1328864  73.6867473  37.7508479   8.6673445  76.6921484
  38.4811868   8.4058733  77.2529187  37.1415425   7.9302167  76.7323552
  35.8323776   6.8081308  77.2895935  35.1056940   6.6737273  76.6812427
  35.4171063   7.1158136  78.0952653  23.6553953  10.5271237  85.0543308
  24.5756962  10.7049836  85.2483355  23.6203536   9.5827283  84.9023007
  21.9558177   4.4003468  63.5297536  21.0489633   4.1036580  63.6060250
  22.2334158   4.1033286  62.6631823  16.6516025   8.4372272  77.6966089
  16.8702035   9.3689380  77.7154123  17.0641799   8.0780247  78.4820893
  28.8789598   0.1318929  70.8144739  28.2988267   0.7903733  70.4322791
  28.6125531  -0.6903726  70.4032156  27.3293165  -0.4676013  73.0166059
  27.8292943  -0.3559478  72.2080378  27.9728773  -0.7714960  73.6566867
  21.3875161   7.4402617  85.9033900  20.9042242   8.2402977  86.1097789
  21.4736100   7.4510562  84.9501344  14.6561120   9.2730996  73.8255719
  14.6331808   9.3718684  72.8737602  14.9661757  10.1196147  74.1472885
  17.3148498  11.3307151  77.9402334  18.2691752  11.2991094  77.8732265
  17.1161022  10.8697775  78.7552560  17.9047880   9.9008267  80.5073131
  18.7240769  10.3952346  80.5307969  18.1784688   8.9840236  80.4790699
  27.6614476   2.2919020  69.8701087  26.7740331   2.5768670  69.6521282
  28.0768465   2.1312783  69.0228364  31.0129012   2.3165541  73.5855426
  31.7889403   2.8061993  73.8580043  30.2877147   2.7423595  74.0427296
  33.4501571   3.0293160  74.6429367  34.0446062   2.7888896  73.9322675
  33.5228155   2.3100291  75.2702903  15.6698727  16.8726771  74.9572532
  15.5353195  16.1127172  74.3910530  15.2530789  17.5967671  74.4901320
  26.8057690  12.0563694  63.9649107  27.5093540  12.2613697  64.5806762
  26.0820339  12.6240456  64.2298190  27.6355500   7.8073556  70.0851377
  27.5790701   8.2642107  69.2459009  28.1883843   7.0464240  69.9074220
  31.4460306   3.5963288  70.9101497  31.1897240   3.1959923  71.7409704
  30.8213174   4.3107082  70.7851636  35.7572644   6.3359361  73.4172788
  35.1972202   6.4052550  74.1904350  35.1516147   6.1600345  72.6972284
  18.8267853  17.7696088  75.1690974  18.7100237  18.7141520  75.0669664
  18.0060299  17.4669650  75.5576773  28.7144387  12.4946224  66.0147567
  29.5489991  12.0627422  65.8325042  28.5528730  12.3228237  66.9424461
  28.3690279   8.9978337  67.3803906  28.3139083   8.8322608  66.4392350
  27.7436335   9.7054370  67.5366096  25.6836187  11.3027249  86.7057469
  26.5527346  11.4767901  86.3444104  25.2042938  12.1221666  86.5833198
  19.8522367  18.4224350  78.3846903  20.7549614  18.4547960  78.7013398
  19.6259737  17.4924801  78.3993238  21.6075969  17.1755336  75.0456981
  20.6571600  17.1757198  74.9321354  21.9108455  16.4288071  74.5293016
  37.3428662  23.0115875  76.1102744  37.9807072  22.8922622  75.4066084
  37.2249505  23.9596719  76.1690696  34.1518369  22.9643303  76.0464268
  33.8136880  22.8484368  75.1584803  35.0208137  22.5634468  76.0265274
  30.0105184  24.8178779  72.0361159  29.4470049  24.7268716  71.2677447
  29.8957579  23.9978684  72.5163652  34.6338152  24.1178155  82.0050474
  34.6226792  23.7230953  81.1330978  34.7958791  23.3844227  82.5984245
  27.5569616  26.3129971  74.8745380  28.3490908  25.9720796  74.4591679
  27.7966266  26.4224946  75.7947533  35.5904743  28.4849747  67.3475624
  34.9392723  29.0703827  66.9609638  36.3849106  29.0155942  67.4070662
  29.5160370  25.5738884  67.7462759  30.2891246  25.0267871  67.6075634
  29.8685769  26.4383133  67.9577220  31.3545413  26.9015266  80.9529658
  31.0635279  27.8060897  80.8376324  31.9902397  26.9431794  81.6673727
  32.2801620  24.2792115  77.5431017  32.8765192  24.0548137  76.8287980
  32.3376591  23.5376860  78.1456465  31.8526648  21.7331550  65.3781208
  32.1052169  21.2113072  64.6164671  30.9151207  21.5697696  65.4807892
  36.8969931  20.7367329  73.1855952  37.6833020  20.3186752  72.8346369
  37.1608635  21.6413421  73.3537600  37.0680008  26.1740179  67.8844608
  36.4325841  26.2474805  68.5965513  36.7377415  26.7633778  67.2063688
  42.2978358  20.6742562  74.0888930  43.0303530  20.1041779  74.3226760
  41.5417714  20.2864162  74.5295436  31.5722937  23.6359656  67.5805583
  31.4559195  22.9604560  68.2486668  31.6825197  23.1492030  66.7637736
  33.9154478  23.0969803  71.2852273  33.5512685  22.5700424  71.9965194
  34.7721594  22.7068272  71.1118758  39.8203778  14.3864136  78.5483539
  39.4887103  15.2559547  78.3244754  39.2249392  14.0700420  79.2277569
  33.5559965  18.1259703  66.2813621  33.7234367  18.9939939  66.6484092
  33.3657134  18.2886985  65.3574910  36.3135298  26.5876682  77.9479452
  36.0136021  27.4901721  77.8395259  35.9686357  26.3208865  78.8000604
  29.7647779  23.0390479  73.9816156  28.8398276  22.9066693  74.1893848
  30.0132192  23.8184698  74.4786098  39.7132442  19.1059222  75.6276889
  38.8049319  19.0374631  75.3335650  39.6620037  19.5831167  76.4558714
  33.5349185  20.5817361  67.2660288  33.4148811  21.0274411  68.1045768
  32.8401774  20.9302678  66.7073826  27.1256590  22.6823752  74.8159945
  27.2548971  22.9358231  75.7299357  26.4454042  23.2751460  74.4964600
  31.2956078  33.3521002  70.9150419  31.2180107  34.3028827  70.9938900
  30.6917721  33.0066875  71.5725346  33.7873307  20.5248868  83.5711786
  33.0106641  21.0842788  83.5614651  34.4263870  21.0105651  84.0926656
  41.5794088  17.3075661  77.4054763  40.9368468  17.6008194  76.7594557
  41.0749017  17.1928581  78.2107959  39.2334252  21.0538834  68.0940622
  40.1452108  21.2866220  67.9188320  38.7243899  21.6375878  67.5315701
  32.0419680  23.3334321  83.1329753  32.7834364  23.8719365  82.8564577
  31.3356665  23.9600610  83.2901305  37.5175019  25.4763462  81.7301915
  37.9258375  25.0345872  80.9856547  36.7952281  24.9016089  81.9836108
  33.8706089  20.4136068  79.1035472  34.7167285  20.8375482  79.2470121
  33.8104727  19.7569693  79.7974035  37.8403834  26.0364652  75.4854203
  37.2112696  26.2010366  74.7830271  37.4529496  26.4506262  76.2565168
  41.7193066  26.9719090  72.8398567  41.0344104  27.3517991  72.2895601
  41.8036915  27.5814417  73.5730515  37.0205535  18.0740437  80.7616645
  36.7766467  18.8282497  80.2250921  37.2965465  18.4525784  81.5963892
  38.9743997  24.6179049  79.4393911  39.1860893  25.2610809  78.7628292
  38.9273746  23.7841366  78.9715841  36.5770226  17.2296870  76.3430483
  35.7154705  17.5278123  76.6347221  36.6032661  17.4467269  75.4111516
  33.3931796  25.7739060  72.7504289  33.8570141  26.0526763  71.9608911
  33.1288594  24.8722505  72.5677379  30.2855877  25.3210542  75.6884052
  30.8557234  25.7497810  75.0501536  30.8763989  25.0393126  76.3868238
  32.3300682  21.8962213  69.5593854  33.0324725  22.3483256  70.0267780
  31.9981310  21.2546031  70.1873747  30.7781043  20.4873969  83.9345063
  30.1479704  21.1690250  84.1680460  30.6717131  20.3757051  82.9898201
  26.0726016  20.1545765  74.8610987  25.2825070  20.4103294  74.3851098
  26.5637263  20.9694103  74.9663028  40.0889825  27.4951004  77.6116268
  40.9107269  27.0931192  77.3298950  40.0852228  27.3919239  78.5632384
  28.0240761  20.5190345  71.8194464  27.2271925  20.6309039  72.3377960
  27.7966353  20.8576997  70.9535355  33.8546429  27.0435048  79.7676979
  33.9190861  27.5055455  80.6035150  33.1457353  26.4132413  79.8959288
  24.3563719  20.4076256  77.2925978  24.6071757  21.2923266  77.5583554
  24.8923267  20.2280857  76.5201070  48.1795818  23.8389753  73.9601240
  47.4259527  23.2697151  73.8045244  48.3143360  23.8052417  74.9071874
  33.5694447  28.7103155  69.6355959  33.4340121  29.5554691  70.0640807
  34.1104259  28.9122433  68.8721893  30.0561786  14.7894735  86.2970314
  29.6628732  14.2360934  86.9717958  30.8727926  15.1005314  86.6876832
  27.0223844  26.2278593  70.2083884  27.5348364  27.0221844  70.3589449
  27.6746557  25.5304884  70.1417486  28.8318729  29.3444350  72.2906637
  29.0085357  30.2662314  72.1027621  29.6275562  29.0302769  72.7201017
  32.9729747  16.2052614  83.8890571  33.7139461  16.8059767  83.8095033
  33.2047670  15.4630252  83.3308613  28.1171085  21.3908981  82.1668800
  28.0024600  20.4894239  82.4675899  27.2615603  21.6372678  81.8153617
  35.1962923  29.3326722  83.7656301  34.7526777  28.5463100  83.4477206
  35.8580136  29.5205872  83.1000192  29.9550044  30.8622523  78.2916980
  30.5057469  30.7339587  77.5193973  29.1161520  31.1617412  77.9411872
  37.2944161  29.6129522  81.7937702  37.2762636  30.4338403  81.3017971
  38.2164081  29.4883597  82.0187843  33.7517215  27.1273651  82.6361211
  34.2845552  26.3661939  82.4060519  33.2231296  26.8347303  83.3785365
  36.9186910  12.2333717  78.1654852  36.5751179  13.1235359  78.0893963
  37.2865873  12.0435375  77.3024437  24.9872761  24.5567248  70.9843455
  25.8247983  24.9664256  70.7677162  25.1651028  23.6166690  70.9543648
  36.8837193  22.2242328  66.6727288  36.3683816  22.9946933  66.9115675
  36.6114501  21.5507464  67.2960349  34.4684304  17.0692029  71.7312526
  33.6125900  16.6798879  71.5518165  34.8811256  17.1483990  70.8712311
  35.9983450  14.6038372  76.1304086  35.4948246  14.5668507  75.3171891
  36.2914057  15.5131115  76.1900742  32.2426336  14.6877102  75.1370267
  33.1079333  14.4919911  74.7776157  32.3103845  14.4587454  76.0639624
  41.8571467  24.9774683  68.6080461  41.0800910  24.6385842  68.1635623
  42.5362948  24.9827306  67.9335426  36.6723496  20.0969420  68.4987069
  36.3673632  20.4115570  69.3497212  37.6253938  20.1750840  68.5414402
  35.1169928  26.2559644  70.1480023  34.5891289  25.5212403  69.8353260
  34.6157431  27.0334320  69.9019991  40.0962774  24.4508664  75.2647069
  39.4386448  25.1407926  75.3527198  40.9003173  24.8405096  75.6081055
  29.8488655  16.9179310  72.5086634  30.4232407  16.6954491  71.7759827
  30.4359638  16.9868004  73.2615236  38.9068233  22.8053037  73.3151011
  39.4200114  23.4383029  73.8172720  39.5569457  22.2054232  72.9494371
  30.1758243  18.9483771  66.5282519  29.3395555  19.2858457  66.8491794
  30.0363012  18.8132751  65.5909656  32.1511323  13.7920559  71.2361704
  31.4975735  13.4769576  70.6118318  32.1091797  13.1696299  71.9621527
  33.2622528  24.0739854  63.1514996  32.3549590  23.8429107  63.3506145
  33.7593560  23.2777473  63.3388977  36.1690607  32.7837361  66.0711682
  35.4952306  33.0869058  66.6796640  36.5556429  33.5866441  65.7217139
  35.3849063  20.2802492  75.5609351  34.4671625  20.5017439  75.4031039
  35.8009207  20.3548803  74.7021059  36.1684111  21.6793908  70.6912032
  36.9155930  22.1915305  70.3819154  36.4375701  21.3577961  71.5516425
  34.4410761  24.1752449  67.6738986  33.5321981  23.8911482  67.7711456
  34.4705845  24.5951527  66.8142293  39.6730029  27.7859038  71.4430153
  39.2192356  26.9449948  71.4995344  39.0423996  28.4220437  71.7804934
  38.6162948  18.7151024  72.6730821  37.8785705  18.2028411  73.0041063
  38.8689722  18.2751406  71.8614098  38.1162968  29.6235535  72.3779972
  38.4085942  30.1840592  71.6592337  38.6261589  29.9164096  73.1333131
  38.7174576  11.4927276  73.2672590  39.0233453  10.6324640  72.9798505
  39.4427181  12.0844897  73.0671584  25.0098932  21.8957963  71.6554188
  24.8123332  21.3027324  70.9305255  24.4545596  21.5910173  72.3730127
  32.9895655  21.7881069  73.7748781  33.0444265  20.8354906  73.6991258
  32.1786858  21.9440508  74.2590080  34.1386849  25.7161192  65.0127064
  33.7006279  24.9997051  64.5532702  34.8797290  25.9437307  64.4512156
  30.9288015  20.4058129  71.5339160  30.1155881  20.7052300  71.9404352
  31.4247010  20.0113818  72.2513642  33.0796593  30.4015886  73.4673425
  33.0372772  30.6276732  72.5381957  33.9959292  30.1679261  73.6159226
  36.5262227  20.8699954  80.3654054  36.8811615  21.0971427  81.2248520
  37.1734358  21.2018330  79.7431309  42.2559964  23.9918389  71.0703383
  42.1177863  24.1819985  70.1424572  41.8996183  24.7537772  71.5271434
  30.4202090  17.9776485  77.1500395  31.0601469  17.8365244  76.4523358
  29.5879621  17.6910998  76.7738997  42.2829344  26.0594916  76.0814654
  42.7165850  25.9670206  76.9297708  42.9960924  26.0352417  75.4434670
  31.1962394  27.2778915  73.2635387  31.9902993  26.7829235  73.0617962
  30.4854086  26.7496778  72.9003093  36.0157239  29.6597011  77.6147755
  36.0694261  30.2287947  78.3825471  35.1472020  29.8298896  77.2501792
  27.5045158  21.4221997  69.3395140  26.5742746  21.3606452  69.5565102
  27.6002630  20.8997950  68.5431781  27.4230707  17.9476810  71.9273382
  27.6837524  18.8622143  71.8182542  28.2447879  17.4801252  72.0769995
  28.8955632  19.3614567  79.0972206  29.5678685  19.1531929  78.4484855
  28.0685418  19.1636653  78.6577439  43.1444893  26.1018617  78.6147540
  43.3380783  27.0064428  78.8606815  43.0445511  25.6426036  79.4486125
  34.7981204  15.9876508  81.1137867  34.1509119  16.6866457  81.0202344
  35.5682219  16.4212652  81.4814115  38.2060002  26.2525360  84.1888420
  38.0545508  26.0235912  83.2718504  38.1964681  27.2095961  84.2019765
  34.9745338  23.8257273  79.1734687  35.9037398  23.9768432  79.0003654
  34.5536368  23.9141293  78.3183333  33.7733670  27.8507937  76.9433225
  33.6344756  27.4826721  77.8159163  32.9848266  28.3655576  76.7717182
  34.3681822  32.9517034  68.2858761  34.5433578  32.4805077  69.1004384
  33.6814610  33.5782800  68.5140022  35.3238885  27.2289540  74.3322062
  34.9888718  27.1890310  75.2279712  34.8242831  26.5634256  73.8592473
  29.2983129  22.6357170  79.8574643  29.1602927  21.9037409  80.4586183
  30.2088053  22.5466070  79.5758831  38.2598077  24.5745574  64.6059122
  37.6427247  23.8492402  64.5092175  37.7914565  25.3354934  64.2626196
  31.9265430  22.3477129  79.3458323  32.6365048  21.7070321  79.3044942
  31.8834738  22.5990024  80.2684504  39.9152209  29.2844482  82.2664902
  39.8564755  28.6003703  81.5995485  40.3171727  30.0263472  81.8145528
  30.6394364  19.3342347  81.1653963  30.1031721  18.8833085  81.8175559
  30.0511072  19.4688256  80.4224427  28.9342907  36.1006396  75.0598621
  29.1739506  36.7324920  75.7377640  28.0912104  35.7494436  75.3463980
  30.0496623  18.7930998  63.7280426  29.1726089  18.6719799  63.3642673
  30.5254376  18.0017077  63.4759315  39.9169616  27.2484066  80.4978882
  39.0296395  26.9109988  80.6205281  40.4868167  26.5167098  80.7347647
  21.5698763  23.5808158  73.8221933  22.2569803  23.2669888  73.2342949
  21.4146892  24.4849523  73.5489185  26.3733485  18.4698355  78.2506957
  26.2891674  17.8624024  77.5157367  25.5516191  18.9607373  78.2516453
  33.4470769  31.9085519  77.4640125  33.3740941  32.7140490  77.9759430
  33.0048162  32.1077485  76.6388147  33.2360549  31.1457289  70.9742947
  32.4528071  31.6878969  71.0681171  33.9353294  31.6631268  71.3737188
  36.5457199  16.9551918  73.6177152  37.0425898  16.2021881  73.2978222
  35.7744180  16.9916235  73.0520361  44.3986956  22.6592284  75.2595444
  44.3876833  23.5416999  74.8889377  43.5304336  22.3063835  75.0649981
  35.9069453  31.8072353  79.6198284  36.6197425  32.4419818  79.5474185
  35.4159481  31.9036219  78.8038286  37.6286980  25.7123605  71.1915576
  36.6943258  25.8325068  71.0220280  37.8063648  24.8096072  70.9275585
  33.1292168  19.0969301  73.3448837  32.7589955  18.5440342  74.0329742
  33.6251260  18.4927435  72.7923837  41.0159531  21.5540925  71.7265610
  41.4819983  22.3868916  71.6525912  41.4667031  21.0885906  72.4310868
  30.9581366  29.5566796  80.4403855  31.6590826  30.1903279  80.5933249
  30.4876481  29.8981528  79.6799494  39.0835762  27.8984746  68.7251762
  39.3595606  27.7841341  69.6345636  38.2140261  27.5002231  68.6863935
  38.9876194  13.9221512  75.7656511  38.0739273  14.1525739  75.9338718
  39.4169295  14.0059956  76.6170543  38.7582652  22.1111404  78.2656405
  38.1054102  22.3587311  77.6108858  39.1363032  21.2975542  77.9318882
  35.7189826  32.1471097  72.3684575  35.9012221  31.3292753  72.8312328
  36.5422812  32.3638789  71.9309465  36.0531992  31.0739282  69.6299624
  36.5819758  30.5631737  69.0169786  36.3160211  30.7581812  70.4945157
  34.8070225  22.8531215  84.7522442  34.1310862  22.7525344  85.4224817
  35.6297859  22.6970428  85.2158439  26.5549084  29.0903151  77.3734957
  27.1402521  28.3446839  77.5062862  26.3573923  29.4007108  78.2571621
  29.4087740  32.1254399  72.3897400  28.7398115  32.6100526  71.9061440
  29.2700609  32.3723619  73.3040778  21.1466739  21.6608751  76.0939401
  21.1850839  21.1272342  76.8876519  20.6407032  21.1343957  75.4750378
  33.5493008  34.1598142  78.9880058  34.1011316  34.3229764  79.7529143
  33.8899202  34.7502580  78.3160083  28.5257501  16.5073292  79.5901943
  28.5898828  17.3688123  79.1779341  28.4624622  15.8947294  78.8574301
  28.0009774  18.5796425  83.2374977  28.6281813  18.1973502  83.8512501
  27.1437693  18.3610626  83.6030670  38.4003882  28.9859400  84.8428713
  38.9443786  29.5989358  84.3483667  37.8190727  29.5438978  85.3595726
  24.7775317  20.3872854  69.1693332  25.0728758  19.4783532  69.1160386
  23.8763352  20.3660593  68.8474334  36.6861395  32.1080118  75.9743740
  36.5612535  31.3069858  75.4654686  37.3440486  32.6026311  75.4857710
  28.3069564  18.4628850  75.1520881  27.5856149  19.0764818  75.0128354
  29.0962819  18.9986615  75.0737526  38.7496304  29.9089138  77.6023290
  37.8026639  29.7894489  77.5301617  39.0979077  29.0211636  77.6849552
  31.1095877  15.7983277  81.4261532  31.6330279  16.0445573  82.1887842
  30.8908210  16.6303312  81.0064670  26.5063158  18.0686951  69.2932657
  26.1775864  17.1884330  69.1107763  26.8602529  18.0134620  70.1809046
  35.7542737  29.7041854  73.8027643  35.6067699  28.7758561  73.9835213
  36.5796231  29.7261945  73.3184718  29.6204981  18.3559921  69.6608135
  29.9601054  18.8845842  68.9386743  30.0677102  18.6940327  70.4366701
  39.3576859  30.5270413  74.8892515  40.2823406  30.3213274  74.7516966
  39.1892162  30.2786814  75.7981857  32.3148422  16.7396972  79.1111203
  31.9745243  15.9404785  79.5131883  31.6087428  17.0398683  78.5388036
  32.9664894  13.8246284  77.5638526  33.7890963  13.3506762  77.4417416
  33.2102958  14.6036768  78.0637212  31.6073128  16.8534543  67.8601428
  32.3281491  17.2315795  67.3565144  30.9838433  17.5723419  67.9636405
  35.7504251  17.5579692  68.7959760  35.9667866  18.4404330  68.4948588
  35.2698319  17.1665905  68.0665402  30.4903473  20.5165405  75.3730504
  30.3448053  20.8305708  76.2654786  30.0128676  21.1350305  74.8201403
  32.3499856  17.5067953  75.4211394  32.3361424  16.6109046  75.0843692
  33.0672284  17.5138617  76.0549680  34.2025986  17.9405293  77.4664521
  33.9443764  18.8622364  77.4648852  33.6711027  17.5435728  78.1564986
  39.1472175  31.0456080  70.2454607  39.3209053  30.4802503  69.4928459
  39.6401066  31.8456975  70.0634097  24.9649135  23.0570749  78.3118166
  24.4202603  23.8330557  78.4438440  25.8428485  23.4041554  78.1537287
  31.7536752  16.3882333  70.6898964  31.8752663  15.4598979  70.8889852
  31.4638794  16.4021019  69.7777280  34.6227942  14.0737244  73.8265684
  34.6449639  14.1376577  72.8717664  35.0396001  13.2341752  74.0206190
  45.0011566  23.8092503  71.8644907  45.4442712  23.0599828  71.4664030
  44.1238077  23.8002639  71.4818639  40.1347348  30.3622845  67.3451505
  40.8298252  30.9829537  67.5638820  40.4770498  29.5118196  67.6203883
  25.7515157  22.1840646  81.2048322  25.0096893  22.3323281  81.7912953
  25.4307901  22.4448911  80.3415072  42.0338771  27.8122550  68.8738836
  42.5590095  28.1509823  68.1488156  41.9461123  26.8769565  68.6901970
  33.6958819  31.7256624  81.0028712  34.0045946  31.4805771  81.8751412
  34.4934301  31.9303262  80.5147583  33.7179431  33.8794533  73.2334089
  33.2784422  33.3870912  73.9266946  34.4687548  33.3367501  72.9926164
  26.1971770  30.0706074  73.2358717  27.0229790  29.7709846  72.8557361
  25.8465822  29.3013697  73.6848506  31.1653304  29.4232542  75.3056391
  30.5433313  28.7603248  75.0058619  31.8358171  29.4493674  74.6230038
  24.3980375  27.9892401  74.1947651  23.5612284  27.5614575  74.0131652
  24.3704021  28.1824844  75.1318442  31.2377831  17.9014331  84.8988897
  31.2865987  18.7776453  84.5166666  31.7800345  17.3591724  84.3260540
  41.7232677  28.4455454  84.1790034  40.9328220  28.4279593  83.6394533
  41.4866031  28.9843747  84.9339070  41.8430552  25.2947920  81.4922762
  41.8928557  25.1297928  82.4338285  41.7344475  24.4275179  81.1020643
  30.7266811  27.9736466  68.7814851  30.8754931  28.6571930  68.1281524
  31.5333254  27.9541556  69.2964307  39.1334314  21.2778848  82.8082069
  40.0344177  21.1385313  82.5166067  39.2082289  21.4433303  83.7480246
  33.4677120  18.6545703  81.6535255  32.5980429  18.9479269  81.3817844
  33.7036600  19.2386148  82.3742519  43.3448749  27.7144862  81.7364784
  43.0533557  28.0774842  82.5728245  42.7320880  27.0011870  81.5578116
  44.5444431  25.2797741  74.2567354  45.3791322  25.7187545  74.4204914
  44.6803560  24.8036395  73.4375600  41.5935937  22.8377476  80.2044842
  42.0690058  23.0305123  79.3963693  40.6701502  22.8936662  79.9588226
  28.4819444  24.0001643  69.7875920  28.2365485  23.0963973  69.9856130
  28.6515358  24.0018794  68.8455398  36.1716153  14.8725320  79.1700676
  36.6898097  15.6086347  78.8447164  35.8171286  15.1789313  80.0047435
  27.7515091  19.7330001  67.2862082  27.0584336  19.8074356  66.6302118
  27.5066843  18.9690345  67.8083599  36.4228748  11.2925602  74.6901572
  36.7030501  10.6248791  75.3161999  37.2079354  11.4854698  74.1776236
  34.2262216  30.4684596  66.2526599  33.6536183  31.0874783  65.7997071
  34.7995010  31.0183958  66.7866521  40.2937606  19.7143236  78.4373147
  41.2455029  19.8141334  78.4585372  40.1241056  18.9221505  78.9471232
  38.3151985  16.7998820  78.6232548  37.7201917  17.0803832  77.9279037
  38.0301682  17.2892721  79.3949290  37.4459476  30.7521746  67.3835181
  38.3790149  30.6867308  67.5868056  37.3582689  31.5878013  66.9249714
  40.0747493  30.0687617  64.3439129  39.9961124  29.7347480  65.2374886
  40.8957159  30.5609385  64.3430601  42.7725684  22.9349356  77.5515447
  42.7402004  21.9965357  77.7375131  43.3826307  23.0133393  76.8181272
  34.6109015  21.8045409  63.5942651  35.5568119  21.6751617  63.6631069
  34.2323260  21.0660071  64.0712079  42.9220172  19.7260399  77.5973730
  42.4059221  18.9418856  77.4103659  43.8060121  19.3979116  77.7620250
  40.5830899  13.4701415  73.5569543  40.3855720  13.1616503  74.4412875
  41.1930605  14.1963054  73.6867473  48.5902234  23.9965363  76.6921484
  49.3205622  23.7350651  77.2529187  47.9809179  23.2594085  76.7323552
  46.6717531  22.1373225  77.2895935  45.9450694  22.0029190  76.6812427
  46.2564818  22.4450054  78.0952653  34.4947707  25.8563155  85.0543308
  35.4150717  26.0341754  85.2483355  34.4597290  24.9119201  84.9023007
  32.7951932  19.7295385  63.5297536  31.8883387  19.4328498  63.6060250
  33.0727913  19.4325204  62.6631823  23.7129872  21.0501749  73.9796583
  23.3932656  20.1967057  73.6870957  23.1663300  21.2650327  74.7354550
  27.4909780  23.7664190  77.6966089  27.7095789  24.6981298  77.7154123
  27.9035553  23.4072164  78.4820893  34.4113997  14.2732275  69.6841778
  33.6014726  13.9279360  70.0597024  35.0998414  13.9639819  70.2729389
  36.3404546  13.3510322  71.3066074  36.8935584  13.7705775  71.9656097
  36.5774632  12.4246070  71.3489030  32.3637645  19.3397396  87.0868838
  32.2634372  20.2891753  87.0180929  32.1459187  19.0115634  86.2144908
  31.5650716  16.5882321  63.6709516  32.4269880  16.9137219  63.9305333
  31.7501060  15.8013817  63.1582581  23.5818132  24.6704660  75.9489704
  22.8881604  24.2558613  75.4359659  24.3291123  24.7125197  75.3523123
  39.7183353  15.4610847  70.8144739  39.1382022  16.1195651  70.4322791
  39.4519285  14.6388192  70.4032156  38.1686919  14.8615905  73.0166059
  38.6686698  14.9732439  72.2080378  38.8122527  14.5576958  73.6566867
  32.2268915  22.7694534  85.9033900  31.7435997  23.5694895  86.1097789
  32.3129854  22.7802479  84.9501344  25.4954875  24.6022914  73.8255719
  25.4725563  24.7010601  72.8737602  25.8055511  25.4488065  74.1472885
  28.1542252  26.6599069  77.9402334  29.1085506  26.6283011  77.8732265
  27.9554776  26.1989693  78.7552560  28.7441635  25.2300185  80.5073131
  29.5634524  25.7244264  80.5307969  29.0178442  24.3132153  80.4790699
  38.5008231  17.6210937  69.8701087  37.6134086  17.9060588  69.6521282
  38.9162220  17.4604701  69.0228364  41.8522767  17.6457458  73.5855426
  42.6283157  18.1353911  73.8580043  41.1270901  18.0715513  74.0427296
  44.2895326  18.3585078  74.6429367  44.8839816  18.1180814  73.9322675
  44.3621909  17.6392208  75.2702903  26.5092481  32.2018689  74.9572532
  26.3746949  31.4419089  74.3910530  26.0924544  32.9259588  74.4901320
  37.6451444  27.3855612  63.9649107  38.3487294  27.5905615  64.5806762
  36.9214093  27.9532374  64.2298190  38.4749255  23.1365473  70.0851377
  38.4184456  23.5934025  69.2459009  39.0277597  22.3756158  69.9074220
  42.2854060  18.9255205  70.9101497  42.0290995  18.5251841  71.7409704
  41.6606929  19.6398999  70.7851636  46.5966398  21.6651279  73.4172788
  46.0365956  21.7344468  74.1904350  45.9909902  21.4892263  72.6972284
  29.6661607  33.0988006  75.1690974  29.5493991  34.0433438  75.0669664
  28.8454053  32.7961567  75.5576773  39.5538142  27.8238141  66.0147567
  40.3883746  27.3919340  65.8325042  39.3922485  27.6520155  66.9424461
  39.2084034  24.3270255  67.3803906  39.1532838  24.1614526  66.4392350
  38.5830089  25.0346288  67.5366096  23.9976549  19.5638319  81.2065328
  24.6435412  19.0537273  81.6952554  23.7893700  20.3007001  81.7808754
  36.5229941  26.6319167  86.7057469  37.3921101  26.8059819  86.3444104
  36.0436693  27.4513583  86.5833198  32.5180159  13.8278364  66.9589225
  32.5058829  14.7720204  67.1157495  33.4103581  13.6448509  66.6648686
  30.6916121  33.7516268  78.3846903  31.5943368  33.7839878  78.7013398
  30.4653491  32.8216718  78.3993238  32.4469723  32.5047254  75.0456981
  31.4965354  32.5049116  74.9321354  32.7502209  31.7579989  74.5293016
  36.3332279  10.4221140  71.2135161  35.5664675   9.8679627  71.3591844
  36.7442984  10.4943009  72.0749313  28.3374040  16.7105936  85.3040343
  29.2005501  16.3542741  85.5143667  27.7639451  16.3719831  85.9915747
  48.1822417  38.3407792  76.1102744  48.8200827  38.2214540  75.4066084
  48.0643260  39.2888636  76.1690696  44.9912123  38.2935221  76.0464268
  44.6530635  38.1776285  75.1584803  45.8601891  37.8926386  76.0265274
  45.4731906  39.4470072  82.0050474  45.4620547  39.0522871  81.1330978
  45.6352546  38.7136145  82.5984245  42.1939167  42.2307184  80.9529658
  41.9029033  43.1352815  80.8376324  42.8296152  42.2723712  81.6673727
  43.1195374  39.6084033  77.5431017  43.7158946  39.3840055  76.8287980
  43.1770346  38.8668778  78.1456465  42.6920402  37.0623468  65.3781208
  42.9445923  36.5404989  64.6164671  41.7544962  36.8989613  65.4807892
  47.7363685  36.0659246  73.1855952  48.5226775  35.6478669  72.8346369
  48.0002390  36.9705338  73.3537600  53.1372112  36.0034480  74.0888930
  53.8697284  35.4333696  74.3226760  52.3811468  35.6156080  74.5295436
  50.6597533  29.7156054  78.5483539  50.3280858  30.5851465  78.3244754
  50.0643146  29.3992338  79.2277569  44.3953719  33.4551621  66.2813621
  44.5628121  34.3231857  66.6484092  44.2050888  33.6178902  65.3574910
  47.1529052  41.9168600  77.9479452  46.8529775  42.8193638  77.8395259
  46.8080112  41.6500783  78.8000604  40.6041534  38.3682396  73.9816156
  39.6792030  38.2358611  74.1893848  40.8525947  39.1476616  74.4786098
  50.5526196  34.4351140  75.6276889  49.6443073  34.3666548  75.3335650
  50.5013792  34.9123085  76.4558714  44.3742940  35.9109278  67.2660288
  44.2542565  36.3566329  68.1045768  43.6795528  36.2594596  66.7073826
  37.9650345  38.0115670  74.8159945  38.0942726  38.2650149  75.7299357
  37.2847796  38.6043378  74.4964600  44.6267062  35.8540785  83.5711786
  43.8500396  36.4134706  83.5614651  45.2657625  36.3397568  84.0926656
  52.4187842  32.6367578  77.4054763  51.7762223  32.9300111  76.7594557
  51.9142771  32.5220499  78.2107959  50.0728006  36.3830751  68.0940622
  50.9845862  36.6158138  67.9188320  49.5637653  36.9667796  67.5315701
  42.8813434  38.6626239  83.1329753  43.6228119  39.2011283  82.8564577
  42.1750420  39.2892527  83.2901305  48.3568774  40.8055379  81.7301915
  48.7652130  40.3637790  80.9856547  47.6346035  40.2308007  81.9836108
  44.7099844  35.7427986  79.1035472  45.5561039  36.1667400  79.2470121
  44.6498482  35.0861610  79.7974035  47.8599289  33.4032354  80.7616645
  47.6160221  34.1574415  80.2250921  48.1359220  33.7817702  81.5963892
  49.8137752  39.9470967  79.4393911  50.0254647  40.5902727  78.7628292
  49.7667500  39.1133283  78.9715841  47.4163981  32.5588787  76.3430483
  46.5548460  32.8570041  76.6347221  47.4426416  32.7759186  75.4111516
  41.1249631  40.6502459  75.6884052  41.6950988  41.0789728  75.0501536
  41.7157743  40.3685044  76.3868238  43.1694436  37.2254130  69.5593854
  43.8718480  37.6775174  70.0267780  42.8375065  36.5837949  70.1873747
  41.6174798  35.8165887  83.9345063  40.9873458  36.4982168  84.1680460
  41.5110886  35.7048969  82.9898201  36.9119770  35.4837683  74.8610987
  36.1218824  35.7395211  74.3851098  37.4031018  36.2986021  74.9663028
  50.9283580  42.8242922  77.6116268  51.7501024  42.4223109  77.3298950
  50.9245983  42.7211156  78.5632384  38.8634516  35.8482262  71.8194464
  38.0665679  35.9600956  72.3377960  38.6360108  36.1868914  70.9535355
  44.6940183  42.3726965  79.7676979  44.7584616  42.8347373  80.6035150
  43.9851107  41.7424330  79.8959288  35.1957473  35.7368173  77.2925978
  35.4465512  36.6215183  77.5583554  35.7317022  35.5572775  76.5201070
  59.0189573  39.1681671  73.9601240  58.2653281  38.5989069  73.8045244
  59.1537114  39.1344335  74.9071874  40.8955541  30.1186653  86.2970314
  40.5022486  29.5652851  86.9717958  41.7121681  30.4297231  86.6876832
  43.8123502  31.5344532  83.8890571  44.5533215  32.1351685  83.8095033
  44.0441424  30.7922170  83.3308613  38.9564840  36.7200899  82.1668800
  38.8418355  35.8186156  82.4675899  38.1009357  36.9664596  81.8153617
  46.0356677  44.6618639  83.7656301  45.5920532  43.8755018  83.4477206
  46.6973891  44.8497790  83.1000192  48.1337915  44.9421439  81.7937702
  48.1156391  45.7630320  81.3017971  49.0557835  44.8175515  82.0187843
  44.5910970  42.4565569  82.6361211  45.1239306  41.6953857  82.4060519
  44.0625051  42.1639221  83.3785365  47.7580665  27.5625635  78.1654852
  47.4144934  28.4527276  78.0893963  48.1259627  27.3727292  77.3024437
  47.7230947  37.5534246  66.6727288  47.2077571  38.3238851  66.9115675
  47.4508256  36.8799382  67.2960349  45.3078058  32.3983947  71.7312526
  44.4519655  32.0090797  71.5518165  45.7205010  32.4775907  70.8712311
  46.8377205  29.9330290  76.1304086  46.3342001  29.8960425  75.3171891
  47.1307812  30.8423033  76.1900742  43.0820091  30.0169020  75.1370267
  43.9473088  29.8211828  74.7776157  43.1497600  29.7879371  76.0639624
  47.5117250  35.4261338  68.4987069  47.2067386  35.7407487  69.3497212
  48.4647693  35.5042758  68.5414402  50.9356528  39.7800582  75.2647069
  50.2780203  40.4699843  75.3527198  51.7396928  40.1697014  75.6081055
  40.6882410  32.2471228  72.5086634  41.2626162  32.0246409  71.7759827
  41.2753392  32.3159922  73.2615236  49.7461987  38.1344954  73.3151011
  50.2593869  38.7674946  73.8172720  50.3963211  37.5346150  72.9494371
  41.0151997  34.2775689  66.5282519  40.1789309  34.6150375  66.8491794
  40.8756767  34.1424668  65.5909656  42.9905078  29.1212476  71.2361704
  42.3369490  28.8061494  70.6118318  42.9485552  28.4988217  71.9621527
  44.1016282  39.4031772  63.1514996  43.1943344  39.1721025  63.3506145
  44.5987314  38.6069391  63.3388977  46.2242818  35.6094410  75.5609351
  45.3065379  35.8309357  75.4031039  46.6402962  35.6840721  74.7021059
  47.0077866  37.0085826  70.6912032  47.7549685  37.5207223  70.3819154
  47.2769455  36.6869878  71.5516425  49.4556703  34.0442942  72.6730821
  48.7179460  33.5320328  73.0041063  49.7083476  33.6043324  71.8614098
  49.5568330  26.8219194  73.2672590  49.8627207  25.9616557  72.9798505
  50.2820935  27.4136814  73.0671584  35.8492686  37.2249881  71.6554188
  35.6517086  36.6319241  70.9305255  35.2939350  36.9202091  72.3730127
  43.8289410  37.1172987  73.7748781  43.8838020  36.1646823  73.6991258
  43.0180612  37.2732426  74.2590080  41.7681770  35.7350047  71.5339160
  40.9549635  36.0344217  71.9404352  42.2640764  35.3405736  72.2513642
  47.3655982  36.1991871  80.3654054  47.7205369  36.4263344  81.2248520
  48.0128113  36.5310248  79.7431309  53.0953719  39.3210307  71.0703383
  52.9571617  39.5111903  70.1424572  52.7389937  40.0829690  71.5271434
  41.2595845  33.3068402  77.1500395  41.8995224  33.1657161  76.4523358
  40.4273375  33.0202916  76.7738997  53.1223098  41.3886834  76.0814654
  53.5559605  41.2962123  76.9297708  53.8354679  41.3644335  75.4434670
  46.8550993  44.9888928  77.6147755  46.9088015  45.5579865  78.3825471
  45.9865774  45.1590813  77.2501792  38.3438912  36.7513914  69.3395140
  37.4136500  36.6898370  69.5565102  38.4396384  36.2289867  68.5431781
  38.2624461  33.2768727  71.9273382  38.5231278  34.1914061  71.8182542
  39.0841633  32.8093170  72.0769995  39.7349386  34.6906484  79.0972206
  40.4072440  34.4823847  78.4484855  38.9079173  34.4928570  78.6577439
  53.9838648  41.4310535  78.6147540  54.1774538  42.3356345  78.8606815
  53.8839266  40.9717954  79.4486125  45.6374958  31.3168425  81.1137867
  44.9902873  32.0158375  81.0202344  46.4075974  31.7504569  81.4814115
  49.0453756  41.5817278  84.1888420  48.8939263  41.3527829  83.2718504
  49.0358436  42.5387879  84.2019765  45.8139093  39.1549190  79.1734687
  46.7431153  39.3060350  79.0003654  45.3930123  39.2433211  78.3183333
  44.6127425  43.1799855  76.9433225  44.4738510  42.8118639  77.8159163
  43.8242021  43.6947494  76.7717182  40.1376884  37.9649087  79.8574643
  39.9996682  37.2329326  80.4586183  41.0481807  37.8757988  79.5758831
  42.7659184  37.6769047  79.3458323  43.4758803  37.0362239  79.3044942
  42.7228492  37.9281942  80.2684504  50.7545963  44.6136400  82.2664902
  50.6958509  43.9295620  81.5995485  51.1565481  45.3555390  81.8145528
  41.4788118  34.6634265  81.1653963  40.9425475  34.2125003  81.8175559
  40.8904827  34.7980173  80.4224427  40.8890377  34.1222916  63.7280426
  40.0119844  34.0011717  63.3642673  41.3648130  33.3308994  63.4759315
  50.7563370  42.5775984  80.4978882  49.8690149  42.2401906  80.6205281
  51.3261921  41.8459015  80.7347647  32.4092517  38.9100076  73.8221933
  33.0963557  38.5961806  73.2342949  32.2540646  39.8141440  73.5489185
  37.2127240  33.7990272  78.2506957  37.1285428  33.1915942  77.5157367
  36.3909946  34.2899291  78.2516453  47.3850953  32.2843836  73.6177152
  47.8819653  31.5313798  73.2978222  46.6137935  32.3208153  73.0520361
  55.2380711  37.9884201  75.2595444  55.2270587  38.8708917  74.8889377
  54.3698090  37.6355752  75.0649981  46.7463207  47.1364270  79.6198284
  47.4591179  47.7711735  79.5474185  46.2553236  47.2328136  78.8038286
  43.9685922  34.4261219  73.3448837  43.5983710  33.8732259  74.0329742
  44.4645015  33.8219352  72.7923837  51.8553285  36.8832842  71.7265610
  52.3213738  37.7160834  71.6525912  52.3060786  36.4177824  72.4310868
  41.7975121  44.8858714  80.4403855  42.4984580  45.5195197  80.5933249
  41.3270236  45.2273445  79.6799494  49.8269948  29.2513429  75.7656511
  48.9133028  29.4817656  75.9338718  50.2563050  29.3351873  76.6170543
  49.5976407  37.4403321  78.2656405  48.9447857  37.6879229  77.6108858
  49.9756787  36.6267460  77.9318882  45.6463980  38.1823132  84.7522442
  44.9704617  38.0817262  85.4224817  46.4691614  38.0262346  85.2158439
  37.3942839  44.4195069  77.3734957  37.9796276  43.6738757  77.5062862
  37.1967677  44.7299026  78.2571621  31.9860494  36.9900669  76.0939401
  32.0244593  36.4564260  76.8876519  31.4800786  36.4635875  75.4750378
  39.3651256  31.8365210  79.5901943  39.4292582  32.6980041  79.1779341
  39.3018376  31.2239211  78.8574301  38.8403528  33.9088342  83.2374977
  39.4675567  33.5265420  83.8512501  37.9831447  33.6902544  83.6030670
  49.2397637  44.3151317  84.8428713  49.7837541  44.9281276  84.3483667
  48.6584482  44.8730896  85.3595726  35.6169071  35.7164771  69.1693332
  35.9122512  34.8075450  69.1160386  34.7157107  35.6952511  68.8474334
  39.1463318  33.7920768  75.1520881  38.4249904  34.4056736  75.0128354
  39.9356574  34.3278533  75.0737526  49.5890058  45.2381055  77.6023290
  48.6420394  45.1186407  77.5301617  49.9372831  44.3503554  77.6849552
  41.9489632  31.1275194  81.4261532  42.4724033  31.3737491  82.1887842
  41.7301965  31.9595229  81.0064670  37.3456913  33.3978869  69.2932657
  37.0169619  32.5176248  69.1107763  37.6996283  33.3426538  70.1809046
  40.4598736  33.6851839  69.6608135  40.7994808  34.2137760  68.9386743
  40.9070856  34.0232245  70.4366701  43.1542177  32.0688889  79.1111203
  42.8138997  31.2696703  79.5131883  42.4481183  32.3690600  78.5388036
  43.8058648  29.1538202  77.5638526  44.6284718  28.6798680  77.4417416
  44.0496712  29.9328686  78.0637212  42.4466883  32.1826460  67.8601428
  43.1675245  32.5607713  67.3565144  41.8232187  32.9015337  67.9636405
  46.5898006  32.8871609  68.7959760  46.8061620  33.7696247  68.4948588
  46.1092073  32.4957823  68.0665402  41.3297227  35.8457323  75.3730504
  41.1841808  36.1597626  76.2654786  40.8522431  36.4642223  74.8201403
  43.1893610  32.8359871  75.4211394  43.1755179  31.9400964  75.0843692
  43.9066038  32.8430534  76.0549680  45.0419741  33.2697211  77.4664521
  44.7837519  34.1914281  77.4648852  44.5104781  32.8727645  78.1564986
  35.8042889  38.3862667  78.3118166  35.2596357  39.1622475  78.4438440
  36.6822239  38.7333471  78.1537287  42.5930506  31.7174251  70.6898964
  42.7146417  30.7890897  70.8889852  42.3032548  31.7312937  69.7777280
  45.4621696  29.4029161  73.8265684  45.4843393  29.4668494  72.8717664
  45.8789755  28.5633670  74.0206190  55.8405321  39.1384421  71.8644907
  56.2836467  38.3891746  71.4664030  54.9631831  39.1294557  71.4818639
  36.5908911  37.5132563  81.2048322  35.8490647  37.6615199  81.7912953
  36.2701656  37.7740829  80.3415072  44.5352574  47.0548541  81.0028712
  44.8439700  46.8097688  81.8751412  45.3328056  47.2595180  80.5147583
  35.2374130  43.3184318  74.1947651  34.4006038  42.8906493  74.0131652
  35.2097775  43.5116762  75.1318442  42.0771586  33.2306248  84.8988897
  42.1259741  34.1068371  84.5166666  42.6194100  32.6883641  84.3260540
  52.5626431  43.7747371  84.1790034  51.7721975  43.7571510  83.6394533
  52.3259786  44.3135665  84.9339070  52.6824306  40.6239838  81.4922762
  52.7322311  40.4589845  82.4338285  52.5738230  39.7567097  81.1020643
  49.9728069  36.6070766  82.8082069  50.8737931  36.4677231  82.5166067
  50.0476043  36.7725221  83.7480246  44.3070874  33.9837621  81.6535255
  43.4374183  34.2771187  81.3817844  44.5430354  34.5678066  82.3742519
  52.4329691  38.1669394  80.2044842  52.9083813  38.3597040  79.3963693
  51.5095257  38.2228580  79.9588226  47.0109908  30.2017238  79.1700676
  47.5291852  30.9378264  78.8447164  46.6565041  30.5081231  80.0047435
  38.5908846  35.0621919  67.2862082  37.8978090  35.1366274  66.6302118
  38.3460597  34.2982262  67.8083599  47.2622502  26.6217520  74.6901572
  47.5424256  25.9540709  75.3161999  48.0473109  26.8146616  74.1776236
  51.1331360  35.0435154  78.4373147  52.0848783  35.1433252  78.4585372
  50.9634811  34.2513423  78.9471232  49.1545740  32.1290737  78.6232548
  48.5595672  32.4095750  77.9279037  48.8695437  32.6184638  79.3949290
  53.6119438  38.2641274  77.5515447  53.5795758  37.3257274  77.7375131
  54.2220062  38.3425310  76.8181272  45.4502769  37.1337327  63.5942651
  46.3961874  37.0043535  63.6631069  45.0717014  36.3951989  64.0712079
  53.7613927  35.0552317  77.5973730  53.2452975  34.2710774  77.4103659
  54.6453875  34.7271034  77.7620250  51.4224654  28.7993333  73.5569543
  51.2249475  28.4908421  74.4412875  52.0324359  29.5254972  73.6867473
  59.4295988  39.3257281  76.6921484  60.1599377  39.0642569  77.2529187
  58.8202934  38.5886003  76.7323552  57.5111285  37.4665143  77.2895935
  56.7844449  37.3321108  76.6812427  57.0958572  37.7741972  78.0952653
  45.3341462  41.1855073  85.0543308  46.2544471  41.3633672  85.2483355
  45.2991045  40.2411118  84.9023007  43.6345686  35.0587303  63.5297536
  42.7277142  34.7620416  63.6060250  43.9121667  34.7617121  62.6631823
  34.5523627  36.3793667  73.9796583  34.2326411  35.5258975  73.6870957
  34.0057055  36.5942245  74.7354550  38.3303534  39.0956108  77.6966089
  38.5489544  40.0273215  77.7154123  38.7429308  38.7364082  78.4820893
  45.2507752  29.6024193  69.6841778  44.4408480  29.2571278  70.0597024
  45.9392169  29.2931737  70.2729389  47.1798300  28.6802240  71.3066074
  47.7329339  29.0997693  71.9656097  47.4168387  27.7537988  71.3489030
  43.2031399  34.6689313  87.0868838  43.1028126  35.6183670  87.0180929
  42.9852941  34.3407552  86.2144908  42.4044471  31.9174238  63.6709516
  43.2663635  32.2429137  63.9305333  42.5894815  31.1305734  63.1582581
  34.4211887  39.9996578  75.9489704  33.7275358  39.5850531  75.4359659
  35.1684878  40.0417115  75.3523123  50.5577107  30.7902765  70.8144739
  49.9775776  31.4487569  70.4322791  50.2913040  29.9680109  70.4032156
  49.0080674  30.1907822  73.0166059  49.5080452  30.3024357  72.2080378
  49.6516282  29.8868875  73.6566867  43.0662669  38.0986452  85.9033900
  42.5829751  38.8986812  86.1097789  43.1523609  38.1094397  84.9501344
  36.3348629  39.9314832  73.8255719  36.3119317  40.0302519  72.8737602
  36.6449266  40.7779983  74.1472885  38.9936007  41.9890987  77.9402334
  39.9479261  41.9574929  77.8732265  38.7948531  41.5281611  78.7552560
  39.5835389  40.5592103  80.5073131  40.4028278  41.0536182  80.5307969
  39.8572197  39.6424071  80.4790699  49.3401985  32.9502855  69.8701087
  48.4527840  33.2352506  69.6521282  49.7555974  32.7896619  69.0228364
  52.6916521  32.9749376  73.5855426  53.4676912  33.4645829  73.8580043
  51.9664656  33.4007430  74.0427296  55.1289080  33.6876995  74.6429367
  55.7233571  33.4472731  73.9322675  55.2015664  32.9684126  75.2702903
  49.3143009  38.4657391  70.0851377  49.2578210  38.9225943  69.2459009
  49.8671352  37.7048076  69.9074220  53.1247815  34.2547123  70.9101497
  52.8684749  33.8543759  71.7409704  52.5000683  34.9690917  70.7851636
  57.4360153  36.9943196  73.4172788  56.8759711  37.0636386  74.1904350
  56.8303656  36.8184181  72.6972284  34.8370303  34.8930237  81.2065328
  35.4829167  34.3829191  81.6952554  34.6287454  35.6298918  81.7808754
  47.3623696  41.9611084  86.7057469  48.2314855  42.1351736  86.3444104
  46.8830447  42.7805501  86.5833198  43.3573914  29.1570281  66.9589225
  43.3452584  30.1012121  67.1157495  44.2497336  28.9740427  66.6648686
  47.1726033  25.7513058  71.2135161  46.4058429  25.1971545  71.3591844
  47.5836738  25.8234927  72.0749313  39.1767794  32.0397854  85.3040343
  40.0399256  31.6834659  85.5143667  38.6033205  31.7011749  85.9915747
  51.7349295  45.4478570  86.2970314  51.3416241  44.8944769  86.9717958
  52.5515435  45.7589149  86.6876832  55.4304724  57.7857487  82.6361211
  55.9633061  57.0245775  82.4060519  54.9018805  57.4931138  83.3785365
  58.5974419  42.8917552  78.1654852  58.2538688  43.7819194  78.0893963
  58.9653382  42.7019210  77.3024437  60.3962085  42.1511112  73.2672590
  60.7020962  41.2908475  72.9798505  61.1214690  42.7428732  73.0671584
  64.8232402  56.7602452  78.6147540  65.0168292  57.6648263  78.8606815
  64.7233020  56.3009872  79.4486125  59.8847511  56.9109195  84.1888420
  59.7333017  56.6819747  83.2718504  59.8752190  57.8679797  84.2019765
  61.5957125  57.9067902  80.4978882  60.7083904  57.5693824  80.6205281
  62.1655676  57.1750933  80.7347647  52.6368875  60.2150632  80.4403855
  53.3378335  60.8487115  80.5933249  52.1663990  60.5565363  79.6799494
  56.4857734  53.5115050  84.7522442  55.8098371  53.4109179  85.4224817
  57.3085368  53.3554264  85.2158439  49.6797283  49.2380260  83.2374977
  50.3069322  48.8557337  83.8512501  48.8225202  49.0194462  83.6030670
  52.9165340  48.5598166  84.8988897  52.9653496  49.4360289  84.5166666
  53.4587854  48.0175559  84.3260540  63.4020186  59.1039289  84.1790034
  62.6115729  59.0863428  83.6394533  63.1653540  59.6427583  84.9339070
  63.5218061  55.9531755  81.4922762  63.5716066  55.7881763  82.4338285
  63.4131984  55.0859015  81.1020643  65.0236258  58.3728697  81.7364784
  64.7321066  58.7358678  82.5728245  64.4108389  57.6595705  81.5578116
  70.2689743  54.6549198  76.6921484  70.9993131  54.3934486  77.2529187
  69.6596688  53.9177920  76.7323552  56.1735216  56.5146991  85.0543308
  57.0938226  56.6925590  85.2483355  56.1384799  55.5703036  84.9023007
  54.0425154  49.9981231  87.0868838  53.9421881  50.9475588  87.0180929
  53.8246696  49.6699470  86.2144908  53.9056424  53.4278370  85.9033900
  53.4223506  54.2278730  86.1097789  53.9917363  53.4386315  84.9501344
  58.2017450  57.2903002  86.7057469  59.0708610  57.4643654  86.3444104
  57.7224202  58.1097419  86.5833198  50.0161549  47.3689771  85.3040343
  50.8793010  47.0126576  85.5143667  49.4426959  47.0303666  85.9915747
  68.1086006  74.4725500  67.3475624  67.4573986  75.0579580  66.9609638
  68.9030369  75.0031695  67.4070662  63.8137341  79.3396755  70.9150419
  63.7361371  80.2904580  70.9938900  63.2098985  78.9942628  71.5725346
  74.2374329  72.9594843  72.8398567  73.5525367  73.3393744  72.2895601
  74.3218179  73.5690170  73.5730515  71.4925261  70.6054802  79.4393911
  71.7042156  71.2486562  78.7628292  71.4455009  69.7717119  78.9715841
  72.6071089  73.4826757  77.6116268  73.4288533  73.0806945  77.3298950
  72.6033492  73.3794992  78.5632384  80.6977082  69.8265506  73.9601240
  79.9440790  69.2572904  73.8045244  80.8324623  69.7928170  74.9071874
  66.0875710  74.6978908  69.6355959  65.9521385  75.5430444  70.0640807
  66.6285522  74.8998186  68.8721893  69.4368174  58.2209470  78.1654852
  69.0932443  59.1111112  78.0893963  69.8047136  58.0311128  77.3024437
  74.3752730  70.9650436  68.6080461  73.5982173  70.6261595  68.1635623
  75.0544211  70.9703059  67.9335426  68.6871870  78.7713114  66.0711682
  68.0133569  79.0744811  66.6796640  69.0737692  79.5742194  65.7217139
  72.1911292  73.7734791  71.4430153  71.7373619  72.9325701  71.4995344
  71.5605259  74.4096190  71.7804934  70.6344232  75.6111288  72.3779972
  70.9267206  76.1716345  71.6592337  71.1442852  75.9039849  73.1333131
  71.2355839  57.4803029  73.2672590  71.5414716  56.6200393  72.9798505
  71.9608444  58.0720650  73.0671584  69.0443491  66.8575707  80.3654054
  69.3992878  67.0847180  81.2248520  69.6915622  67.1894083  79.7431309
  74.7741227  69.9794143  71.0703383  74.6359126  70.1695738  70.1424572
  74.4177446  70.7413525  71.5271434  74.8010607  72.0470670  76.0814654
  75.2347114  71.9545959  76.9297708  75.5142188  72.0228170  75.4434670
  75.6626157  72.0894370  78.6147540  75.8562047  72.9940181  78.8606815
  75.5626775  71.6301789  79.4486125  66.8863085  78.9392787  68.2858761
  67.0614841  78.4680830  69.1004384  66.1995874  79.5658553  68.5140022
  65.7541812  77.1333042  70.9742947  64.9709334  77.6754722  71.0681171
  66.4534557  77.6507021  71.3737188  76.9168220  68.6468037  75.2595444
  76.9058096  69.5292752  74.8889377  76.0485599  68.2939588  75.0649981
  73.5340794  67.5416678  71.7265610  74.0001247  68.3744669  71.6525912
  73.9848295  67.0761659  72.4310868  71.6017026  73.8860499  68.7251762
  71.8776869  73.7717094  69.6345636  70.7321524  73.4877984  68.6863935
  71.2763916  68.0987157  78.2656405  70.6235366  68.3463064  77.6108858
  71.6544296  67.2851295  77.9318882  68.2371090  78.1346850  72.3684575
  68.4193484  77.3168506  72.8312328  69.0604076  78.3514542  71.9309465
  68.5713255  77.0615035  69.6299624  69.1001021  76.5507490  69.0169786
  68.8341475  76.7457565  70.4945157  61.9269003  78.1130152  72.3897400
  61.2579378  78.5976279  71.9061440  61.7881873  78.3599372  73.3040778
  71.8758122  76.5146166  74.8892515  72.8004670  76.3089027  74.7516966
  71.7073426  76.2662567  75.7981857  71.6653439  77.0331833  70.2454607
  71.8390316  76.4678256  69.4928459  72.1582330  77.8332728  70.0634097
  72.6528611  76.3498598  67.3451505  73.3479516  76.9705290  67.5638820
  72.9951761  75.4993949  67.6203883  74.5520034  73.7998303  68.8738836
  75.0771358  74.1385576  68.1488156  74.4642387  72.8645318  68.6901970
  77.0625694  71.2673494  74.2567354  77.8972586  71.7063299  74.4204914
  77.1984823  70.7912148  73.4375600  74.1117200  68.8253229  80.2044842
  74.5871322  69.0180876  79.3963693  73.1882766  68.8812415  79.9588226
  68.6897417  60.8601073  79.1700676  69.2079361  61.5962100  78.8447164
  68.3352550  61.1665066  80.0047435  66.7443480  76.4560349  66.2526599
  66.1717447  77.0750536  65.7997071  67.3176273  77.0059711  66.7866521
  70.8333249  62.7874573  78.6232548  70.2383181  63.0679585  77.9279037
  70.5482946  63.2768474  79.3949290  69.9640739  76.7397499  67.3835181
  70.8971412  76.6743061  67.5868056  69.8763952  77.5753766  66.9249714
  72.5928756  76.0563370  64.3439129  72.5142388  75.7223233  65.2374886
  73.4138423  76.5485138  64.3430601  75.2906947  68.9225109  77.5515447
  75.2583267  67.9841110  77.7375131  75.9007571  69.0009146  76.8181272
  81.1083497  69.9841116  76.6921484  81.8386885  69.7226404  77.2529187
  80.4990442  69.2469838  76.7323552  79.1898794  68.1248979  77.2895935
  78.4631958  67.9904943  76.6812427  78.7746081  68.4325807  78.0952653
  79.1147662  67.6527032  73.4172788  78.5547220  67.7220221  74.1904350
  78.5091165  67.4768016  72.6972284  72.0719405  73.8113894  66.0147567
  72.9065009  73.3795093  65.8325042  71.9103748  73.6395908  66.9424461
  80.7003680  84.3283545  76.1102744  81.3382090  84.2090293  75.4066084
  80.5824523  85.2764389  76.1690696  77.5093387  84.2810974  76.0464268
  77.1711898  84.1652038  75.1584803  78.3783155  83.8802139  76.0265274
  73.3680202  86.1346450  72.0361159  72.8045067  86.0436387  71.2677447
  73.2532597  85.3146354  72.5163652  77.9913170  85.4345825  82.0050474
  77.9801810  85.0398624  81.1330978  78.1533809  84.7011898  82.5984245
  70.9144634  87.6297642  74.8745380  71.7065926  87.2888466  74.4591679
  71.1541284  87.7392617  75.7947533  78.9479761  89.8017418  67.3475624
  78.2967741  90.3871498  66.9609638  79.7424124  90.3323613  67.4070662
  72.8735388  86.8906555  67.7462759  73.6466264  86.3435542  67.6075634
  73.2260787  87.7550804  67.9577220  74.7120431  88.2182937  80.9529658
  74.4210297  89.1228568  80.8376324  75.3477415  88.2599465  81.6673727
  75.6376638  85.5959786  77.5431017  76.2340210  85.3715808  76.8287980
  75.6951609  84.8544531  78.1456465  75.2101666  83.0499221  65.3781208
  75.4627187  82.5280742  64.6164671  74.2726225  82.8865366  65.4807892
  80.2544949  82.0534999  73.1855952  81.0408038  81.6354423  72.8346369
  80.5183653  82.9581092  73.3537600  80.4255026  87.4907850  67.8844608
  79.7900859  87.5642476  68.5965513  80.0952433  88.0801448  67.2063688
  85.6553376  81.9910233  74.0888930  86.3878548  81.4209449  74.3226760
  84.8992732  81.6031833  74.5295436  74.9297955  84.9527327  67.5805583
  74.8134213  84.2772230  68.2486668  75.0400215  84.4659701  66.7637736
  77.2729496  84.4137474  71.2852273  76.9087703  83.8868095  71.9965194
  78.1296612  84.0235943  71.1118758  83.1778796  75.7031807  78.5483539
  82.8462121  76.5727218  78.3244754  82.5824410  75.3868091  79.2277569
  76.9134983  79.4427374  66.2813621  77.0809385  80.3107610  66.6484092
  76.7232152  79.6054655  65.3574910  79.6710316  87.9044353  77.9479452
  79.3711039  88.8069391  77.8395259  79.3261375  87.6376536  78.8000604
  73.1222797  84.3558149  73.9816156  72.1973294  84.2234364  74.1893848
  73.3707210  85.1352369  74.4786098  83.0707460  80.4226893  75.6276889
  82.1624337  80.3542301  75.3335650  83.0195055  80.8998838  76.4558714
  76.8924203  81.8985031  67.2660288  76.7723829  82.3442082  68.1045768
  76.1976792  82.2470349  66.7073826  70.4831608  83.9991423  74.8159945
  70.6123989  84.2525902  75.7299357  69.8029060  84.5919131  74.4964600
  74.6531096  94.6688673  70.9150419  74.5755125  95.6196498  70.9938900
  74.0492739  94.3234545  71.5725346  77.1448325  81.8416538  83.5711786
  76.3681659  82.4010459  83.5614651  77.7838888  82.3273321  84.0926656
  84.9369106  78.6243331  77.4054763  84.2943486  78.9175864  76.7594557
  84.4324034  78.5096252  78.2107959  82.5909270  82.3706504  68.0940622
  83.5027126  82.6033891  67.9188320  82.0818917  82.9543549  67.5315701
  75.3994698  84.6501992  83.1329753  76.1409382  85.1887036  82.8564577
  74.6931683  85.2768281  83.2901305  80.8750037  86.7931132  81.7301915
  81.2833393  86.3513543  80.9856547  80.1527299  86.2183760  81.9836108
  77.2281107  81.7303739  79.1035472  78.0742303  82.1543153  79.2470121
  77.1679745  81.0737363  79.7974035  81.1978852  87.3532323  75.4854203
  80.5687714  87.5178037  74.7830271  80.8104514  87.7673932  76.2565168
  85.0768084  88.2886761  72.8398567  84.3919122  88.6685662  72.2895601
  85.1611933  88.8982087  73.5730515  80.3780553  79.3908107  80.7616645
  80.1341485  80.1450168  80.2250921  80.6540483  79.7693455  81.5963892
  82.3319015  85.9346720  79.4393911  82.5435911  86.5778480  78.7628292
  82.2848764  85.1009036  78.9715841  79.9345244  78.5464540  76.3430483
  79.0729723  78.8445794  76.6347221  79.9607679  78.7634939  75.4111516
  76.7506814  87.0906731  72.7504289  77.2145159  87.3694434  71.9608911
  76.4863612  86.1890176  72.5677379  73.6430895  86.6378212  75.6884052
  74.2132252  87.0665481  75.0501536  74.2339007  86.3560797  76.3868238
  75.6875700  83.2129883  69.5593854  76.3899743  83.6650927  70.0267780
  75.3556328  82.5713702  70.1873747  69.4301034  81.4713436  74.8610987
  68.6400088  81.7270965  74.3851098  69.9212281  82.2861774  74.9663028
  83.4464843  88.8118675  77.6116268  84.2682287  88.4098862  77.3298950
  83.4427246  88.7086909  78.5632384  71.3815779  81.8358015  71.8194464
  70.5846942  81.9476709  72.3377960  71.1541371  82.1744667  70.9535355
  77.2121447  88.3602718  79.7676979  77.2765879  88.8223126  80.6035150
  76.5032371  87.7300083  79.8959288  91.5370836  85.1557424  73.9601240
  90.7834545  84.5864822  73.8045244  91.6718378  85.1220088  74.9071874
  76.9269464  90.0270826  69.6355959  76.7915139  90.8722362  70.0640807
  77.4679277  90.2290104  68.8721893  70.3798862  87.5446264  70.2083884
  70.8923382  88.3389514  70.3589449  71.0321575  86.8472554  70.1417486
  72.1893747  90.6612020  72.2906637  72.3660375  91.5829985  72.1027621
  72.9850580  90.3470439  72.7201017  76.3304765  77.5220285  83.8890571
  77.0714478  78.1227438  83.8095033  76.5622688  76.7797923  83.3308613
  78.5537941  90.6494392  83.7656301  78.1101795  89.8630771  83.4477206
  79.2155154  90.8373543  83.1000192  73.3125062  92.1790194  78.2916980
  73.8632487  92.0507257  77.5193973  72.4736538  92.4785083  77.9411872
  80.6519179  90.9297192  81.7937702  80.6337654  91.7506073  81.3017971
  81.5739099  90.8051268  82.0187843  77.1092233  88.4441322  82.6361211
  77.6420570  87.6829610  82.4060519  76.5806314  88.1514974  83.3785365
  80.2761928  73.5501388  78.1654852  79.9326197  74.4403030  78.0893963
  80.6440891  73.3603045  77.3024437  68.3447779  85.8734918  70.9843455
  69.1823001  86.2831927  70.7677162  68.5226046  84.9334360  70.9543648
  80.2412211  83.5409999  66.6727288  79.7258834  84.3114604  66.9115675
  79.9689519  82.8675135  67.2960349  77.8259322  78.3859700  71.7312526
  76.9700918  77.9966550  71.5518165  78.2386274  78.4651661  70.8712311
  79.3558468  75.9206043  76.1304086  78.8523264  75.8836178  75.3171891
  79.6489075  76.8298786  76.1900742  75.6001354  76.0044773  75.1370267
  76.4654351  75.8087581  74.7776157  75.6678863  75.7755124  76.0639624
  85.2146485  86.2942354  68.6080461  84.4375928  85.9553513  68.1635623
  85.8937966  86.2994977  67.9335426  80.0298514  81.4137091  68.4987069
  79.7248650  81.7283240  69.3497212  80.9828956  81.4918511  68.5414402
  78.4744946  87.5727314  70.1480023  77.9466307  86.8380074  69.8353260
  77.9732449  88.3501991  69.9019991  83.4537792  85.7676335  75.2647069
  82.7961466  86.4575596  75.3527198  84.2578191  86.1572767  75.6081055
  73.2063673  78.2346981  72.5086634  73.7807425  78.0122162  71.7759827
  73.7934656  78.3035675  73.2615236  82.2643251  84.1220708  73.3151011
  82.7775132  84.7550699  73.8172720  82.9144474  83.5221903  72.9494371
  73.5333260  80.2651442  66.5282519  72.6970573  80.6026128  66.8491794
  73.3938030  80.1300421  65.5909656  75.5086341  75.1088230  71.2361704
  74.8550753  74.7937247  70.6118318  75.4666815  74.4863970  71.9621527
  76.6197546  85.3907525  63.1514996  75.7124608  85.1596778  63.3506145
  77.1168578  84.5945144  63.3388977  79.5265625  94.1005032  66.0711682
  78.8527324  94.4036729  66.6796640  79.9131447  94.9034112  65.7217139
  78.7424081  81.5970163  75.5609351  77.8246643  81.8185110  75.4031039
  79.1584225  81.6716474  74.7021059  79.5259129  82.9961579  70.6912032
  80.2730948  83.5082976  70.3819154  79.7950719  82.6745631  71.5516425
  77.7985779  85.4920119  67.6738986  76.8896999  85.2079152  67.7711456
  77.8280863  85.9119198  66.8142293  83.0305047  89.1026709  71.4430153
  82.5767374  88.2617619  71.4995344  82.3999014  89.7388107  71.7804934
  81.9737966  80.0318695  72.6730821  81.2360723  79.5196081  73.0041063
  82.2264740  79.5919077  71.8614098  81.4737986  90.9403206  72.3779972
  81.7660960  91.5008263  71.6592337  81.9836607  91.2331767  73.1333131
  82.0749594  72.8094947  73.2672590  82.3808471  71.9492310  72.9798505
  82.8002199  73.4012567  73.0671584  68.3673950  83.2125634  71.6554188
  68.1698350  82.6194994  70.9305255  67.8120614  82.9077844  72.3730127
  76.3470673  83.1048740  73.7748781  76.4019283  82.1522576  73.6991258
  75.5361875  83.2608179  74.2590080  77.4961867  87.0328863  65.0127064
  77.0581297  86.3164722  64.5532702  78.2372308  87.2604978  64.4512156
  74.2863033  81.7225800  71.5339160  73.4730899  82.0219970  71.9404352
  74.7822028  81.3281489  72.2513642  76.4371611  91.7183557  73.4673425
  76.3947790  91.9444403  72.5381957  77.3534310  91.4846931  73.6159226
  79.8837245  82.1867624  80.3654054  80.2386633  82.4139097  81.2248520
  80.5309376  82.5186001  79.7431309  85.6134982  85.3086060  71.0703383
  85.4752881  85.4987656  70.1424572  85.2571201  86.0705443  71.5271434
  73.7777108  79.2944155  77.1500395  74.4176487  79.1532914  76.4523358
  72.9454639  79.0078669  76.7738997  85.6404362  87.3762587  76.0814654
  86.0740868  87.2837876  76.9297708  86.3535942  87.3520088  75.4434670
  74.5537412  88.5946586  73.2635387  75.3478011  88.0996906  73.0617962
  73.8429104  88.0664449  72.9003093  79.3732256  90.9764681  77.6147755
  79.4269279  91.5455618  78.3825471  78.5047038  91.1466566  77.2501792
  70.8620175  82.7389668  69.3395140  69.9317764  82.6774123  69.5565102
  70.9577647  82.2165620  68.5431781  70.7805725  79.2644480  71.9273382
  71.0412542  80.1789814  71.8182542  71.6022897  78.7968923  72.0769995
  86.5019911  87.4186288  78.6147540  86.6955801  88.3232098  78.8606815
  86.4020529  86.9593707  79.4486125  78.1556222  77.3044178  81.1137867
  77.5084137  78.0034128  81.0202344  78.9257237  77.7380322  81.4814115
  81.5635020  87.5693031  84.1888420  81.4120526  87.3403582  83.2718504
  81.5539699  88.5263632  84.2019765  78.3320356  85.1424943  79.1734687
  79.2612416  85.2936103  79.0003654  77.9111386  85.2308964  78.3183333
  77.1308688  89.1675608  76.9433225  76.9919774  88.7994392  77.8159163
  76.3423284  89.6823247  76.7717182  77.7256840  94.2684704  68.2858761
  77.9008596  93.7972747  69.1004384  77.0389628  94.8950470  68.5140022
  78.6813903  88.5457210  74.3322062  78.3463736  88.5057980  75.2279712
  78.1817849  87.8801926  73.8592473  81.6173095  85.8913245  64.6059122
  81.0002265  85.1660073  64.5092175  81.1489583  86.6522605  64.2626196
  75.2840448  83.6644800  79.3458323  75.9940066  83.0237992  79.3044942
  75.2409756  83.9157695  80.2684504  83.2727226  90.6012153  82.2664902
  83.2139773  89.9171373  81.5995485  83.6746745  91.3431143  81.8145528
  72.2917925  97.4174067  75.0598621  72.5314523  98.0492591  75.7377640
  71.4487122  97.0662107  75.3463980  73.4071641  80.1098669  63.7280426
  72.5301107  79.9887470  63.3642673  73.8829394  79.3184747  63.4759315
  83.2744634  88.5651737  80.4978882  82.3871413  88.2277659  80.6205281
  83.8443185  87.8334768  80.7347647  64.9273781  84.8975829  73.8221933
  65.6144821  84.5837559  73.2342949  64.7721910  85.8017193  73.5489185
  76.8045787  93.2253189  77.4640125  76.7315959  94.0308161  77.9759430
  76.3623180  93.4245155  76.6388147  76.5935567  92.4624959  70.9742947
  75.8103089  93.0046640  71.0681171  77.2928312  92.9798939  71.3737188
  79.9032217  78.2719589  73.6177152  80.4000916  77.5189551  73.2978222
  79.1319198  78.3083906  73.0520361  87.7561974  83.9759954  75.2595444
  87.7451851  84.8584670  74.8889377  86.8879354  83.6231505  75.0649981
  79.2644471  93.1240023  79.6198284  79.9772443  93.7587488  79.5474185
  78.7734499  93.2203889  78.8038286  80.9861998  87.0291276  71.1915576
  80.0518276  87.1492739  71.0220280  81.1638666  86.1263743  70.9275585
  76.4867186  80.4136972  73.3448837  76.1164973  79.8608012  74.0329742
  76.9826278  79.8095105  72.7923837  84.3734549  82.8708595  71.7265610
  84.8395001  83.7036587  71.6525912  84.8242049  82.4053577  72.4310868
  74.3156384  90.8734467  80.4403855  75.0165844  91.5070950  80.5933249
  73.8451499  91.2149198  79.6799494  82.4410780  89.2152417  68.7251762
  82.7170624  89.1009011  69.6345636  81.5715279  88.8169902  68.6863935
  82.3451212  75.2389182  75.7656511  81.4314291  75.4693409  75.9338718
  82.7744313  75.3227626  76.6170543  82.1157670  83.4279074  78.2656405
  81.4629120  83.6754982  77.6108858  82.4938050  82.6143213  77.9318882
  79.0764844  93.4638768  72.3684575  79.2587239  92.6460423  72.8312328
  79.8997830  93.6806460  71.9309465  79.4107010  92.3906953  69.6299624
  79.9394776  91.8799407  69.0169786  79.6735229  92.0749483  70.4945157
  78.1645243  84.1698885  84.7522442  77.4885880  84.0693015  85.4224817
  78.9872877  84.0138099  85.2158439  69.9124102  90.4070822  77.3734957
  70.4977539  89.6614510  77.5062862  69.7148941  90.7174779  78.2571621
  72.7662757  93.4422069  72.3897400  72.0973133  93.9268197  71.9061440
  72.6275627  93.6891290  73.3040778  76.9068026  95.4765813  78.9880058
  77.4586334  95.6397434  79.7529143  77.2474220  96.0670251  78.3160083
  81.7578900  90.3027070  84.8428713  82.3018804  90.9157029  84.3483667
  81.1765745  90.8606649  85.3595726  68.1350335  81.7040524  69.1693332
  68.4303776  80.7951203  69.1160386  67.2338370  81.6828264  68.8474334
  80.0436413  93.4247788  75.9743740  79.9187553  92.6237528  75.4654686
  80.7015504  93.9193982  75.4857710  71.6644582  79.7796521  75.1520881
  70.9431167  80.3932489  75.0128354  72.4537837  80.3154286  75.0737526
  82.1071322  91.2256808  77.6023290  81.1601657  91.1062160  77.5301617
  82.4554095  90.3379307  77.6849552  74.4670895  77.1150947  81.4261532
  74.9905297  77.3613244  82.1887842  74.2483228  77.9470982  81.0064670
  69.8638176  79.3854622  69.2932657  69.5350882  78.5052001  69.1107763
  70.2177547  79.3302291  70.1809046  79.1117755  91.0209525  73.8027643
  78.9642717  90.0926232  73.9835213  79.9371249  91.0429615  73.3184718
  72.9779999  79.6727592  69.6608135  73.3176072  80.2013513  68.9386743
  73.4252120  80.0107998  70.4366701  82.7151877  91.8438083  74.8892515
  83.6398424  91.6380945  74.7516966  82.5467180  91.5954485  75.7981857
  75.6723440  78.0564643  79.1111203  75.3320260  77.2572456  79.5131883
  74.9662446  78.3566353  78.5388036  76.3239912  75.1413955  77.5638526
  77.1465981  74.6674433  77.4417416  76.5677975  75.9204439  78.0637212
  74.9648146  78.1702213  67.8601428  75.6856509  78.5483466  67.3565144
  74.3413451  78.8891090  67.9636405  79.1079269  78.8747362  68.7959760
  79.3242884  79.7572000  68.4948588  78.6273336  78.4833576  68.0665402
  73.8478491  81.8333076  75.3730504  73.7023071  82.1473379  76.2654786
  73.3703694  82.4517976  74.8201403  75.7074874  78.8235624  75.4211394
  75.6936442  77.9276717  75.0843692  76.4247302  78.8306287  76.0549680
  77.5601004  79.2572964  77.4664521  77.3018782  80.1790034  77.4648852
  77.0286045  78.8603398  78.1564986  82.5047193  92.3623751  70.2454607
  82.6784071  91.7970173  69.4928459  82.9976084  93.1624646  70.0634097
  75.1111770  77.7050004  70.6898964  75.2327681  76.7766650  70.8889852
  74.8213812  77.7188690  69.7777280  77.9802960  75.3904914  73.8265684
  78.0024657  75.4544247  72.8717664  78.3971019  74.5509423  74.0206190
  88.3586584  85.1260174  71.8644907  88.8017730  84.3767499  71.4664030
  87.4813095  85.1170310  71.4818639  83.4922366  91.6790515  67.3451505
  84.1873270  92.2997208  67.5638820  83.8345516  90.8285867  67.6203883
  85.3913789  89.1290221  68.8738836  85.9165113  89.4677494  68.1488156
  85.3036141  88.1937236  68.6901970  77.0533837  93.0424294  81.0028712
  77.3620964  92.7973441  81.8751412  77.8509319  93.2470933  80.5147583
  77.0754449  95.1962204  73.2334089  76.6359440  94.7038583  73.9266946
  77.8262566  94.6535172  72.9926164  69.5546788  91.3873745  73.2358717
  70.3804808  91.0877517  72.8557361  69.2040840  90.6181367  73.6848506
  74.5228322  90.7400213  75.3056391  73.9008331  90.0770918  75.0058619
  75.1933188  90.7661345  74.6230038  67.7555393  89.3060071  74.1947651
  66.9187302  88.8782246  74.0131652  67.7279039  89.4992515  75.1318442
  85.0807695  89.7623124  84.1790034  84.2903238  89.7447263  83.6394533
  84.8441049  90.3011418  84.9339070  85.2005570  86.6115591  81.4922762
  85.2503575  86.4465598  82.4338285  85.0919493  85.7442850  81.1020643
  74.0841828  89.2904137  68.7814851  74.2329949  89.9739601  68.1281524
  74.8908272  89.2709227  69.2964307  82.4909332  82.5946519  82.8082069
  83.3919195  82.4552984  82.5166067  82.5657307  82.7600974  83.7480246
  76.8252138  79.9713374  81.6535255  75.9555447  80.2646940  81.3817844
  77.0611618  80.5553819  82.3742519  86.7023767  89.0312532  81.7364784
  86.4108575  89.3942513  82.5728245  86.0895898  88.3179541  81.5578116
  87.9019449  86.5965412  74.2567354  88.7366340  87.0355216  74.4204914
  88.0378578  86.1204065  73.4375600  84.9510955  84.1545147  80.2044842
  85.4265076  84.3472793  79.3963693  84.0276520  84.2104333  79.9588226
  71.8394461  85.3169314  69.7875920  71.5940503  84.4131644  69.9856130
  72.0090376  85.3186465  68.8455398  79.5291171  76.1892991  79.1700676
  80.0473115  76.9254017  78.8447164  79.1746304  76.4956984  80.0047435
  71.1090109  81.0497672  67.2862082  70.4159354  81.1242027  66.6302118
  70.8641861  80.2858015  67.8083599  79.7803766  72.6093273  74.6901572
  80.0605519  71.9416462  75.3161999  80.5654372  72.8022369  74.1776236
  77.5837234  91.7852267  66.2526599  77.0111201  92.4042454  65.7997071
  78.1570028  92.3351629  66.7866521  83.6512624  81.0310907  78.4373147
  84.6030047  81.1309005  78.4585372  83.4816074  80.2389176  78.9471232
  81.6727003  78.1166490  78.6232548  81.0776935  78.3971503  77.9279037
  81.3876700  78.6060391  79.3949290  80.8034494  92.0689417  67.3835181
  81.7365167  92.0034979  67.5868056  80.7157707  92.9045684  66.9249714
  83.4322510  91.3855287  64.3439129  83.3536142  91.0515151  65.2374886
  84.2532177  91.8777055  64.3430601  86.1300702  84.2517027  77.5515447
  86.0977022  83.3133027  77.7375131  86.7401325  84.3301063  76.8181272
  77.9684033  83.1213080  63.5942651  78.9143137  82.9919288  63.6631069
  77.5898277  82.3827742  64.0712079  86.2795190  81.0428070  77.5973730
  85.7634239  80.2586527  77.4103659  87.1635139  80.7146787  77.7620250
  83.9405917  74.7869086  73.5569543  83.7430738  74.4784174  74.4412875
  84.5505623  75.5130725  73.6867473  91.9477252  85.3133034  76.6921484
  92.6780640  85.0518322  77.2529187  91.3384197  84.5761756  76.7323552
  90.0292549  83.4540896  77.2895935  89.3025712  83.3196861  76.6812427
  89.6139836  83.7617725  78.0952653  77.8522725  87.1730826  85.0543308
  78.7725735  87.3509425  85.2483355  77.8172308  86.2286871  84.9023007
  76.1526950  81.0463056  63.5297536  75.2458405  80.7496169  63.6060250
  76.4302931  80.7492874  62.6631823  70.8484798  85.0831861  77.6966089
  71.0670807  86.0148968  77.7154123  71.2610571  84.7239835  78.4820893
  77.7689015  75.5899946  69.6841778  76.9589744  75.2447031  70.0597024
  78.4573432  75.2807490  70.2729389  79.6979564  74.6677993  71.3066074
  80.2510602  75.0873446  71.9656097  79.9349650  73.7413741  71.3489030
  75.7212663  80.6565066  87.0868838  75.6209390  81.6059423  87.0180929
  75.5034205  80.3283305  86.2144908  74.9225734  77.9049991  63.6709516
  75.7844898  78.2304890  63.9305333  75.1076078  77.1181487  63.1582581
  66.9393150  85.9872331  75.9489704  66.2456621  85.5726284  75.4359659
  67.6866141  86.0292868  75.3523123  83.0758371  76.7778518  70.8144739
  82.4957040  77.4363322  70.4322791  82.8094303  75.9555862  70.4032156
  81.5261937  76.1783576  73.0166059  82.0261715  76.2900110  72.2080378
  82.1697545  75.8744628  73.6566867  75.5843933  84.0862205  85.9033900
  75.1011015  84.8862565  86.1097789  75.6704872  84.0970150  84.9501344
  68.8529893  85.9190585  73.8255719  68.8300581  86.0178272  72.8737602
  69.1630529  86.7655736  74.1472885  71.5117270  87.9766740  77.9402334
  72.4660524  87.9450682  77.8732265  71.3129794  87.5157364  78.7552560
  72.1016653  86.5467856  80.5073131  72.9209542  87.0411935  80.5307969
  72.3753460  85.6299824  80.4790699  81.8583249  78.9378608  69.8701087
  80.9709104  79.2228259  69.6521282  82.2737238  78.7772372  69.0228364
  85.2097785  78.9625129  73.5855426  85.9858175  79.4521582  73.8580043
  84.4845919  79.3883183  74.0427296  87.6470344  79.6752748  74.6429367
  88.2414834  79.4348484  73.9322675  87.7196927  78.9559879  75.2702903
  69.8667499  93.5186359  74.9572532  69.7321967  92.7586760  74.3910530
  69.4499562  94.2427259  74.4901320  81.0026462  88.7023283  63.9649107
  81.7062312  88.9073285  64.5806762  80.2789111  89.2700045  64.2298190
  81.8324273  84.4533144  70.0851377  81.7759474  84.9101696  69.2459009
  82.3852615  83.6923829  69.9074220  85.6429078  80.2422876  70.9101497
  85.3866013  79.8419512  71.7409704  85.0181946  80.9566670  70.7851636
  89.9541416  82.9818949  73.4172788  89.3940974  83.0512139  74.1904350
  89.3484920  82.8059934  72.6972284  73.0236625  94.4155676  75.1690974
  72.9069009  95.3601109  75.0669664  72.2029071  94.1129238  75.5576773
  82.9113160  89.1405812  66.0147567  83.7458764  88.7087011  65.8325042
  82.7497503  88.9687826  66.9424461  82.5659052  85.6437925  67.3803906
  82.5107856  85.4782197  66.4392350  81.9405107  86.3513958  67.5366096
  79.8804959  87.9486837  86.7057469  80.7496119  88.1227490  86.3444104
  79.4011710  88.7681254  86.5833198  75.8755177  75.1446034  66.9589225
  75.8633847  76.0887874  67.1157495  76.7678599  74.9616180  66.6648686
  74.0491139  95.0683938  78.3846903  74.9518386  95.1007549  78.7013398
  73.8228509  94.1384389  78.3993238  75.8044741  93.8214925  75.0456981
  74.8540372  93.8216786  74.9321354  76.1077227  93.0747659  74.5293016
  91.5397435  99.6575463  76.1102744  92.1775845  99.5382211  75.4066084
  91.4218278 100.6056307  76.1690696  88.3487141  99.6102891  76.0464268
  88.0105653  99.4943956  75.1584803  89.2176909  99.2094056  76.0265274
  84.2073957 101.4638368  72.0361159  83.6438822 101.3728305  71.2677447
  84.0926352 100.6438272  72.5163652  88.8306924 100.7637743  82.0050474
  88.8195565 100.3690541  81.1330978  88.9927563 100.0303816  82.5984245
  81.7538389 102.9589559  74.8745380  82.5459681 102.6180384  74.4591679
  81.9935039 103.0684534  75.7947533  89.7873515 105.1309335  67.3475624
  89.1361495 105.7163416  66.9609638  90.5817878 105.6615530  67.4070662
  83.7129143 102.2198473  67.7462759  84.4860019 101.6727460  67.6075634
  84.0654541 103.0842722  67.9577220  85.5514185 103.5474855  80.9529658
  85.2604051 104.4520486  80.8376324  86.1871170 103.5891382  81.6673727
  86.4770392 100.9251703  77.5431017  87.0733964 100.7007726  76.8287980
  86.5345364 100.1836449  78.1456465  86.0495420  98.3791139  65.3781208
  86.3020941  97.8572660  64.6164671  85.1119980  98.2157284  65.4807892
  91.0938703  97.3826917  73.1855952  91.8801792  96.9646340  72.8346369
  91.3577408  98.2873009  73.3537600  91.2648781 102.8199767  67.8844608
  90.6294614 102.8934394  68.5965513  90.9346187 103.4093366  67.2063688
  96.4947130  97.3202150  74.0888930  97.2272302  96.7501367  74.3226760
  95.7386486  96.9323751  74.5295436  85.7691709 100.2819245  67.5805583
  85.6527967  99.6064148  68.2486668  85.8793969  99.7951619  66.7637736
  88.1123250  99.7429392  71.2852273  87.7481457  99.2160013  71.9965194
  88.9690366  99.3527861  71.1118758  94.0172551  91.0323724  78.5483539
  93.6855875  91.9019135  78.3244754  93.4218164  90.7160008  79.2277569
  87.7528737  94.7719291  66.2813621  87.9203139  95.6399528  66.6484092
  87.5625906  94.9346573  65.3574910  90.5104070 103.2336270  77.9479452
  90.2104793 104.1361309  77.8395259  90.1655130 102.9668454  78.8000604
  83.9616552  99.6850067  73.9816156  83.0367048  99.5526281  74.1893848
  84.2100965 100.4644286  74.4786098  93.9101214  95.7518811  75.6276889
  93.0018091  95.6834219  75.3335650  93.8588810  96.2290755  76.4558714
  87.7317958  97.2276949  67.2660288  87.6117583  97.6734000  68.1045768
  87.0370546  97.5762267  66.7073826  81.3225363  99.3283341  74.8159945
  81.4517744  99.5817820  75.7299357  80.6422814  99.9211049  74.4964600
  85.4924850 109.9980591  70.9150419  85.4148880 110.9488416  70.9938900
  84.8886494 109.6526463  71.5725346  87.9842080  97.1708456  83.5711786
  87.2075414  97.7302376  83.5614651  88.6232643  97.6565239  84.0926656
  95.7762860  93.9535249  77.4054763  95.1337241  94.2467782  76.7594557
  95.2717789  93.8388169  78.2107959  93.4303024  97.6998422  68.0940622
  94.3420880  97.9325809  67.9188320  92.9212671  98.2835466  67.5315701
  86.2388452  99.9793909  83.1329753  86.9803136 100.5178953  82.8564577
  85.5325438 100.6060198  83.2901305  91.7143792 102.1223050  81.7301915
  92.1227148 101.6805460  80.9856547  90.9921053 101.5475677  81.9836108
  88.0674862  97.0595657  79.1035472  88.9136057  97.4835070  79.2470121
  88.0073499  96.4029281  79.7974035  92.0372606 102.6824241  75.4854203
  91.4081469 102.8469955  74.7830271  91.6498268 103.0965850  76.2565168
  95.9161838 103.6178678  72.8398567  95.2312876 103.9977580  72.2895601
  96.0005688 104.2274005  73.5730515  91.2174307  94.7200025  80.7616645
  90.9735239  95.4742086  80.2250921  91.4934238  95.0985373  81.5963892
  93.1712770 101.2638637  79.4393911  93.3829665 101.9070397  78.7628292
  93.1242518 100.4300954  78.9715841  90.7738999  93.8756458  76.3430483
  89.9123478  94.1737712  76.6347221  90.8001434  94.0926857  75.4111516
  87.5900568 102.4198649  72.7504289  88.0538914 102.6986352  71.9608911
  87.3257366 101.5182093  72.5677379  84.4824649 101.9670130  75.6884052
  85.0526006 102.3957399  75.0501536  85.0732761 101.6852715  76.3868238
  86.5269454  98.5421801  69.5593854  87.2293498  98.9942845  70.0267780
  86.1950083  97.9005620  70.1873747  84.9749816  97.1333558  83.9345063
  84.3448476  97.8149838  84.1680460  84.8685904  97.0216639  82.9898201
  80.2694788  96.8005354  74.8610987  79.4793842  97.0562882  74.3851098
  80.7606036  97.6153692  74.9663028  94.2858598 104.1410593  77.6116268
  95.1076042 103.7390780  77.3298950  94.2821001 104.0378827  78.5632384
  82.2209534  97.1649933  71.8194464  81.4240697  97.2768627  72.3377960
  81.9935126  97.5036585  70.9535355  88.0515201 103.6894636  79.7676979
  88.1159634 104.1515043  80.6035150  87.3426125 103.0592001  79.8959288
  78.5532491  97.0535844  77.2925978  78.8040530  97.9382854  77.5583554
  79.0892040  96.8740446  76.5201070 102.3764591 100.4849341  73.9601240
 101.6228299  99.9156739  73.8045244 102.5112132 100.4512006  74.9071874
  87.7663219 105.3562744  69.6355959  87.6308894 106.2014279  70.0640807
  88.3073031 105.5582021  68.8721893  84.2530559  91.4354323  86.2970314
  83.8597504  90.8820522  86.9717958  85.0696699  91.7464902  86.6876832
  81.2192616 102.8738182  70.2083884  81.7317137 103.6681432  70.3589449
  81.8715329 102.1764472  70.1417486  83.0287501 105.9903938  72.2906637
  83.2054129 106.9121903  72.1027621  83.8244335 105.6762357  72.7201017
  87.1698520  92.8512203  83.8890571  87.9108233  93.4519356  83.8095033
  87.4016442  92.1089840  83.3308613  82.3139858  98.0368570  82.1668800
  82.1993373  97.1353827  82.4675899  81.4584375  98.2832267  81.8153617
  89.3931695 105.9786310  83.7656301  88.9495550 105.1922689  83.4477206
  90.0548909 106.1665461  83.1000192  84.1518817 107.5082112  78.2916980
  84.7026242 107.3799175  77.5193973  83.3130292 107.8077001  77.9411872
  91.4912933 106.2589110  81.7937702  91.4731409 107.0797991  81.3017971
  92.4132853 106.1343185  82.0187843  87.9485988 103.7733240  82.6361211
  88.4814324 103.0121528  82.4060519  87.4200069 103.4806891  83.3785365
  91.1155683  88.8793306  78.1654852  90.7719952  89.7694947  78.0893963
  91.4834645  88.6894963  77.3024437  79.1841533 101.2026836  70.9843455
  80.0216755 101.6123844  70.7677162  79.3619801 100.2626278  70.9543648
  91.0805965  98.8701917  66.6727288  90.5652589  99.6406521  66.9115675
  90.8083274  98.1967053  67.2960349  88.6653076  93.7151617  71.7312526
  87.8094673  93.3258468  71.5518165  89.0780028  93.7943578  70.8712311
  90.1952223  91.2497961  76.1304086  89.6917019  91.2128096  75.3171891
  90.4882830  92.1590703  76.1900742  86.4395109  91.3336690  75.1370267
  87.3048106  91.1379499  74.7776157  86.5072618  91.1047042  76.0639624
  96.0540239 101.6234271  68.6080461  95.2769682 101.2845431  68.1635623
  96.7331720 101.6286894  67.9335426  90.8692268  96.7429009  68.4987069
  90.5642404  97.0575158  69.3497212  91.8222711  96.8210429  68.5414402
  89.3138700 102.9019232  70.1480023  88.7860062 102.1671992  69.8353260
  88.8126203 103.6793908  69.9019991  94.2931546 101.0968253  75.2647069
  93.6355221 101.7867514  75.3527198  95.0971946 101.4864684  75.6081055
  84.0457428  93.5638898  72.5086634  84.6201180  93.3414080  71.7759827
  84.6328410  93.6327593  73.2615236  93.1037005  99.4512625  73.3151011
  93.6168887 100.0842617  73.8172720  93.7538229  98.8513821  72.9494371
  84.3727015  95.5943359  66.5282519  83.5364327  95.9318046  66.8491794
  84.2331785  95.4592339  65.5909656  86.3480096  90.4380147  71.2361704
  85.6944508  90.1229164  70.6118318  86.3060570  89.8155888  71.9621527
  87.4591300 100.7199442  63.1514996  86.5518362 100.4888696  63.3506145
  87.9562332  99.9237062  63.3388977  90.3659379 109.4296949  66.0711682
  89.6921078 109.7328646  66.6796640  90.7525201 110.2326030  65.7217139
  89.5817836  96.9262081  75.5609351  88.6640397  97.1477028  75.4031039
  89.9977980  97.0008391  74.7021059  90.3652884  98.3253496  70.6912032
  91.1124703  98.8374894  70.3819154  90.6344473  98.0037549  71.5516425
  88.6379534 100.8212037  67.6738986  87.7290753 100.5371070  67.7711456
  88.6674618 101.2411116  66.8142293  93.8698801 104.4318627  71.4430153
  93.4161128 103.5909537  71.4995344  93.2392768 105.0680025  71.7804934
  92.8131721  95.3610613  72.6730821  92.0754478  94.8487999  73.0041063
  93.0658494  94.9210994  71.8614098  92.3131741 106.2695123  72.3779972
  92.6054715 106.8300180  71.6592337  92.8230361 106.5623684  73.1333131
  92.9143348  88.1386865  73.2672590  93.2202225  87.2784228  72.9798505
  93.6395953  88.7304485  73.0671584  79.2067704  98.5417551  71.6554188
  79.0092104  97.9486912  70.9305255  78.6514368  98.2369761  72.3730127
  87.1864428  98.4340658  73.7748781  87.2413038  97.4814494  73.6991258
  86.3755630  98.5900097  74.2590080  88.3355622 102.3620781  65.0127064
  87.8975052 101.6456640  64.5532702  89.0766063 102.5896896  64.4512156
  85.1256788  97.0517717  71.5339160  84.3124653  97.3511888  71.9404352
  85.6215782  96.6573406  72.2513642  87.2765366 107.0475474  73.4673425
  87.2341545 107.2736321  72.5381957  88.1928065 106.8138849  73.6159226
  90.7231000  97.5159542  80.3654054  91.0780387  97.7431015  81.2248520
  91.3703131  97.8477919  79.7431309  96.4528736 100.6377978  71.0703383
  96.3146635 100.8279574  70.1424572  96.0964955 101.3997361  71.5271434
  84.6170863  94.6236073  77.1500395  85.2570242  94.4824832  76.4523358
  83.7848393  94.3370586  76.7738997  96.4798116 102.7054505  76.0814654
  96.9134623 102.6129794  76.9297708  97.1929697 102.6812005  75.4434670
  85.3931167 103.9238503  73.2635387  86.1871765 103.4288824  73.0617962
  84.6822859 103.3956367  72.9003093  90.2126011 106.3056599  77.6147755
  90.2663033 106.8747535  78.3825471  89.3440792 106.4758484  77.2501792
  81.7013930  98.0681585  69.3395140  80.7711518  98.0066041  69.5565102
  81.7971402  97.5457538  68.5431781  81.6199479  94.5936398  71.9273382
  81.8806296  95.5081731  71.8182542  82.4416651  94.1260841  72.0769995
  83.0924404  96.0074155  79.0972206  83.7647458  95.7991517  78.4484855
  82.2654191  95.8096241  78.6577439  97.3413666 102.7478206  78.6147540
  97.5349556 103.6524016  78.8606815  97.2414284 102.2885625  79.4486125
  88.9949976  92.6336096  81.1137867  88.3477891  93.3326046  81.0202344
  89.7650992  93.0672240  81.4814115  92.4028774 102.8984948  84.1888420
  92.2514281 102.6695500  83.2718504  92.3933454 103.8555550  84.2019765
  89.1714111 100.4716861  79.1734687  90.1006171 100.6228021  79.0003654
  88.7505141 100.5600882  78.3183333  87.9702443 104.4967525  76.9433225
  87.8313528 104.1286310  77.8159163  87.1817039 105.0115165  76.7717182
  88.5650594 109.5976622  68.2858761  88.7402350 109.1264665  69.1004384
  87.8783383 110.2242388  68.5140022  89.5207658 103.8749128  74.3322062
  89.1857490 103.8349898  75.2279712  89.0211603 103.2093844  73.8592473
  83.4951902  99.2816758  79.8574643  83.3571700  98.5496997  80.4586183
  84.4056825  99.1925658  79.5758831  92.4566849 101.2205162  64.6059122
  91.8396020 100.4951991  64.5092175  91.9883338 101.9814523  64.2626196
  86.1234202  98.9936717  79.3458323  86.8333821  98.3529910  79.3044942
  86.0803510  99.2449612  80.2684504  94.1120981 105.9304071  82.2664902
  94.0533527 105.2463291  81.5995485  94.5140499 106.6723061  81.8145528
  84.8363136  95.9801935  81.1653963  84.3000493  95.5292674  81.8175559
  84.2479845  96.1147844  80.4224427  83.1311680 112.7465985  75.0598621
  83.3708278 113.3784509  75.7377640  82.2880876 112.3954025  75.3463980
  84.2465395  95.4390587  63.7280426  83.3694862  95.3179388  63.3642673
  84.7223148  94.6476665  63.4759315  94.1138388 103.8943655  80.4978882
  93.2265167 103.5569577  80.6205281  94.6836939 103.1626686  80.7347647
  75.7667535 100.2267746  73.8221933  76.4538575  99.9129477  73.2342949
  75.6115664 101.1309111  73.5489185  80.5702257  95.1157943  78.2506957
  80.4860446  94.5083613  77.5157367  79.7484964  95.6066961  78.2516453
  87.6439542 108.5545107  77.4640125  87.5709713 109.3600079  77.9759430
  87.2016935 108.7537073  76.6388147  87.4329321 107.7916877  70.9742947
  86.6496843 108.3338557  71.0681171  88.1322066 108.3090857  71.3737188
  90.7425971  93.6011507  73.6177152  91.2394671  92.8481469  73.2978222
  89.9712953  93.6375823  73.0520361  98.5955729  99.3051872  75.2595444
  98.5845605 100.1876588  74.8889377  97.7273108  98.9523423  75.0649981
  90.1038225 108.4531941  79.6198284  90.8166197 109.0879406  79.5474185
  89.6128254 108.5495807  78.8038286  91.8255752 102.3583194  71.1915576
  90.8912031 102.4784656  71.0220280  92.0032421 101.4555661  70.9275585
  87.3260940  95.7428890  73.3448837  86.9558728  95.1899930  74.0329742
  87.8220033  95.1387023  72.7923837  95.2128303  98.2000513  71.7265610
  95.6788756  99.0328505  71.6525912  95.6635804  97.7345495  72.4310868
  85.1550139 106.2026385  80.4403855  85.8559598 106.8362868  80.5933249
  84.6845254 106.5441116  79.6799494  93.2804535 104.5444334  68.7251762
  93.5564378 104.4300929  69.6345636  92.4109033 104.1461819  68.6863935
  93.1844966  90.5681100  75.7656511  92.2708046  90.7985327  75.9338718
  93.6138068  90.6519544  76.6170543  92.9551425  98.7570992  78.2656405
  92.3022875  99.0046899  77.6108858  93.3331805  97.9435130  77.9318882
  89.9158599 108.7930685  72.3684575  90.0980993 107.9752341  72.8312328
  90.7391585 109.0098377  71.9309465  90.2500764 107.7198870  69.6299624
  90.7788530 107.2091325  69.0169786  90.5128984 107.4041401  70.4945157
  89.0038998  99.4990803  84.7522442  88.3279635  99.3984932  85.4224817
  89.8266632  99.3430017  85.2158439  80.7517857 105.7362740  77.3734957
  81.3371294 104.9906428  77.5062862  80.5542695 106.0466696  78.2571621
  83.6056512 108.7713987  72.3897400  82.9366887 109.2560115  71.9061440
  83.4669382 109.0183207  73.3040778  75.3435511  98.3068340  76.0939401
  75.3819611  97.7731931  76.8876519  74.8375804  97.7803545  75.4750378
  87.7461781 110.8057731  78.9880058  88.2980089 110.9689352  79.7529143
  88.0867974 111.3962168  78.3160083  82.7226274  93.1532880  79.5901943
  82.7867600  94.0147711  79.1779341  82.6593394  92.5406882  78.8574301
  82.1978546  95.2256013  83.2374977  82.8250585  94.8433090  83.8512501
  81.3406465  95.0070215  83.6030670  92.5972655 105.6318988  84.8428713
  93.1412559 106.2448946  84.3483667  92.0159500 106.1898566  85.3595726
  78.9744089  97.0332442  69.1693332  79.2697530  96.1243120  69.1160386
  78.0732125  97.0120181  68.8474334  90.8830168 108.7539706  75.9743740
  90.7581307 107.9529446  75.4654686  91.5409259 109.2485899  75.4857710
  82.5038336  95.1088439  75.1520881  81.7824922  95.7224406  75.0128354
  83.2931592  95.6446203  75.0737526  92.9465076 106.5548726  77.6023290
  91.9995412 106.4354077  77.5301617  93.2947849 105.6671224  77.6849552
  85.3064650  92.4442865  81.4261532  85.8299051  92.6905162  82.1887842
  85.0876983  93.2762900  81.0064670  80.7031931  94.7146540  69.2932657
  80.3744637  93.8343919  69.1107763  81.0571301  94.6594208  70.1809046
  89.9511510 106.3501442  73.8027643  89.8036472 105.4218150  73.9835213
  90.7765003 106.3721533  73.3184718  83.8173754  95.0019509  69.6608135
  84.1569826  95.5305431  68.9386743  84.2645874  95.3399916  70.4366701
  93.5545631 107.1730001  74.8892515  94.4792179 106.9672862  74.7516966
  93.3860935 106.9246402  75.7981857  86.5117195  93.3856560  79.1111203
  86.1714015  92.5864373  79.5131883  85.8056201  93.6858271  78.5388036
  87.1633666  90.4705873  77.5638526  87.9859736  89.9966351  77.4417416
  87.4071730  91.2496356  78.0637212  85.8041901  93.4994131  67.8601428
  86.5250263  93.8775384  67.3565144  85.1807205  94.2183008  67.9636405
  89.9473024  94.2039280  68.7959760  90.1636638  95.0863918  68.4948588
  89.4667091  93.8125493  68.0665402  84.6872245  97.1624993  75.3730504
  84.5416826  97.4765296  76.2654786  84.2097449  97.7809894  74.8201403
  86.5468628  94.1527541  75.4211394  86.5330197  93.2568635  75.0843692
  87.2641056  94.1598205  76.0549680  88.3994759  94.5864881  77.4664521
  88.1412537  95.5081952  77.4648852  87.8679799  94.1895316  78.1564986
  93.3440948 107.6915669  70.2454607  93.5177825 107.1262091  69.4928459
  93.8369839 108.4916563  70.0634097  79.1617907  99.7030338  78.3118166
  78.6171375 100.4790146  78.4438440  80.0397257 100.0501142  78.1537287
  85.9505524  93.0341922  70.6898964  86.0721435  92.1058568  70.8889852
  85.6607566  93.0480607  69.7777280  88.8196714  90.7196832  73.8265684
  88.8418411  90.7836165  72.8717664  89.2364773  89.8801341  74.0206190
  99.1980339 100.4552092  71.8644907  99.6411485  99.7059417  71.4664030
  98.3206849 100.4462228  71.4818639  94.3316120 107.0082433  67.3451505
  95.0267025 107.6289126  67.5638820  94.6739270 106.1577784  67.6203883
  79.9483929  98.8300234  81.2048322  79.2065665  98.9782869  81.7912953
  79.6276674  99.0908500  80.3415072  96.2307543 104.4582139  68.8738836
  96.7558867 104.7969411  68.1488156  96.1429896 103.5229154  68.6901970
  87.8927592 108.3716212  81.0028712  88.2014718 108.1265359  81.8751412
  88.6903074 108.5762851  80.5147583  87.9148204 110.5254122  73.2334089
  87.4753194 110.0330500  73.9266946  88.6656321 109.9827089  72.9926164
  80.3940543 106.7165663  73.2358717  81.2198563 106.4169435  72.8557361
  80.0434595 105.9473285  73.6848506  85.3622076 106.0692131  75.3056391
  84.7402085 105.4062836  75.0058619  86.0326943 106.0953263  74.6230038
  78.5949148 104.6351989  74.1947651  77.7581056 104.2074163  74.0131652
  78.5672793 104.8284432  75.1318442  85.4346604  94.5473919  84.8988897
  85.4834759  95.4236042  84.5166666  85.9769118  94.0051312  84.3260540
  95.9201449 105.0915042  84.1790034  95.1296993 105.0739181  83.6394533
  95.6834804 105.6303336  84.9339070  96.0399324 101.9407509  81.4922762
  96.0897329 101.7757516  82.4338285  95.9313248 101.0734768  81.1020643
  84.9235583 104.6196054  68.7814851  85.0723703 105.3031519  68.1281524
  85.7302026 104.6001144  69.2964307  93.3303087  97.9238437  82.8082069
  94.2312949  97.7844901  82.5166067  93.4051061  98.0892891  83.7480246
  87.6645892  95.3005291  81.6535255  86.7949201  95.5938857  81.3817844
  87.9005372  95.8845736  82.3742519  97.5417521 104.3604450  81.7364784
  97.2502329 104.7234431  82.5728245  96.9289652 103.6471458  81.5578116
  98.7413203 101.9257330  74.2567354  99.5760095 102.3647134  74.4204914
  98.8772332 101.4495983  73.4375600  95.7904709  99.4837065  80.2044842
  96.2658831  99.6764711  79.3963693  94.8670275  99.5396250  79.9588226
  82.6788216 100.6461232  69.7875920  82.4334258  99.7423562  69.9856130
  82.8484131 100.6478382  68.8455398  90.3684926  91.5184908  79.1700676
  90.8866870  92.2545935  78.8447164  90.0140059  91.8248902  80.0047435
  81.9483863  96.3789589  67.2862082  81.2553108  96.4533944  66.6302118
  81.7035615  95.6149933  67.8083599  90.6197520  87.9385191  74.6901572
  90.8999274  87.2708380  75.3161999  91.4048127  88.1314286  74.1776236
  88.4230989 107.1144185  66.2526599  87.8504956 107.7334372  65.7997071
  88.9963782 107.6643546  66.7866521  94.4906378  96.3602825  78.4373147
  95.4423801  96.4600922  78.4585372  94.3209829  95.5681093  78.9471232
  92.5120758  93.4458408  78.6232548  91.9170690  93.7263421  77.9279037
  92.2270455  93.9352309  79.3949290  91.6428248 107.3981335  67.3835181
  92.5758921 107.3326896  67.5868056  91.5551461 108.2337602  66.9249714
  94.2716265 106.7147205  64.3439129  94.1929896 106.3807069  65.2374886
  95.0925932 107.2068973  64.3430601  96.9694456  99.5808944  77.5515447
  96.9370776  98.6424945  77.7375131  97.5795080  99.6592981  76.8181272
  88.8077787  98.4504997  63.5942651  89.7536892  98.3211206  63.6631069
  88.4292032  97.7119659  64.0712079  97.1188945  96.3719988  77.5973730
  96.6027993  95.5878445  77.4103659  98.0028893  96.0438704  77.7620250
  94.7799672  90.1161003  73.5569543  94.5824493  89.8076092  74.4412875
  95.3899377  90.8422642  73.6867473 102.7871006 100.6424951  76.6921484
 103.5174394 100.3810239  77.2529187 102.1777951  99.9053673  76.7323552
 100.8686303  98.7832814  77.2895935 100.1419467  98.6488779  76.6812427
 100.4533590  99.0909642  78.0952653  88.6916480 102.5022744  85.0543308
  89.6119489 102.6801343  85.2483355  88.6566063 101.5578789  84.9023007
  86.9920704  96.3754974  63.5297536  86.0852160  96.0788087  63.6060250
  87.2696685  96.0784792  62.6631823  77.9098645  97.6961337  73.9796583
  77.5901429  96.8426645  73.6870957  77.3632073  97.9109915  74.7354550
  81.6878552 100.4123778  77.6966089  81.9064562 101.3440886  77.7154123
  82.1004326 100.0531753  78.4820893  88.6082770  90.9191864  69.6841778
  87.7983498  90.5738948  70.0597024  89.2967187  90.6099407  70.2729389
  90.5373318  89.9969910  71.3066074  91.0904357  90.4165364  71.9656097
  90.7743405  89.0705658  71.3489030  86.5606417  95.9856984  87.0868838
  86.4603144  96.9351341  87.0180929  86.3427959  95.6575223  86.2144908
  85.7619489  93.2341909  63.6709516  86.6238653  93.5596807  63.9305333
  85.9469833  92.4473405  63.1582581  77.7786905 101.3164249  75.9489704
  77.0850376 100.9018201  75.4359659  78.5259896 101.3584785  75.3523123
  93.9152125  92.1070435  70.8144739  93.3350794  92.7655240  70.4322791
  93.6488058  91.2847780  70.4032156  92.3655692  91.5075493  73.0166059
  92.8655470  91.6192028  72.2080378  93.0091300  91.2036546  73.6566867
  86.4237687  99.4154123  85.9033900  85.9404769 100.2154483  86.1097789
  86.5098626  99.4262068  84.9501344  79.6923647 101.2482502  73.8255719
  79.6694335 101.3470190  72.8737602  80.0024284 102.0947653  74.1472885
  82.3511025 103.3058658  77.9402334  83.3054278 103.2742600  77.8732265
  82.1523549 102.8449281  78.7552560  82.9410407 101.8759774  80.5073131
  83.7603296 102.3703852  80.5307969  83.2147215 100.9591742  80.4790699
  92.6977003  94.2670526  69.8701087  91.8102858  94.5520176  69.6521282
  93.1130992  94.1064289  69.0228364  96.0491539  94.2917047  73.5855426
  96.8251930  94.7813499  73.8580043  95.3239674  94.7175101  74.0427296
  98.4864098  95.0044666  74.6429367  99.0808589  94.7640402  73.9322675
  98.5590682  94.2851797  75.2702903  80.7061254 108.8478277  74.9572532
  80.5715722 108.0878678  74.3910530  80.2893316 109.5719177  74.4901320
  91.8420217 104.0315201  63.9649107  92.5456067 104.2365203  64.5806762
  91.1182866 104.5991962  64.2298190  92.6718027  99.7825062  70.0851377
  92.6153228 100.2393613  69.2459009  93.2246369  99.0215746  69.9074220
  96.4822833  95.5714794  70.9101497  96.2259767  95.1711429  71.7409704
  95.8575701  96.2858588  70.7851636 100.7935171  98.3110867  73.4172788
 100.2334729  98.3804056  74.1904350 100.1878674  98.1351852  72.6972284
  83.8630380 109.7447594  75.1690974  83.7462764 110.6893027  75.0669664
  83.0422826 109.4421156  75.5576773  93.7506914 104.4697730  66.0147567
  94.5852518 104.0378928  65.8325042  93.5891257 104.2979743  66.9424461
  93.4052806 100.9729843  67.3803906  93.3501610 100.8074114  66.4392350
  92.7798862 101.6805876  67.5366096  78.1945321  96.2097907  81.2065328
  78.8404185  95.6996861  81.6952554  77.9862472  96.9466589  81.7808754
  90.7198714 103.2778755  86.7057469  91.5889873 103.4519407  86.3444104
  90.2405465 104.0973172  86.5833198  86.7148932  90.4737952  66.9589225
  86.7027602  91.4179792  67.1157495  87.6072354  90.2908097  66.6648686
  84.8884894 110.3975856  78.3846903  85.7912140 110.4299466  78.7013398
  84.6622264 109.4676307  78.3993238  86.6438496 109.1506842  75.0456981
  85.6934127 109.1508704  74.9321354  86.9470982 108.4039577  74.5293016
  90.5301051  87.0680729  71.2135161  89.7633447  86.5139215  71.3591844
  90.9411756  87.1402597  72.0749313  82.5342812  93.3565524  85.3040343
  83.3974274  93.0002329  85.5143667  81.9608223  93.0179419  85.9915747
 102.3791189 114.9867381  76.1102744 103.0169599 114.8674128  75.4066084
 102.2612032 115.9348225  76.1690696  99.1880896 114.9394809  76.0464268
  98.8499407 114.8235874  75.1584803 100.0570664 114.5385974  76.0265274
  95.0467711 116.7930285  72.0361159  94.4832576 116.7020222  71.2677447
  94.9320106 115.9730190  72.5163652  99.6700679 116.0929661  82.0050474
  99.6589319 115.6982459  81.1330978  99.8321318 115.3595733  82.5984245
  92.5932143 118.2881477  74.8745380  93.3853435 117.9472302  74.4591679
  92.8328793 118.3976452  75.7947533  94.5522897 117.5490390  67.7462759
  95.3253773 117.0019377  67.6075634  94.9048296 118.4134640  67.9577220
  96.3907940 118.8766772  80.9529658  96.0997806 119.7812403  80.8376324
  97.0264924 118.9183300  81.6673727  97.3164147 116.2543621  77.5431017
  97.9127719 116.0299643  76.8287980  97.3739118 115.5128366  78.1456465
  96.8889175 113.7083056  65.3781208  97.1414696 113.1864578  64.6164671
  95.9513734 113.5449202  65.4807892 101.9332458 112.7118835  73.1855952
 102.7195547 112.2938258  72.8346369 102.1971162 113.6164927  73.3537600
 102.1042535 118.1491685  67.8844608 101.4688368 118.2226312  68.5965513
 101.7739941 118.7385284  67.2063688 107.3340885 112.6494068  74.0888930
 108.0666057 112.0793285  74.3226760 106.5780241 112.2615668  74.5295436
  96.6085464 115.6111162  67.5805583  96.4921722 114.9356066  68.2486668
  96.7187724 115.1243536  66.7637736  98.9517005 115.0721309  71.2852273
  98.5875212 114.5451930  71.9965194  99.8084120 114.6819778  71.1118758
 104.8566305 106.3615642  78.5483539 104.5249630 107.2311053  78.3244754
 104.2611919 106.0451926  79.2277569  98.5922492 110.1011209  66.2813621
  98.7596894 110.9691445  66.6484092  98.4019661 110.2638491  65.3574910
 101.3497825 118.5628188  77.9479452 101.0498548 119.4653227  77.8395259
 101.0048884 118.2960371  78.8000604  94.8010306 115.0141985  73.9816156
  93.8760803 114.8818199  74.1893848  95.0494719 115.7936204  74.4786098
 104.7494969 111.0810728  75.6276889 103.8411846 111.0126137  75.3335650
 104.6982564 111.5582673  76.4558714  98.5711712 112.5568867  67.2660288
  98.4511338 113.0025917  68.1045768  97.8764301 112.9054184  66.7073826
  92.1619117 114.6575258  74.8159945  92.2911498 114.9109737  75.7299357
  91.4816569 115.2502966  74.4964600  98.8235834 112.5000374  83.5711786
  98.0469168 113.0594294  83.5614651  99.4626397 112.9857157  84.0926656
 106.6156615 109.2827167  77.4054763 105.9730995 109.5759700  76.7594557
 106.1111543 109.1680087  78.2107959 104.2696779 113.0290340  68.0940622
 105.1814635 113.2617727  67.9188320 103.7606426 113.6127384  67.5315701
  97.0782207 115.3085827  83.1329753  97.8196891 115.8470871  82.8564577
  96.3719192 115.9352116  83.2901305 102.5537546 117.4514968  81.7301915
 102.9620902 117.0097378  80.9856547 101.8314808 116.8767595  81.9836108
  98.9068616 112.3887574  79.1035472  99.7529812 112.8126988  79.2470121
  98.8467254 111.7321199  79.7974035 102.8766361 118.0116158  75.4854203
 102.2475223 118.1761872  74.7830271 102.4892023 118.4257768  76.2565168
 102.0568062 110.0491943  80.7616645 101.8128994 110.8034003  80.2250921
 102.3327992 110.4277290  81.5963892 104.0106524 116.5930555  79.4393911
 104.2223420 117.2362315  78.7628292 103.9636273 115.7592872  78.9715841
 101.6132753 109.2048376  76.3430483 100.7517232 109.5029629  76.6347221
 101.6395188 109.4218775  75.4111516  98.4294323 117.7490566  72.7504289
  98.8932668 118.0278269  71.9608911  98.1651121 116.8474011  72.5677379
  95.3218404 117.2962048  75.6884052  95.8919761 117.7249316  75.0501536
  95.9126516 117.0144633  76.3868238  97.3663209 113.8713719  69.5593854
  98.0687252 114.3234762  70.0267780  97.0343837 113.2297538  70.1873747
  95.8143570 112.4625475  83.9345063  95.1842231 113.1441756  84.1680460
  95.7079658 112.3508557  82.9898201  91.1088543 112.1297271  74.8610987
  90.3187597 112.3854800  74.3851098  91.5999790 112.9445609  74.9663028
  93.0603288 112.4941851  71.8194464  92.2634451 112.6060545  72.3377960
  92.8328880 112.8328503  70.9535355  98.8908956 119.0186554  79.7676979
  98.9553388 119.4806961  80.6035150  98.1819880 118.3883919  79.8959288
  89.3926246 112.3827762  77.2925978  89.6434284 113.2674772  77.5583554
  89.9285794 112.2032363  76.5201070  98.6056973 120.6854661  69.6355959
  98.4702648 121.5306197  70.0640807  99.1466786 120.8873939  68.8721893
  95.0924313 106.7646241  86.2970314  94.6991259 106.2112440  86.9717958
  95.9090453 107.0756820  86.6876832  92.0586371 118.2030099  70.2083884
  92.5710891 118.9973350  70.3589449  92.7109084 117.5056390  70.1417486
  93.8681256 121.3195856  72.2906637  94.0447884 122.2413820  72.1027621
  94.6638089 121.0054275  72.7201017  98.0092274 108.1804120  83.8890571
  98.7501987 108.7811273  83.8095033  98.2410197 107.4381758  83.3308613
  93.1533612 113.3660488  82.1668800  93.0387127 112.4645745  82.4675899
  92.2978130 113.6124184  81.8153617  94.9912571 122.8374029  78.2916980
  95.5419996 122.7091093  77.5193973  94.1524047 123.1368918  77.9411872
  98.7879742 119.1025157  82.6361211  99.3208079 118.3413445  82.4060519
  98.2593823 118.8098809  83.3785365 101.9549437 104.2085223  78.1654852
 101.6113706 105.0986865  78.0893963 102.3228400 104.0186881  77.3024437
  90.0235288 116.5318754  70.9843455  90.8610510 116.9415762  70.7677162
  90.2013555 115.5918196  70.9543648 101.9199720 114.1993834  66.6727288
 101.4046343 114.9698439  66.9115675 101.6477028 113.5258970  67.2960349
  99.5046831 109.0443535  71.7312526  98.6488427 108.6550385  71.5518165
  99.9173783 109.1235496  70.8712311 101.0345977 106.5789878  76.1304086
 100.5310773 106.5420013  75.3171891 101.3276584 107.4882621  76.1900742
  97.2788863 106.6628608  75.1370267  98.1441860 106.4671417  74.7776157
  97.3466372 106.4338960  76.0639624 101.7086023 112.0720926  68.4987069
 101.4036158 112.3867076  69.3497212 102.6616465 112.1502346  68.5414402
 100.1532455 118.2311150  70.1480023  99.6253816 117.4963909  69.8353260
  99.6519957 119.0085826  69.9019991  94.8851182 108.8930816  72.5086634
  95.4594934 108.6705997  71.7759827  95.4722165 108.9619510  73.2615236
 103.9430760 114.7804543  73.3151011 104.4562641 115.4134535  73.8172720
 104.5931983 114.1805738  72.9494371  95.2120769 110.9235277  66.5282519
  94.3758082 111.2609964  66.8491794  95.0725539 110.7884257  65.5909656
  97.1873850 105.7672065  71.2361704  96.5338262 105.4521082  70.6118318
  97.1454324 105.1447805  71.9621527  98.2985055 116.0491360  63.1514996
  97.3912117 115.8180613  63.3506145  98.7956087 115.2528979  63.3388977
 100.4211590 112.2553998  75.5609351  99.5034152 112.4768945  75.4031039
 100.8371734 112.3300309  74.7021059 101.2046638 113.6545414  70.6912032
 101.9518457 114.1666811  70.3819154 101.4738228 113.3329467  71.5516425
  99.4773288 116.1503955  67.6738986  98.5684508 115.8662988  67.7711456
  99.5068372 116.5703033  66.8142293 103.6525475 110.6902530  72.6730821
 102.9148232 110.1779917  73.0041063 103.9052249 110.2502912  71.8614098
 103.7537103 103.4678782  73.2672590 104.0595979 102.6076146  72.9798505
 104.4789707 104.0596403  73.0671584  90.0461459 113.8709469  71.6554188
  89.8485859 113.2778830  70.9305255  89.4908123 113.5661679  72.3730127
  98.0258182 113.7632575  73.7748781  98.0806792 112.8106412  73.6991258
  97.2149384 113.9192015  74.2590080  99.1749376 117.6912698  65.0127064
  98.7368806 116.9748557  64.5532702  99.9159817 117.9188813  64.4512156
  95.9650542 112.3809635  71.5339160  95.1518408 112.6803806  71.9404352
  96.4609537 111.9865324  72.2513642 101.5624754 112.8451460  80.3654054
 101.9174142 113.0722933  81.2248520 102.2096885 113.1769836  79.7431309
  95.4564617 109.9527991  77.1500395  96.0963996 109.8116750  76.4523358
  94.6242148 109.6662504  76.7738997  96.2324921 119.2530421  73.2635387
  97.0265519 118.7580741  73.0617962  95.5216613 118.7248284  72.9003093
  92.5407684 113.3973503  69.3395140  91.6105273 113.3357958  69.5565102
  92.6365156 112.8749456  68.5431781  92.4593234 109.9228316  71.9273382
  92.7200051 110.8373649  71.8182542  93.2810406 109.4552758  72.0769995
  93.9318159 111.3366073  79.0972206  94.6041212 111.1283435  78.4484855
  93.1047945 111.1388159  78.6577439  99.8343731 107.9628014  81.1137867
  99.1871646 108.6617963  81.0202344 100.6044746 108.3964158  81.4814115
 100.0107865 115.8008779  79.1734687 100.9399925 115.9519938  79.0003654
  99.5898895 115.8892799  78.3183333  98.8096197 119.8259443  76.9433225
  98.6707283 119.4578228  77.8159163  98.0210793 120.3407083  76.7717182
 100.3601412 119.2041046  74.3322062 100.0251245 119.1641816  75.2279712
  99.8605358 118.5385762  73.8592473  94.3345656 114.6108676  79.8574643
  94.1965454 113.8788915  80.4586183  95.2450580 114.5217576  79.5758831
 103.2960604 116.5497080  64.6059122 102.6789774 115.8243908  64.5092175
 102.8277092 117.3106440  64.2626196  96.9627957 114.3228635  79.3458323
  97.6727575 113.6821827  79.3044942  96.9197265 114.5741530  80.2684504
  95.6756891 111.3093853  81.1653963  95.1394248 110.8584591  81.8175559
  95.0873599 111.4439762  80.4224427  95.0859150 110.7682504  63.7280426
  94.2088616 110.6471305  63.3642673  95.5616903 109.9768583  63.4759315
  86.6061290 115.5559664  73.8221933  87.2932330 115.2421394  73.2342949
  86.4509419 116.4601029  73.5489185  91.4096012 110.4449861  78.2506957
  91.3254201 109.8375530  77.5157367  90.5878718 110.9358879  78.2516453
 101.5819726 108.9303424  73.6177152 102.0788425 108.1773387  73.2978222
 100.8106707 108.9667741  73.0520361 102.6649507 117.6875111  71.1915576
 101.7305785 117.8076574  71.0220280 102.8426175 116.7847578  70.9275585
  98.1654695 111.0720807  73.3448837  97.7952482 110.5191848  74.0329742
  98.6613787 110.4678941  72.7923837 106.0522058 113.5292431  71.7265610
 106.5182510 114.3620422  71.6525912 106.5029558 113.0637412  72.4310868
  95.9943893 121.5318302  80.4403855  96.6953353 122.1654785  80.5933249
  95.5239008 121.8733034  79.6799494 104.0238721 105.8973018  75.7656511
 103.1101800 106.1277245  75.9338718 104.4531822 105.9811462  76.6170543
 103.7945179 114.0862910  78.2656405 103.1416629 114.3338817  77.6108858
 104.1725559 113.2727048  77.9318882  99.8432752 114.8282721  84.7522442
  99.1673389 114.7276850  85.4224817 100.6660386 114.6721935  85.2158439
  91.5911611 121.0654657  77.3734957  92.1765048 120.3198345  77.5062862
  91.3936450 121.3758614  78.2571621  94.4450266 124.1005905  72.3897400
  93.7760642 124.5852032  71.9061440  94.3063136 124.3475125  73.3040778
  86.1829266 113.6360258  76.0939401  86.2213365 113.1023848  76.8876519
  85.6769559 113.1095463  75.4750378  93.5620028 108.4824798  79.5901943
  93.6261355 109.3439629  79.1779341  93.4987149 107.8698800  78.8574301
  93.0372301 110.5547931  83.2374977  93.6644340 110.1725008  83.8512501
  92.1800220 110.3362133  83.6030670  89.8137844 112.3624360  69.1693332
  90.1091285 111.4535038  69.1160386  88.9125879 112.3412099  68.8474334
  93.3432091 110.4380356  75.1520881  92.6218676 111.0516324  75.0128354
  94.1325346 110.9738121  75.0737526  96.1458404 107.7734783  81.4261532
  96.6692806 108.0197079  82.1887842  95.9270737 108.6054818  81.0064670
  91.5425685 110.0438457  69.2932657  91.2138391 109.1635836  69.1107763
  91.8965056 109.9886126  70.1809046  94.6567508 110.3311427  69.6608135
  94.9963581 110.8597348  68.9386743  95.1039629 110.6691833  70.4366701
  97.3510949 108.7148478  79.1111203  97.0107769 107.9156291  79.5131883
  96.6449955 109.0150189  78.5388036  98.0027421 105.7997790  77.5638526
  98.8253490 105.3258268  77.4417416  98.2465484 106.5788274  78.0637212
  96.6435655 108.8286049  67.8601428  97.3644018 109.2067302  67.3565144
  96.0200960 109.5474926  67.9636405 100.7866778 109.5331198  68.7959760
 101.0030393 110.4155836  68.4948588 100.3060845 109.1417411  68.0665402
  95.5266000 112.4916911  75.3730504  95.3810580 112.8057214  76.2654786
  95.0491203 113.1101811  74.8201403  97.3862383 109.4819459  75.4211394
  97.3723951 108.5860552  75.0843692  98.1034811 109.4890123  76.0549680
  99.2388513 109.9156799  77.4664521  98.9806291 110.8373870  77.4648852
  98.7073554 109.5187234  78.1564986  90.0011662 115.0322255  78.3118166
  89.4565130 115.8082063  78.4438440  90.8791012 115.3793060  78.1537287
  96.7899279 108.3633839  70.6898964  96.9115190 107.4350485  70.8889852
  96.5001321 108.3772525  69.7777280  99.6590469 106.0488750  73.8265684
  99.6812166 106.1128083  72.8717664 100.0758528 105.2093258  74.0206190
  90.7877684 114.1592152  81.2048322  90.0459420 114.3074787  81.7912953
  90.4670428 114.4200417  80.3415072  91.2334297 122.0457580  73.2358717
  92.0592317 121.7461352  72.8557361  90.8828349 121.2765203  73.6848506
  96.2015831 121.3984049  75.3056391  95.5795840 120.7354754  75.0058619
  96.8720697 121.4245180  74.6230038  89.4342902 119.9643907  74.1947651
  88.5974811 119.5366081  74.0131652  89.4066548 120.1576350  75.1318442
  96.2740358 109.8765837  84.8988897  96.3228514 110.7527959  84.5166666
  96.8162872 109.3343230  84.3260540  95.7629337 119.9487972  68.7814851
  95.9117458 120.6323436  68.1281524  96.5695781 119.9293062  69.2964307
 104.1696841 113.2530354  82.8082069 105.0706704 113.1136819  82.5166067
 104.2444816 113.4184809  83.7480246  98.5039646 110.6297209  81.6535255
  97.6342956 110.9230775  81.3817844  98.7399127 111.2137654  82.3742519
 106.6298464 114.8128982  80.2044842 107.1052585 115.0056629  79.3963693
 105.7064029 114.8688168  79.9588226  93.5181970 115.9753150  69.7875920
  93.2728012 115.0715480  69.9856130  93.6877885 115.9770300  68.8455398
 101.2078680 106.8476826  79.1700676 101.7260624 107.5837853  78.8447164
 100.8533813 107.1540819  80.0047435  92.7877618 111.7081507  67.2862082
  92.0946863 111.7825862  66.6302118  92.5429370 110.9441851  67.8083599
 101.4591274 103.2677108  74.6901572 101.7393028 102.6000297  75.3161999
 102.2441881 103.4606204  74.1776236 105.3300133 111.6894742  78.4373147
 106.2817556 111.7892840  78.4585372 105.1603583 110.8973011  78.9471232
 103.3514512 108.7750326  78.6232548 102.7564444 109.0555338  77.9279037
 103.0664209 109.2644227  79.3949290  99.6471541 113.7796915  63.5942651
 100.5930646 113.6503123  63.6631069  99.2685786 113.0411577  64.0712079
 107.9582699 111.7011906  77.5973730 107.4421748 110.9170362  77.4103659
 108.8422648 111.3730622  77.7620250 105.6193426 105.4452921  73.5569543
 105.4218247 105.1368009  74.4412875 106.2293132 106.1714560  73.6867473
  99.5310234 117.8314661  85.0543308 100.4513243 118.0093260  85.2483355
  99.4959817 116.8870707  84.9023007  97.8314459 111.7046891  63.5297536
  96.9245914 111.4080004  63.6060250  98.1090440 111.4076710  62.6631823
  88.7492399 113.0253255  73.9796583  88.4295183 112.1718563  73.6870957
  88.2025827 113.2401833  74.7354550  92.5272307 115.7415696  77.6966089
  92.7458316 116.6732804  77.7154123  92.9398080 115.3823670  78.4820893
  99.4476524 106.2483781  69.6841778  98.6377253 105.9030866  70.0597024
 100.1360941 105.9391325  70.2729389 101.3767073 105.3261828  71.3066074
 101.9298111 105.7457281  71.9656097 101.6137159 104.3997576  71.3489030
  97.4000172 111.3148902  87.0868838  97.2996899 112.2643259  87.0180929
  97.1821714 110.9867141  86.2144908  96.6013243 108.5633827  63.6709516
  97.4632407 108.8888725  63.9305333  96.7863587 107.7765323  63.1582581
  88.6180659 116.6456166  75.9489704  87.9244130 116.2310119  75.4359659
  89.3653650 116.6876703  75.3523123 104.7545880 107.4362353  70.8144739
 104.1744549 108.0947157  70.4322791 104.4881812 106.6139698  70.4032156
 103.2049446 106.8367411  73.0166059 103.7049224 106.9483945  72.2080378
 103.8485054 106.5328464  73.6566867  97.2631442 114.7446040  85.9033900
  96.7798524 115.5446401  86.1097789  97.3492381 114.7553985  84.9501344
  90.5317402 116.5774420  73.8255719  90.5088090 116.6762107  72.8737602
  90.8418038 117.4239571  74.1472885  93.1904779 118.6350575  77.9402334
  94.1448033 118.6034518  77.8732265  92.9917303 118.1741199  78.7552560
  93.7804162 117.2051691  80.5073131  94.5997051 117.6995770  80.5307969
  94.0540969 116.2883659  80.4790699 103.5370758 109.5962444  69.8701087
 102.6496613 109.8812094  69.6521282 103.9524747 109.4356207  69.0228364
 106.8885294 109.6208965  73.5855426 107.6645684 110.1105417  73.8580043
 106.1633428 110.0467019  74.0427296 109.3257853 110.3336584  74.6429367
 109.9202343 110.0932320  73.9322675 109.3984436 109.6143714  75.2702903
  91.5455008 124.1770195  74.9572532  91.4109476 123.4170596  74.3910530
  91.1287070 124.9011095  74.4901320 103.5111782 115.1116979  70.0851377
 103.4546983 115.5685531  69.2459009 104.0640124 114.3507664  69.9074220
 107.3216587 110.9006711  70.9101497 107.0653522 110.5003347  71.7409704
 106.6969455 111.6150505  70.7851636 104.2446561 116.3021761  67.3803906
 104.1895365 116.1366032  66.4392350 103.6192616 117.0097794  67.5366096
  89.0339076 111.5389825  81.2065328  89.6797939 111.0288779  81.6952554
  88.8256227 112.2758507  81.7808754  97.5542686 105.8029870  66.9589225
  97.5421356 106.7471710  67.1157495  98.4466108 105.6200015  66.6648686
 101.3694806 102.3972646  71.2135161 100.6027202 101.8431133  71.3591844
 101.7805511 102.4694515  72.0749313  93.3736567 108.6857442  85.3040343
  94.2368028 108.3294247  85.5143667  92.8001977 108.3471337  85.9915747
  37.3428664   0.0177997  62.8348050  37.9807074  -0.1015255  62.1311390
  37.2249506   0.9658841  62.8936002  34.1518370  -0.0294575  62.7709575
  33.8136881  -0.1453510  61.8830110  35.0208138  -0.4303409  62.7510581
  30.0105186   1.8240902  58.7606466  29.4470051   1.7330839  57.9922754
  29.8957581   1.0040806  59.2408958  34.6338153   1.1240277  68.7295780
  34.6226794   0.7293075  67.8576284  34.7958792   0.3906350  69.3229552
  27.5569617   3.3192093  61.5990686  28.3490909   2.9782918  61.1836986
  27.7966268   3.4287069  62.5192840  35.5904744   5.4911870  54.0720931
  34.9392724   6.0765950  53.6854945  36.3849107   6.0218065  54.1315968
  29.5160371   2.5801007  54.4708065  30.2891247   2.0329994  54.3320941
  29.8685770   3.4445256  54.6822527  31.3545414   3.9077389  67.6774964
  31.0635280   4.8123020  67.5621631  31.9902398   3.9493917  68.3919034
  32.2801621   1.2854238  64.2676324  32.8765193   1.0610260  63.5533287
  32.3376592   0.5438983  64.8701772  31.8526649  -1.2606327  52.1026515
  32.1052170  -1.7824806  51.3409978  30.9151208  -1.4240182  52.2053199
  36.8969932  -2.2570549  59.9101258  37.6833021  -2.6751126  59.5591675
  37.1608636  -1.3524457  60.0782907  37.0680009   3.1802302  54.6089915
  36.4325842   3.2536928  55.3210820  36.7377416   3.7695900  53.9308994
  42.2978359  -2.3195316  60.8134237  43.0303531  -2.8896099  61.0472066
  41.5417715  -2.7073715  61.2540742  31.5722938   0.6421779  54.3050890
  31.4559196  -0.0333318  54.9731974  31.6825198   0.1554153  53.4883043
  33.9154479   0.1031926  58.0097579  33.5512686  -0.4237453  58.7210501
  34.7721595  -0.2869605  57.8364065  39.8203780  -8.6073741  65.2728845
  39.4887104  -7.7378330  65.0490060  39.2249393  -8.9237457  65.9522876
  33.5559966  -4.8678174  53.0058928  33.7234368  -3.9997938  53.3729399
  33.3657135  -4.7050893  52.0820217  36.3135299   3.5938805  64.6724758
  36.0136022   4.4963843  64.5640565  35.9686359   3.3270988  65.5245911
  29.7647781   0.0452601  60.7061463  28.8398277  -0.0871185  60.9139154
  30.0132194   0.8246821  61.2031405  39.7132443  -3.8878655  62.3522195
  38.8049320  -3.9563247  62.0580956  39.6620039  -3.4106710  63.1804021
  33.5349187  -2.4120517  53.9905595  33.4148812  -1.9663466  54.8291075
  32.8401775  -2.0635199  53.4319133  27.1256592  -0.3114125  61.5405252
  27.2548973  -0.0579646  62.4544663  26.4454043   0.2813583  61.2209907
  31.2956079  10.3583125  57.6395726  31.2180109  11.3090950  57.7184206
  30.6917722  10.0128997  58.2970652  33.7873309  -2.4689010  70.2957093
  33.0106643  -1.9095090  70.2859957  34.4263872  -1.9832227  70.8171963
  41.5794089  -5.6862217  64.1300069  40.9368469  -5.3929684  63.4839864
  41.0749018  -5.8009297  64.9353266  39.2334253  -1.9399044  54.8185929
  40.1452109  -1.7071657  54.6433626  38.7243900  -1.3561999  54.2561007
  32.0419681   0.3396444  69.8575060  32.7834365   0.8781488  69.5809883
  31.3356666   0.9662732  70.0146612  37.5175021   2.4825584  68.4547221
  37.9258377   2.0407995  67.7101854  36.7952282   1.9078212  68.7081414
  33.8706091  -2.5801809  65.8280778  34.7167286  -2.1562396  65.9715427
  33.8104728  -3.2368185  66.5219341  37.8403835   3.0426775  62.2099510
  37.2112698   3.2072489  61.5075578  37.4529497   3.4568384  62.9810474
  41.7193067   3.9781213  59.5643874  41.0344105   4.3580114  59.0140907
  41.8036916   4.5876539  60.2975822  37.0205536  -4.9197441  67.4861952
  36.7766468  -4.1655380  66.9496228  37.2965466  -4.5412093  68.3209199
  38.9743999   1.6241172  66.1639217  39.1860894   2.2672932  65.4873598
  38.9273747   0.7903488  65.6961147  36.5770228  -5.7641008  63.0675790
  35.7154707  -5.4659754  63.3592527  36.6032662  -5.5470609  62.1356822
  33.3931797   2.7801183  59.4749595  33.8570143   3.0588886  58.6854218
  33.1288595   1.8784627  59.2922686  30.2855878   2.3272664  62.4129358
  30.8557235   2.7559933  61.7746843  30.8763990   2.0455249  63.1113544
  32.3300683  -1.0975665  56.2839160  33.0324726  -0.6454621  56.7513087
  31.9981312  -1.7391846  56.9119053  30.7781045  -2.5063908  70.6590370
  30.1479705  -1.8247627  70.8925767  30.6717133  -2.6180827  69.7143508
  40.0889827   4.5013127  64.3361575  40.9107270   4.0993314  64.0544256
  40.0852230   4.3981361  65.2877691  33.8546430   4.0497170  66.4922285
  33.9190863   4.5117578  67.3280457  33.1457354   3.4194535  66.6204595
  48.1795820   0.8451876  60.6846546  47.4259528   0.2759274  60.5290551
  48.3143361   0.8114540  61.6317181  33.5694448   5.7165278  56.3601266
  33.4340123   6.5616814  56.7886113  34.1104260   5.9184555  55.5967199
  27.0223845   3.2340716  56.9329191  27.5348366   4.0283966  57.0834755
  27.6746558   2.5367006  56.8662792  28.8318730   6.3506472  59.0151944
  29.0085358   7.2724437  58.8272928  29.6275563   6.0364891  59.4446324
  35.1962924   6.3388844  70.4901608  34.7526778   5.5525223  70.1722512
  35.8580138   6.5267995  69.8245498  29.9550045   7.8684646  65.0162286
  30.5057470   7.7401709  64.2439280  29.1161521   8.1679535  64.6657179
  37.2944162   6.6191644  68.5183009  37.2762638   7.4400525  68.0263278
  38.2164082   6.4945719  68.7433150  33.7517216   4.1335774  69.3606517
  34.2845553   3.3724062  69.1305825  33.2231297   3.8409426  70.1030672
  36.8837194  -0.7695549  53.3972594  36.3683817   0.0009055  53.6360982
  36.6114503  -1.4430413  54.0205656  41.8571468   1.9836805  55.3325768
  41.0800911   1.6447965  54.8880930  42.5362949   1.9889429  54.6580733
  36.6723497  -2.8968457  55.2232375  36.3673633  -2.5822308  56.0742519
  37.6253939  -2.8187037  55.2659708  35.1169929   3.2621766  56.8725329
  34.5891291   2.5274526  56.5598567  34.6157432   4.0396443  56.6265298
  40.0962775   1.4570787  61.9892376  39.4386450   2.1470048  62.0772504
  40.9003174   1.8467219  62.3326362  38.9068234  -0.1884841  60.0396317
  39.4200116   0.4445151  60.5418027  39.5569458  -0.7883645  59.6739677
  33.2622529   1.0801977  49.8760302  32.3549591   0.8491230  50.0751451
  33.7593561   0.2839596  50.0634284  36.1690608   9.7899484  52.7956989
  35.4952307  10.0931180  53.4041946  36.5556430  10.5928564  52.4462446
  35.3849065  -2.7135385  62.2854658  34.4671626  -2.4920438  62.1276346
  35.8009208  -2.6389075  61.4266365  36.1684113  -1.3143969  57.4157338
  36.9155931  -0.8022572  57.1064460  36.4375702  -1.6359917  58.2761732
  34.4410763   1.1814571  54.3984292  33.5321982   0.8973604  54.4956762
  34.4705846   1.6013650  53.5387599  39.6730030   4.7921161  58.1675460
  39.2192357   3.9512071  58.2240650  39.0423997   5.4282559  58.5050240
  38.6162950  -4.2786853  59.3976127  37.8785706  -4.7909467  59.7286370
  38.8689723  -4.7186471  58.5859404  38.1162969   6.6297658  59.1025278
  38.4085944   7.1902715  58.3837644  38.6261590   6.9226219  59.8578437
  32.9895657  -1.2056808  60.4994088  33.0444267  -2.1582972  60.4236564
  32.1786859  -1.0497369  60.9835386  34.1386850   2.7223315  51.7372371
  33.7006280   2.0059174  51.2778008  34.8797291   2.9499430  51.1757462
  30.9288017  -2.5879748  58.2584467  30.1155882  -2.2885578  58.6649659
  31.4247011  -2.9824060  58.9758949  33.0796595   7.4078009  60.1918731
  33.0372773   7.6338855  59.2627263  33.9959293   7.1741383  60.3404533
  36.5262228  -2.1237924  67.0899361  36.8811616  -1.8966451  67.9493826
  37.1734360  -1.7919547  66.4676616  42.2559965   0.9980512  57.7948690
  42.1177864   1.1882108  56.8669879  41.8996184   1.7599895  58.2516741
  42.2829345   3.0657039  62.8059961  42.7165852   2.9732328  63.6543015
  42.9960926   3.0414540  62.1679977  31.1962395   4.2841038  59.9880694
  31.9902994   3.7891358  59.7863269  30.4854088   3.7558901  59.6248400
  36.0157240   6.6659133  64.3393062  36.0694262   7.2350070  65.1070778
  35.1472021   6.8361018  63.9747099  43.1444894   3.1080740  65.3392847
  43.3380785   4.0126550  65.5852121  43.0445513   2.6488159  66.1731432
  38.2060003   3.2587482  70.9133727  38.0545510   3.0298034  69.9963811
  38.1964683   4.2158084  70.9265072  34.9745340   0.8319395  65.8979994
  35.9037400   0.9830555  65.7248961  34.5536370   0.9203416  65.0428640
  33.7733671   4.8570060  63.6678531  33.6344757   4.4888844  64.5404469
  32.9848268   5.3717699  63.4962489  34.3681823   9.9579156  55.0104068
  34.5433579   9.4867199  55.8249690  33.6814611  10.5844922  55.2385328
  35.3238886   4.2351662  61.0567369  34.9888719   4.1952432  61.9525019
  34.8242832   3.5696378  60.5837779  29.2983130  -0.3580708  66.5819950
  29.1602928  -1.0900469  67.1831489  30.2088054  -0.4471808  66.3004138
  38.2598078   1.5807697  51.3304429  37.6427249   0.8554525  51.2337481
  37.7914567   2.3417057  50.9871503  31.9265431  -0.6460748  66.0703630
  32.6365050  -1.2867556  66.0290248  31.8834739  -0.3947853  66.9929811
  39.9152210   6.2906605  68.9910209  39.8564756   5.6065825  68.3240792
  40.3171728   7.0325595  68.5390835  28.9342909  13.1068519  61.7843928
  29.1739507  13.7387043  62.4622946  28.0912105  12.7556559  62.0709287
  39.9169617   4.2546189  67.2224189  39.0296396   3.9172111  67.3450588
  40.4868168   3.5229220  67.4592954  33.4470770   8.9147641  64.1885432
  33.3740942   9.7202613  64.7004736  33.0048164   9.1139607  63.3633453
  33.2360550   8.1519411  57.6988253  32.4528072   8.6941092  57.7926478
  33.9353295   8.6693391  58.0982495  36.5457200  -6.0385959  60.3422459
  37.0425900  -6.7915997  60.0223529  35.7744182  -6.0021643  59.7765668
  44.3986958  -0.3345594  61.9840750  44.3876834   0.5479122  61.6134683
  43.5304337  -0.6874043  61.7895287  35.9069454   8.8134475  66.3443591
  36.6197426   9.4481940  66.2719492  35.4159483   8.9098341  65.5283592
  37.6286981   2.7185728  57.9160882  36.6943260   2.8387190  57.7465587
  37.8063649   1.8158195  57.6520892  33.1292169  -3.8968576  60.0694143
  32.7589956  -4.4497536  60.7575049  33.6251261  -4.5010443  59.5169143
  41.0159532  -1.4396953  58.4510916  41.4819984  -0.6068961  58.3771219
  41.4667033  -1.9051971  59.1556175  30.9581367   6.5628919  67.1649161
  31.6590827   7.1965402  67.3178556  30.4876482   6.9043650  66.4044801
  39.0835763   4.9046869  55.4497068  39.3595607   4.7903463  56.3590942
  38.2140262   4.5064353  55.4109241  38.7582653  -0.8826474  64.9901712
  38.1054104  -0.6350566  64.3354164  39.1363033  -1.6962336  64.6564189
  35.7189827   9.1533219  59.0929882  35.9012222   8.3354875  59.5557634
  36.5422813   9.3700912  58.6554772  36.0531993   8.0801405  56.3544930
  36.5819759   7.5693859  55.7415093  36.3160212   7.7643935  57.2190463
  34.8070226  -0.1406663  71.4767749  34.1310863  -0.2412533  72.1470124
  35.6297860  -0.2967449  71.9403746  26.5549086   6.0965274  64.0980264
  27.1402522   5.3508962  64.2308168  26.3573924   6.4069231  64.9816928
  29.4087741   9.1316521  59.1142706  28.7398116   9.6162649  58.6306746
  29.2700610   9.3785742  60.0286085  33.5493009  11.1660265  65.7125365
  34.1011317  11.3291886  66.4774450  33.8899203  11.7564703  65.0405390
  38.4003884   5.9921522  71.5674019  38.9443788   6.6051481  71.0728974
  37.8190729   6.5501101  72.0841032  36.6861397   9.1142240  62.6989047
  36.5612536   8.3131980  62.1899992  37.3440488   9.6088434  62.2103017
  38.7496305   6.9151260  64.3268597  37.8026641   6.7956612  64.2546924
  39.0979078   6.0273758  64.4094858  35.7542738   6.7103977  60.5272949
  35.6067701   5.7820684  60.7080519  36.5796232   6.7324067  60.0430024
  39.3576860   7.5332535  61.6137822  40.2823408   7.3275397  61.4762273
  39.1892164   7.2848936  62.5227163  35.7504253  -5.4358186  55.5205066
  35.9667867  -4.5533548  55.2193895  35.2698320  -5.8271972  54.7910708
  30.4903474  -2.4772473  62.0975811  30.3448055  -2.1632169  62.9900093
  30.0128678  -1.8587572  61.5446710  39.1472176   8.0518203  56.9699913
  39.3209054   7.4864625  56.2173766  39.6401068   8.8519098  56.7879403
  45.0011568   0.8154626  58.5890213  45.4442714   0.0661951  58.1909336
  44.1238078   0.8064762  58.2063945  40.1347349   7.3684967  54.0696812
  40.8298253   7.9891660  54.2884126  40.4770499   6.5180318  54.3449190
  42.0338772   4.8184673  55.5984142  42.5590096   5.1571945  54.8733463
  41.9461125   3.8831688  55.4147277  33.6958821   8.7318746  67.7274019
  34.0045947   8.4867893  68.5996719  34.4934303   8.9365385  67.2392889
  33.7179433  10.8856656  59.9579396  33.2784423  10.3933035  60.6512252
  34.4687550  10.3429624  59.7171471  26.1971772   7.0768197  59.9604024
  27.0229792   6.7771969  59.5802667  25.8465824   6.3075819  60.4093812
  31.1653305   6.4294665  62.0301697  30.5433314   5.7665370  61.7303925
  31.8358172   6.4555797  61.3475345  24.3980377   4.9954523  60.9192957
  23.5612285   4.5676698  60.7376959  24.3704022   5.1886967  61.8563749
  41.7232678   5.4517576  70.9035340  40.9328222   5.4341715  70.3639840
  41.4866033   5.9905870  71.6584377  41.8430553   2.3010043  68.2168069
  41.8928558   2.1360050  69.1583592  41.7344476   1.4337302  67.8265950
  30.7266812   4.9798588  55.5060158  30.8754932   5.6634053  54.8526831
  31.5333255   4.9603678  56.0209614  39.1334315  -1.7159029  69.5327376
  40.0344178  -1.8552564  69.2411373  39.2082290  -1.5504574  70.4725553
  33.4677121  -4.3392174  68.3780562  32.5980430  -4.0458608  68.1063151
  33.7036601  -3.7551729  69.0987826  43.3448750   4.7206984  68.4610091
  43.0533558   5.0836965  69.2973551  42.7320881   4.0073993  68.2823423
  44.5444432   2.2859864  60.9812661  45.3791324   2.7249668  61.1450221
  44.6803561   1.8098517  60.1620907  41.5935938  -0.1560401  66.9290149
  42.0690060   0.0367245  66.1209000  40.6701504  -0.1001215  66.6833532
  28.4819445   1.0063766  56.5121227  28.2365487   0.1026096  56.7101437
  28.6515359   1.0080917  55.5700705  34.2262217   7.4746719  52.9771905
  33.6536184   8.0936906  52.5242377  34.7995011   8.0246081  53.5111827
  40.2937607  -3.2794641  65.1618454  41.2455030  -3.1796543  65.1830678
  40.1241058  -4.0716372  65.6716538  38.3151987  -6.1939058  65.3477855
  37.7201919  -5.9134045  64.6524344  38.0301683  -5.7045157  66.1194596
  37.4459477   7.7583869  54.1080488  38.3790150   7.6929431  54.3113363
  37.3582690   8.5940136  53.6495020  40.0747494   7.0749739  51.0684435
  39.9961125   6.7409603  51.9620193  40.8957161   7.5671507  51.0675907
  42.7725685  -0.0588521  64.2760754  42.7402005  -0.9972521  64.4620438
  43.3826309   0.0195515  63.5426579  34.6109016  -1.1892468  50.3187958
  35.5568121  -1.3186260  50.3876376  34.2323261  -1.9277806  50.7957386
  42.9220173  -3.2677478  64.3219037  42.4059222  -4.0519021  64.1348966
  43.8060122  -3.5958761  64.4865556  40.5830900  -9.5236462  60.2814850
  40.3855721  -9.8321374  61.1658182  41.1930606  -8.7974823  60.4112779
  48.5902235   1.0027485  63.4166791  49.3205623   0.7412774  63.9774494
  47.9809180   0.2656207  63.4568859  46.6717532  -0.8564652  64.0141242
  45.9450696  -0.9908687  63.4057733  46.2564819  -0.5487823  64.8197960
  34.4947708   2.8625278  71.7788615  35.4150718   3.0403877  71.9728661
  34.4597291   1.9181323  71.6268314  32.7951933  -3.2642492  50.2542843
  31.8883388  -3.5609379  50.3305557  33.0727914  -3.5612674  49.3877129
  27.4909781   0.7726312  64.4211396  27.7095791   1.7043420  64.4399430
  27.9035555   0.4134287  65.2066200  32.3637646  -3.6540482  73.8114145
  32.2634373  -2.7046125  73.7426236  32.1459188  -3.9822243  72.9390215
  39.7183354  -7.5327030  57.5390045  39.1382023  -6.8742226  57.1568098
  39.4519287  -8.3549686  57.1277463  38.1686920  -8.1321973  59.7411366
  38.6686699  -8.0205438  58.9325684  38.8122528  -8.4360920  60.3812174
  32.2268916  -0.2243343  72.6279207  31.7435998   0.5757017  72.8343096
  32.3129855  -0.2135398  71.6746651  25.4954876   1.6085037  60.5501026
  25.4725564   1.7072724  59.5982909  25.8055512   2.4550187  60.8718192
  28.1542254   3.6661192  64.6647640  29.1085507   3.6345134  64.5977572
  27.9554777   3.2051815  65.4797866  28.7441636   2.2362308  67.2318438
  29.5634525   2.7306386  67.2553275  29.0178444   1.3194276  67.2036005
  38.5008232  -5.3726940  56.5946393  37.6134087  -5.0877289  56.3766588
  38.9162221  -5.5333177  55.7473670  41.8522768  -5.3480419  60.3100733
  42.6283158  -4.8583966  60.5825350  41.1270902  -4.9222365  60.7672602
  44.2895327  -4.6352800  61.3674673  44.8839818  -4.8757064  60.6567982
  44.3621911  -5.3545669  61.9948210  26.5092483   9.2080811  61.6817838
  26.3746950   8.4481212  61.1155836  26.0924545   9.9321711  61.2146627
  37.6451446   4.3917735  50.6894413  38.3487296   4.5967737  51.3052069
  36.9214094   4.9594497  50.9543497  38.4749256   0.1427596  56.8096684
  38.4184457   0.5996147  55.9704316  39.0277598  -0.6181719  56.6319526
  42.2854062  -4.0682672  57.6346803  42.0290996  -4.4686036  58.4655011
  41.6606930  -3.3538878  57.5096942  46.5966400  -1.3286599  60.1418095
  46.0365958  -1.2593410  60.9149657  45.9909903  -1.5045614  59.4217591
  29.6661608  10.1050128  61.8936281  29.5493993  11.0495561  61.7914971
  28.8454055   9.8023690  62.2822080  39.5538143   4.8300264  52.7392874
  40.3883747   4.3981462  52.5570348  39.3922486   4.6582278  53.6669768
  39.2084035   1.3332377  54.1049213  39.1532839   1.1676649  53.1637657
  38.5830090   2.0408410  54.2611403  36.5229942   3.6381289  73.4302776
  37.3921102   3.8121941  73.0689411  36.0436694   4.4575706  73.3078505
  30.6916123  10.7578390  65.1092209  31.5943369  10.7902000  65.4258704
  30.4653493   9.8278841  65.1238545  32.4469725   9.5109377  61.7702288
  31.4965356   9.5111238  61.6566660  32.7502211   8.7642111  61.2538322
  48.1822418  15.3469915  62.8348050  48.8200828  15.2276662  62.1311390
  48.0643261  16.2950759  62.8936002  44.9912124  15.2997343  62.7709575
  44.6530636  15.1838408  61.8830110  45.8601893  14.8988508  62.7510581
  40.8498940  17.1532820  58.7606466  40.2863805  17.0622757  57.9922754
  40.7351335  16.3332724  59.2408958  45.4731907  16.4532195  68.7295780
  45.4620548  16.0584993  67.8576284  45.6352547  15.7198268  69.3229552
  38.3963372  18.6484011  61.5990686  39.1884664  18.3074836  61.1836986
  38.6360022  18.7578986  62.5192840  46.4298499  20.8203787  54.0720931
  45.7786478  21.4057868  53.6854945  47.2242862  21.3509982  54.1315968
  40.3554126  17.9092924  54.4708065  41.1285002  17.3621912  54.3320941
  40.7079525  18.7737174  54.6822527  42.1939168  19.2369307  67.6774964
  41.9029034  20.1414938  67.5621631  42.8296153  19.2785834  68.3919034
  43.1195375  16.6146155  64.2676324  43.7158948  16.3902178  63.5533287
  43.1770347  15.8730901  64.8701772  42.6920404  14.0685591  52.1026515
  42.9445924  13.5467112  51.3409978  41.7544963  13.9051736  52.2053199
  47.7363687  13.0721369  59.9101258  48.5226776  12.6540792  59.5591675
  48.0002391  13.9767461  60.0782907  47.9073764  18.5094219  54.6089915
  47.2719597  18.5828846  55.3210820  47.5771170  19.0987818  53.9308994
  53.1372114  13.0096602  60.8134237  53.8697286  12.4395819  61.0472066
  52.3811469  12.6218203  61.2540742  42.4116692  15.9713697  54.3050890
  42.2952951  15.2958600  54.9731974  42.5218952  15.4846070  53.4883043
  44.7548233  15.4323844  58.0097579  44.3906441  14.9054465  58.7210501
  45.6115349  15.0422313  57.8364065  50.6597534   6.7218176  65.2728845
  50.3280859   7.5913587  65.0490060  50.0643147   6.4054460  65.9522876
  44.3953720  10.4613743  53.0058928  44.5628123  11.3293980  53.3729399
  44.2050889  10.6241025  52.0820217  47.1529054  18.9230722  64.6724758
  46.8529777  19.8255761  64.5640565  46.8080113  18.6562905  65.5245911
  40.6041535  15.3744519  60.7061463  39.6792031  15.2420733  60.9139154
  40.8525948  16.1538738  61.2031405  50.5526197  11.4413262  62.3522195
  49.6443075  11.3728671  62.0580956  50.5013793  11.9185207  63.1804021
  44.3742941  12.9171401  53.9905595  44.2542566  13.3628452  54.8291075
  43.6795530  13.2656718  53.4319133  37.9650346  15.0177793  61.5405252
  38.0942727  15.2712272  62.4544663  37.2847797  15.6105501  61.2209907
  42.1349833  25.6875043  57.6395726  42.0573863  26.6382868  57.7184206
  41.5311477  25.3420915  58.2970652  44.6267063  12.8602908  70.2957093
  43.8500397  13.4196828  70.2859957  45.2657626  13.3459691  70.8171963
  52.4187844   9.6429701  64.1300069  51.7762224   9.9362234  63.4839864
  51.9142772   9.5282621  64.9353266  50.0728007  13.3892874  54.8185929
  50.9845864  13.6220261  54.6433626  49.5637654  13.9729918  54.2561007
  42.8813435  15.6688361  69.8575060  43.6228120  16.2073405  69.5809883
  42.1750421  16.2954650  70.0146612  48.3568775  17.8117502  68.4547221
  48.7652131  17.3699912  67.7101854  47.6346037  17.2370129  68.7081414
  44.7099845  12.7490109  65.8280778  45.5561040  13.1729522  65.9715427
  44.6498483  12.0923733  66.5219341  48.6797590  18.3718692  62.2099510
  48.0506452  18.5364407  61.5075578  48.2923252  18.7860302  62.9810474
  52.5586822  19.3073130  59.5643874  51.8737860  19.6872032  59.0140907
  52.6430671  19.9168457  60.2975822  47.8599290  10.4094477  67.4861952
  47.6160222  11.1636537  66.9496228  48.1359221  10.7879825  68.3209199
  49.8137753  16.9533089  66.1639217  50.0254648  17.5964849  65.4873598
  49.7667501  16.1195406  65.6961147  47.4163982   9.5650910  63.0675790
  46.5548461   9.8632164  63.3592527  47.4426417   9.7821309  62.1356822
  44.2325552  18.1093101  59.4749595  44.6963897  18.3880804  58.6854218
  43.9682350  17.2076545  59.2922686  41.1249633  17.6564582  62.4129358
  41.6950990  18.0851850  61.7746843  41.7157744  17.3747167  63.1113544
  43.1694438  14.2316253  56.2839160  43.8718481  14.6837297  56.7513087
  42.8375066  13.5900072  56.9119053  41.6174799  12.8228010  70.6590370
  40.9873460  13.5044290  70.8925767  41.5110887  12.7111091  69.7143508
  36.9119772  12.4899806  61.5856294  36.1218826  12.7457334  61.1096405
  37.4031019  13.3048143  61.6908334  50.9283581  19.8305045  64.3361575
  51.7501025  19.4285232  64.0544256  50.9245984  19.7273279  65.2877691
  38.8634517  12.8544385  58.5439771  38.0665680  12.9663079  59.0623266
  38.6360109  13.1931037  57.6780661  44.6940185  19.3789088  66.4922285
  44.7584617  19.8409495  67.3280457  43.9851108  18.7486453  66.6204595
  35.1957475  12.7430296  64.0171285  35.4465513  13.6277306  64.2828861
  35.7317023  12.5634898  63.2446377  59.0189574  16.1743793  60.6846546
  58.2653283  15.6051191  60.5290551  59.1537115  16.1406458  61.6317181
  44.4088202  21.0457196  56.3601266  44.2733877  21.8908731  56.7886113
  44.9498015  21.2476473  55.5967199  40.8955542   7.1248775  73.0215621
  40.5022487   6.5714974  73.6963265  41.7121682   7.4359354  73.4122138
  37.8617600  18.5632634  56.9329191  38.3742120  19.3575884  57.0834755
  38.5140312  17.8658924  56.8662792  39.6712484  21.6798390  59.0151944
  39.8479113  22.6016355  58.8272928  40.4669318  21.3656809  59.4446324
  43.8123503   8.5406654  70.6135877  44.5533216   9.1413808  70.5340340
  44.0441426   7.7984292  70.0553920  38.9564841  13.7263022  68.8914107
  38.8418356  12.8248279  69.1921206  38.1009359  13.9726718  68.5398924
  46.0356679  21.6680762  70.4901608  45.5920533  20.8817141  70.1722512
  46.6973892  21.8559913  69.8245498  40.7943800  23.1976564  65.0162286
  41.3451225  23.0693627  64.2439280  39.9555276  23.4971453  64.6657179
  48.1337917  21.9483562  68.5183009  48.1156392  22.7692443  68.0263278
  49.0557837  21.8237637  68.7433150  44.5910971  19.4627691  69.3606517
  45.1239308  18.7015980  69.1305825  44.0625052  19.1701343  70.1030672
  47.7580666   4.5687757  64.8900159  47.4144935   5.4589399  64.8139270
  48.1259628   4.3789415  64.0269744  35.8266516  16.8921288  57.7088761
  36.6641738  17.3018296  57.4922469  36.0044784  15.9520730  57.6788955
  47.7230949  14.5596368  53.3972594  47.2077572  15.3300973  53.6360982
  47.4508257  13.8861505  54.0205656  45.3078060   9.4046069  58.4557833
  44.4519656   9.0152920  58.2763471  45.7205011   9.4838030  57.5957618
  46.8377206   6.9392413  62.8549392  46.3342002   6.9022548  62.0417198
  47.1307813   7.8485155  62.9146049  43.0820092   7.0231142  61.8615574
  43.9473089   6.8273951  61.5021464  43.1497601   6.7941494  62.7884931
  52.6965223  17.3128723  55.3325768  51.9194665  16.9739883  54.8880930
  53.3756704  17.3181346  54.6580733  47.5117252  12.4323461  55.2232375
  47.2067387  12.7469610  56.0742519  48.4647694  12.5104880  55.2659708
  45.9563684  18.5913684  56.8725329  45.4285045  17.8566443  56.5598567
  45.4551186  19.3688360  56.6265298  50.9356530  16.7862704  61.9892376
  50.2780204  17.4761966  62.0772504  51.7396929  17.1759136  62.3326362
  40.6882411   9.2533350  59.2331941  41.2626163   9.0308532  58.5005134
  41.2753394   9.3222045  59.9860542  49.7461988  15.1407077  60.0396317
  50.2593870  15.7737069  60.5418027  50.3963212  14.5408273  59.6739677
  41.0151998  11.2837811  53.2527826  40.1789311  11.6212498  53.5737101
  40.8756768  11.1486791  52.3154963  42.9905079   6.1274599  57.9607010
  42.3369491   5.8123616  57.3363625  42.9485553   5.5050340  58.6866833
  44.1016284  16.4093894  49.8760302  43.1943345  16.1783148  50.0751451
  44.5987316  15.6131513  50.0634284  47.0084363  25.1191401  52.7956989
  46.3346061  25.4223098  53.4041946  47.3950185  25.9220482  52.4462446
  46.2242819  12.6156533  62.2854658  45.3065381  12.8371480  62.1276346
  46.6402963  12.6902843  61.4266365  47.0077867  14.0147948  57.4157338
  47.7549686  14.5269346  57.1064460  47.2769457  13.6932001  58.2761732
  45.2804517  16.5106489  54.3984292  44.3715736  16.2265522  54.4956762
  45.3099601  16.9305568  53.5387599  50.5123785  20.1213079  58.1675460
  50.0586112  19.2803988  58.2240650  49.8817751  20.7574477  58.5050240
  49.4556704  11.0505065  59.3976127  48.7179461  10.5382451  59.7286370
  49.7083478  10.6105446  58.5859404  48.9556724  21.9589575  59.1025278
  49.2479698  22.5194632  58.3837644  49.4655344  22.2518136  59.8578437
  49.5568331   3.8281317  59.9917897  49.8627208   2.9678680  59.7043812
  50.2820936   4.4198937  59.7916891  35.8492688  14.2312003  58.3799495
  35.6517087  13.6381364  57.6550561  35.2939352  13.9264213  59.0975433
  43.8289411  14.1235110  60.4994088  43.8838021  13.1708946  60.4236564
  43.0180613  14.2794549  60.9835386  44.9780605  18.0515233  51.7372371
  44.5400035  17.3351092  51.2778008  45.7191046  18.2791348  51.1757462
  41.7681771  12.7412169  58.2584467  40.9549637  13.0406340  58.6649659
  42.2640765  12.3467858  58.9758949  43.9190349  22.7369926  60.1918731
  43.8766528  22.9630773  59.2627263  44.8353048  22.5033301  60.3404533
  47.3655983  13.2053994  67.0899361  47.7205371  13.4325467  67.9493826
  48.0128114  13.5372371  66.4676616  53.0953720  16.3272430  57.7948690
  52.9571618  16.5174026  56.8669879  52.7389939  17.0891813  58.2516741
  41.2595846  10.3130525  63.8745702  41.8995225  10.1719284  63.1768665
  40.4273376  10.0265038  63.4984304  53.1223099  18.3948957  62.8059961
  53.5559606  18.3024246  63.6543015  53.8354680  18.3706457  62.1679977
  42.0356150  19.6132955  59.9880694  42.8296748  19.1183275  59.7863269
  41.3247842  19.0850818  59.6248400  46.8550994  21.9951051  64.3393062
  46.9088017  22.5641987  65.1070778  45.9865776  22.1652936  63.9747099
  38.3438913  13.7576037  56.0640447  37.4136501  13.6960493  56.2810409
  38.4396385  13.2351990  55.2677088  38.2624462  10.2830850  58.6518688
  38.5231280  11.1976183  58.5427849  39.0841635   9.8155292  58.8015301
  39.7349388  11.6968607  65.8217513  40.4072441  11.4885969  65.1730162
  38.9079174  11.4990693  65.3822745  53.9838649  18.4372657  65.3392847
  54.1774539  19.3418468  65.5852121  53.8839267  17.9780076  66.1731432
  45.6374960   8.3230548  67.8383174  44.9902875   9.0220498  67.7447650
  46.4075975   8.7566692  68.2059422  49.0453758  18.5879400  70.9133727
  48.8939264  18.3589952  69.9963811  49.0358437  19.5450002  70.9265072
  45.8139094  16.1611313  65.8979994  46.7431154  16.3122473  65.7248961
  45.3930124  16.2495334  65.0428640  44.6127426  20.1861977  63.6678531
  44.4738511  19.8180762  64.5404469  43.8242022  20.7009617  63.4962489
  45.2075578  25.2871074  55.0104068  45.3827333  24.8159117  55.8249690
  44.5208366  25.9136840  55.2385328  46.1632641  19.5643580  61.0567369
  45.8282474  19.5244350  61.9525019  45.6636587  18.8988296  60.5837779
  40.1376885  14.9711210  66.5819950  39.9996683  14.2391449  67.1831489
  41.0481808  14.8820110  66.3004138  49.0991833  16.9099614  51.3304429
  48.4821003  16.1846443  51.2337481  48.6308321  17.6708975  50.9871503
  42.7659186  14.6831169  66.0703630  43.4758804  14.0424362  66.0290248
  42.7228494  14.9344064  66.9929811  50.7545964  21.6198523  68.9910209
  50.6958510  20.9357743  68.3240792  51.1565483  22.3617513  68.5390835
  41.4788120  11.6696387  67.8899269  40.9425477  11.2187126  68.5420866
  40.8904828  11.8042296  67.1469734  39.7736663  28.4360437  61.7843928
  40.0133261  29.0678961  62.4622946  38.9305860  28.0848477  62.0709287
  40.8890379  11.1285039  50.4525733  40.0119845  11.0073839  50.0887980
  41.3648132  10.3371117  50.2004622  50.7563372  19.5838107  67.2224189
  49.8690150  19.2464028  67.3450588  51.3261923  18.8521138  67.4592954
  32.4092519  15.9162198  60.5467240  33.0963558  15.6023928  59.9588255
  32.2540647  16.8203563  60.2734491  37.2127241  10.8052395  64.9752264
  37.1285430  10.1978065  64.2402674  36.3909947  11.2961413  64.9761760
  44.2864525  24.2439559  64.1885432  44.2134696  25.0494530  64.7004736
  43.8441918  24.4431525  63.3633453  44.0754305  23.4811329  57.6988253
  43.2921826  24.0233009  57.7926478  44.7747050  23.9985309  58.0982495
  47.3850955   9.2905958  60.3422459  47.8819654   8.5375921  60.0223529
  46.6137936   9.3270275  59.7765668  55.2380712  14.9946324  61.9840750
  55.2270588  15.8771039  61.6134683  54.3698091  14.6417875  61.7895287
  46.7463208  24.1426393  66.3443591  47.4591181  24.7773858  66.2719492
  46.2553237  24.2390259  65.5283592  48.4680735  18.0477646  57.9160882
  47.5337014  18.1679108  57.7465587  48.6457404  17.1450112  57.6520892
  43.9685923  11.4323341  60.0694143  43.5983711  10.8794382  60.7575049
  44.4645016  10.8281475  59.5169143  51.8553287  13.8894965  58.4510916
  52.3213739  14.7222957  58.3771219  52.3060787  13.4239947  59.1556175
  41.7975122  21.8920836  67.1649161  42.4984581  22.5257319  67.3178556
  41.3270237  22.2335568  66.4044801  49.9229518  20.2338786  55.4497068
  50.1989362  20.1195381  56.3590942  49.0534017  19.8356271  55.4109241
  49.8269949   6.2575552  62.4901818  48.9133029   6.4879779  62.6584025
  50.2563051   6.3413996  63.3415850  49.5976408  14.4465444  64.9901712
  48.9447858  14.6941351  64.3354164  49.9756788  13.6329582  64.6564189
  46.5583582  24.4825137  59.0929882  46.7405976  23.6646793  59.5557634
  47.3816568  24.6992829  58.6554772  46.8925747  23.4093322  56.3544930
  47.4213514  22.8985777  55.7415093  47.1553967  23.0935852  57.2190463
  45.6463981  15.1885255  71.4767749  44.9704618  15.0879384  72.1470124
  46.4691615  15.0324469  71.9403746  37.3942840  21.4257192  64.0980264
  37.9796277  20.6800879  64.2308168  37.1967678  21.7361148  64.9816928
  40.2481495  24.4608439  59.1142706  39.5791871  24.9454567  58.6306746
  40.1094365  24.7077659  60.0286085  31.9860495  13.9962792  62.8184707
  32.0244594  13.4626382  63.6121825  31.4800788  13.4697997  62.1995684
  44.3886764  26.4952182  65.7125365  44.9405072  26.6583804  66.4774450
  44.7292957  27.0856620  65.0405390  39.3651257   8.8427332  66.3147249
  39.4292584   9.7042163  65.9024647  39.3018377   8.2301334  65.5819608
  38.8403530  10.9150465  69.9620284  39.4675568  10.5327542  70.5757808
  37.9831448  10.6964667  70.3275976  49.2397638  21.3213440  71.5674019
  49.7837542  21.9343398  71.0728974  48.6584483  21.8793018  72.0841032
  35.6169072  12.7226894  55.8938639  35.9122513  11.8137572  55.8405692
  34.7157108  12.7014633  55.5719641  47.5255151  24.4434158  62.6989047
  47.4006291  23.6423898  62.1899992  48.1834242  24.9380351  62.2103017
  39.1463319  10.7982890  61.8766187  38.4249905  11.4118858  61.7373660
  39.9356575  11.3340655  61.7982833  49.5890060  22.2443178  64.3268597
  48.6420395  22.1248529  64.2546924  49.9372833  21.3565676  64.4094858
  41.9489633   8.1337317  68.1506839  42.4724035   8.3799614  68.9133148
  41.7301966   8.9657352  67.7309976  37.3456914  10.4040992  56.0177964
  37.0169620   9.5238370  55.8353070  37.6996285  10.3488660  56.9054353
  46.5936493  22.0395894  60.5272949  46.4461455  21.1112602  60.7080519
  47.4189986  22.0615985  60.0430024  40.4598737  10.6913961  56.3853441
  40.7994810  11.2199883  55.6632050  40.9070858  11.0294367  57.1612008
  50.1970615  22.8624453  61.6137822  51.1217162  22.6567314  61.4762273
  50.0285918  22.6140854  62.5227163  43.1542178   9.0751012  65.8356509
  42.8138998   8.2758825  66.2377189  42.4481184   9.3752723  65.2633343
  43.8058650   6.1600324  64.2883832  44.6284719   5.6860803  64.1662723
  44.0496713   6.9390808  64.7882519  42.4466884   9.1888583  54.5846734
  43.1675247   9.5669836  54.0810451  41.8232188   9.9077460  54.6881712
  46.5898007   9.8933732  55.5205066  46.8061622  10.7758370  55.2193895
  46.1092074   9.5019945  54.7910708  41.3297229  12.8519445  62.0975811
  41.1841809  13.1659748  62.9900093  40.8522432  13.4704345  61.5446710
  43.1893611   9.8421993  62.1456701  43.1755180   8.9463086  61.8088999
  43.9066039   9.8492657  62.7794987  45.0419742  10.2759333  64.1909828
  44.7837520  11.1976404  64.1894158  44.5104782   9.8789768  64.8810292
  49.9865931  23.3810120  56.9699913  50.1602808  22.8156543  56.2173766
  50.4794822  24.1811015  56.7879403  35.8042891  15.3924790  65.0363472
  35.2596359  16.1684598  65.1683747  36.6822241  15.7395594  64.8782594
  42.5930507   8.7236373  57.4144271  42.7146419   7.7953020  57.6135158
  42.3032550   8.7375059  56.5022586  45.4621698   6.4091284  60.5510991
  45.4843395   6.4730617  59.5962970  45.8789757   5.5695792  60.7451497
  55.8405322  16.1446543  58.5890213  56.2836468  15.3953869  58.1909336
  54.9631832  16.1356680  58.2063945  50.9741103  22.6976885  54.0696812
  51.6692008  23.3183578  54.2884126  51.3164253  21.8472236  54.3449190
  36.5908913  14.5194686  67.9293629  35.8490649  14.6677321  68.5158260
  36.2701657  14.7802951  67.0660379  52.8732526  20.1476590  55.5984142
  53.3983851  20.4863863  54.8733463  52.7854879  19.2123606  55.4147277
  44.5352575  24.0610664  67.7274019  44.8439702  23.8159811  68.5996719
  45.3328057  24.2657303  67.2392889  44.5573187  26.2148574  59.9579396
  44.1178178  25.7224952  60.6512252  45.3081304  25.6721541  59.7171471
  37.0365526  22.4060115  59.9604024  37.8623546  22.1063886  59.5802667
  36.6859578  21.6367737  60.4093812  42.0047059  21.7586583  62.0301697
  41.3827069  21.0957288  61.7303925  42.6751926  21.7847715  61.3475345
  35.2374131  20.3246441  60.9192957  34.4006040  19.8968615  60.7376959
  35.2097777  20.5178884  61.8563749  42.0771587  10.2368371  71.6234203
  42.1259742  11.1130494  71.2411973  42.6194101   9.6945764  71.0505847
  52.5626433  20.7809494  70.9035340  51.7721976  20.7633633  70.3639840
  52.3259787  21.3197788  71.6584377  52.6824308  17.6301960  68.2168069
  52.7322313  17.4651968  69.1583592  52.5738231  16.7629219  67.8265950
  41.5660566  20.3090506  55.5060158  41.7148687  20.9925970  54.8526831
  42.3727010  20.2895596  56.0209614  49.9728070  13.6132888  69.5327376
  50.8737933  13.4739353  69.2411373  50.0476044  13.7787343  70.4725553
  44.3070875  10.9899743  68.3780562  43.4374185  11.2833309  68.1063151
  44.5430356  11.5740188  69.0987826  54.1842504  20.0498902  68.4610091
  53.8927313  20.4128882  69.2973551  53.5714636  19.3365910  68.2823423
  55.3838187  17.6151782  60.9812661  56.2185078  18.0541586  61.1450221
  55.5197316  17.1390435  60.1620907  52.4329693  15.1731517  66.9290149
  52.9083814  15.3659163  66.1209000  51.5095258  15.2290702  66.6833532
  39.3213199  16.3355684  56.5121227  39.0759241  15.4318014  56.7101437
  39.4909114  16.3372834  55.5700705  47.0109909   7.2079360  65.8945982
  47.5291853   7.9440387  65.5692471  46.6565042   7.5143353  66.7292742
  38.5908847  12.0684041  54.0107388  37.8978092  12.1428396  53.3547424
  38.3460599  11.3044385  54.5328905  47.2622503   3.6279643  61.4146879
  47.5424257   2.9602832  62.0407306  48.0473110   3.8208738  60.9021543
  45.0655972  22.8038637  52.9771905  44.4929939  23.4228824  52.5242377
  45.6388765  23.3537998  53.5111827  51.1331362  12.0497277  65.1618454
  52.0848785  12.1495374  65.1830678  50.9634812  11.2575545  65.6716538
  49.1545741   9.1352860  65.3477855  48.5595673   9.4157873  64.6524344
  48.8695438   9.6246761  66.1194596  48.2853232  23.0875787  54.1080488
  49.2183905  23.0221348  54.3113363  48.1976444  23.9232054  53.6495020
  50.9141248  22.4041657  51.0684435  50.8354880  22.0701521  51.9620193
  51.7350915  22.8963425  51.0675907  53.6119439  15.2703396  64.2760754
  53.5795760  14.3319397  64.4620438  54.2220063  15.3487433  63.5426579
  45.4502770  14.1399449  50.3187958  46.3961875  14.0105657  50.3876376
  45.0717015  13.4014111  50.7957386  53.7613928  12.0614440  64.3219037
  53.2452977  11.2772896  64.1348966  54.6453876  11.7333156  64.4865556
  51.4224655   5.8055455  60.2814850  51.2249476   5.4970544  61.1658182
  52.0324360   6.5317094  60.4112779  59.4295989  16.3319403  63.4166791
  60.1599378  16.0704691  63.9774494  58.8202935  15.5948125  63.4568859
  57.5111286  14.4727266  64.0141242  56.7844450  14.3383231  63.4057733
  57.0958573  14.7804094  64.8197960  45.3341463  18.1917195  71.7788615
  46.2544472  18.3695794  71.9728661  45.2991046  17.2473241  71.6268314
  43.6345687  12.0649426  50.2542843  42.7277143  11.7682538  50.3305557
  43.9121668  11.7679244  49.3877129  34.5523628  13.3855789  60.7041889
  34.2326412  12.5321097  60.4116263  34.0057056  13.6004367  61.4599857
  38.3303535  16.1018230  64.4211396  38.5489545  17.0335338  64.4399430
  38.7429309  15.7426204  65.2066200  45.2507753   6.6086315  56.4087084
  44.4408481   6.2633400  56.7842330  45.9392170   6.2993859  56.9974696
  47.1798301   5.6864362  58.0311381  47.7329340   6.1059816  58.6901404
  47.4168388   4.7600110  58.0734337  43.2031401  11.6751436  73.8114145
  43.1028128  12.6245793  73.7426236  42.9852943  11.3469675  72.9390215
  42.4044472   8.9236361  50.3954822  43.2663636   9.2491259  50.6550640
  42.5894816   8.1367857  49.8827888  34.4211888  17.0058701  62.6735011
  33.7275359  16.5912653  62.1604965  35.1684879  17.0479237  62.0768430
  50.5577109   7.7964887  57.5390045  49.9775778   8.4549691  57.1568098
  50.2913041   6.9742232  57.1277463  49.0080675   7.1969945  59.7411366
  49.5080453   7.3086480  58.9325684  49.6516283   6.8930998  60.3812174
  43.0662671  15.1048575  72.6279207  42.5829752  15.9048935  72.8343096
  43.1523610  15.1156520  71.6746651  36.3348630  16.9376954  60.5501026
  36.3119318  17.0364642  59.5982909  36.6449267  17.7842105  60.8718192
  38.9936008  18.9953109  64.6647640  39.9479262  18.9637052  64.5977572
  38.7948532  18.5343733  65.4797866  39.5835390  17.5654225  67.2318438
  40.4028279  18.0598304  67.2553275  39.8572198  16.6486194  67.2036005
  49.3401987   9.9564978  56.5946393  48.4527842  10.2414628  56.3766588
  49.7555976   9.7958741  55.7473670  52.6916523   9.9811499  60.3100733
  53.4676913  10.4707951  60.5825350  51.9664657  10.4069553  60.7672602
  55.1289081  10.6939118  61.3674673  55.7233572  10.4534854  60.6567982
  55.2015665   9.9746249  61.9948210  37.3486237  24.5372729  61.6817838
  37.2140705  23.7773130  61.1155836  36.9318299  25.2613629  61.2146627
  48.4845200  19.7209652  50.6894413  49.1881050  19.9259655  51.3052069
  47.7607849  20.2886414  50.9543497  49.3143010  15.4719514  56.8096684
  49.2578212  15.9288065  55.9704316  49.8671353  14.7110198  56.6319526
  53.1247816  11.2609246  57.6346803  52.8684750  10.8605881  58.4655011
  52.5000684  11.9753039  57.5096942  57.4360154  14.0005319  60.1418095
  56.8759712  14.0698508  60.9149657  56.8303657  13.8246303  59.4217591
  40.5055363  25.4342046  61.8936281  40.3887747  26.3787478  61.7914971
  39.6847809  25.1315607  62.2822080  50.3931897  20.1592182  52.7392874
  51.2277501  19.7273380  52.5570348  50.2316240  19.9874195  53.6669768
  50.0477790  16.6624295  54.1049213  49.9926593  16.4968566  53.1637657
  49.4223845  17.3700328  54.2611403  34.8370305  11.8992359  67.9310635
  35.4829168  11.3891313  68.4197860  34.6287456  12.6361041  68.5054060
  47.3623697  18.9673207  73.4302776  48.2314856  19.1413859  73.0689411
  46.8830448  19.7867624  73.3078505  43.3573915   6.1632404  53.6834531
  43.3452585   7.1074244  53.8402802  44.2497337   5.9802549  53.3893992
  41.5309877  26.0870308  65.1092209  42.4337124  26.1193918  65.4258704
  41.3047247  25.1570759  65.1238545  43.2863479  24.8401294  61.7702288
  42.3359110  24.8403156  61.6566660  43.5895965  24.0934029  61.2538322
  47.1726035   2.7575181  57.9380468  46.4058430   2.2033667  58.0837150
  47.5836740   2.8297049  58.7994620  39.1767796   9.0459976  72.0285649
  40.0399257   8.6896781  72.2388974  38.6033206   8.7073871  72.7161054
  59.0216173  30.6761833  62.8348050  59.6594582  30.5568580  62.1311390
  58.9037015  31.6242677  62.8936002  55.8305879  30.6289261  62.7709575
  55.4924390  30.5130326  61.8830110  56.6995647  30.2280426  62.7510581
  51.6892695  32.4824737  58.7606466  51.1257560  32.3914674  57.9922754
  51.5745090  31.6624642  59.2408958  56.3125662  31.7824113  68.7295780
  56.3014303  31.3876911  67.8576284  56.4746301  31.0490185  69.3229552
  49.2357126  33.9775929  61.5990686  50.0278418  33.6366753  61.1836986
  49.4753777  34.0870904  62.5192840  57.2692253  36.1495705  54.0720931
  56.6180233  36.7349785  53.6854945  58.0636616  36.6801900  54.1315968
  51.1947880  33.2384842  54.4708065  51.9678756  32.6913829  54.3320941
  51.5473279  34.1029091  54.6822527  53.0332923  34.5661224  67.6774964
  52.7422789  35.4706855  67.5621631  53.6689907  34.6077752  68.3919034
  53.9589130  31.9438073  64.2676324  54.5552702  31.7194095  63.5533287
  54.0164101  31.2022818  64.8701772  53.5314158  29.3977508  52.1026515
  53.7839679  28.8759029  51.3409978  52.5938717  29.2343654  52.2053199
  58.5757441  28.4013287  59.9101258  59.3620530  27.9832710  59.5591675
  58.8396145  29.3059379  60.0782907  58.7467518  33.8386137  54.6089915
  58.1113351  33.9120763  55.3210820  58.4164925  34.4279736  53.9308994
  63.9765868  28.3388520  60.8134237  64.7091040  27.7687737  61.0472066
  63.2205224  27.9510120  61.2540742  53.2510447  31.3005614  54.3050890
  53.1346705  30.6250518  54.9731974  53.3612707  30.8137988  53.4883043
  55.5941988  30.7615761  58.0097579  55.2300195  30.2346382  58.7210501
  56.4509104  30.3714230  57.8364065  61.4991288  22.0510094  65.2728845
  61.1674613  22.9205505  65.0490060  60.9036902  21.7346378  65.9522876
  55.2347475  25.7905661  53.0058928  55.4021877  26.6585897  53.3729399
  55.0444644  25.9532943  52.0820217  57.9922808  34.2522640  64.6724758
  57.6923531  35.1547679  64.5640565  57.6473868  33.9854823  65.5245911
  51.4435290  30.7036437  60.7061463  50.5185786  30.5712651  60.9139154
  51.6919703  31.4830656  61.2031405  61.3919952  26.7705180  62.3522195
  60.4836829  26.7020588  62.0580956  61.3407548  27.2477125  63.1804021
  55.2136696  28.2463318  53.9905595  55.0936321  28.6920369  54.8291075
  54.5189284  28.5948636  53.4319133  48.8044101  30.3469710  61.5405252
  48.9336482  30.6004189  62.4544663  48.1241552  30.9397418  61.2209907
  52.9743588  41.0166960  57.6395726  52.8967618  41.9674785  57.7184206
  52.3705231  40.6712833  58.2970652  55.4660818  28.1894826  70.2957093
  54.6894152  28.7488746  70.2859957  56.1051381  28.6751609  70.8171963
  63.2581598  24.9721618  64.1300069  62.6155978  25.2654152  63.4839864
  62.7536527  24.8574539  64.9353266  60.9121762  28.7184792  54.8185929
  61.8239618  28.9512178  54.6433626  60.4031409  29.3021836  54.2561007
  53.7207190  30.9980279  69.8575060  54.4621874  31.5365323  69.5809883
  53.0144175  31.6246568  70.0146612  59.1962530  33.1409419  68.4547221
  59.6045886  32.6991830  67.7101854  58.4739791  32.5662047  68.7081414
  55.5493600  28.0782026  65.8280778  56.3954795  28.5021440  65.9715427
  55.4892237  27.4215651  66.5219341  59.5191344  33.7010610  62.2099510
  58.8900207  33.8656324  61.5075578  59.1317006  34.1152220  62.9810474
  63.3980576  34.6365048  59.5643874  62.7131614  35.0163949  59.0140907
  63.4824425  35.2460375  60.2975822  58.6993045  25.7386395  67.4861952
  58.4553977  26.4928455  66.9496228  58.9752975  26.1171742  68.3209199
  60.6531508  32.2825007  66.1639217  60.8648403  32.9256767  65.4873598
  60.6061256  31.4487324  65.6961147  58.2557737  24.8942828  63.0675790
  57.3942216  25.1924081  63.3592527  58.2820171  25.1113227  62.1356822
  55.0719306  33.4385018  59.4749595  55.5357652  33.7172721  58.6854218
  54.8076104  32.5368463  59.2922686  51.9643387  32.9856500  62.4129358
  52.5344744  33.4143768  61.7746843  52.5551499  32.7039084  63.1113544
  54.0088192  29.5608171  56.2839160  54.7112235  30.0129214  56.7513087
  53.6768821  28.9191989  56.9119053  52.4568554  28.1519927  70.6590370
  51.8267214  28.8336208  70.8925767  52.3504642  28.0403009  69.7143508
  47.7513526  27.8191723  61.5856294  46.9612580  28.0749252  61.1096405
  48.2424773  28.6340061  61.6908334  61.7677336  35.1596962  64.3361575
  62.5894779  34.7577150  64.0544256  61.7639739  35.0565197  65.2877691
  49.7028271  28.1836302  58.5439771  48.9059435  28.2954997  59.0623266
  49.4753864  28.5222955  57.6780661  55.5333939  34.7081006  66.4922285
  55.5978372  35.1701413  67.3280457  54.8244863  34.0778371  66.6204595
  46.0351229  28.0722214  64.0171285  46.2859267  28.9569224  64.2828861
  46.5710777  27.8926815  63.2446377  55.2481957  36.3749113  56.3601266
  55.1127632  37.2200649  56.7886113  55.7891769  36.5768391  55.5967199
  51.7349296  22.4540693  73.0215621  51.3416242  21.9006892  73.6963265
  52.5515437  22.7651272  73.4122138  48.7011354  33.8924551  56.9329191
  49.2135875  34.6867801  57.0834755  49.3534067  33.1950842  56.8662792
  50.5106239  37.0090308  59.0151944  50.6872867  37.9308272  58.8272928
  51.3063072  36.6948727  59.4446324  54.6517257  23.8698572  70.6135877
  55.3926971  24.4705725  70.5340340  54.8835180  23.1276210  70.0553920
  49.7958595  29.0554939  68.8914107  49.6812111  28.1540197  69.1921206
  48.9403113  29.3018636  68.5398924  56.8750433  36.9972680  70.4901608
  56.4314287  36.2109058  70.1722512  57.5367647  37.1851830  69.8245498
  58.9731671  37.2775480  68.5183009  58.9550147  38.0984361  68.0263278
  59.8951591  37.1529555  68.7433150  55.4304725  34.7919609  69.3606517
  55.9633062  34.0307897  69.1305825  54.9018806  34.4993261  70.1030672
  58.5974420  19.8979675  64.8900159  58.2538690  20.7881317  64.8139270
  58.9653383  19.7081333  64.0269744  46.6660271  32.2213206  57.7088761
  47.5035493  32.6310214  57.4922469  46.8438539  31.2812648  57.6788955
  58.5624703  29.8888286  53.3972594  58.0471326  30.6592891  53.6360982
  58.2902011  29.2153422  54.0205656  56.1471814  24.7337987  58.4557833
  55.2913410  24.3444837  58.2763471  56.5598766  24.8129948  57.5957618
  57.6770961  22.2684330  62.8549392  57.1735756  22.2314465  62.0417198
  57.9701568  23.1777073  62.9146049  53.9213847  22.3523060  61.8615574
  54.7866843  22.1565869  61.5021464  53.9891355  22.1233412  62.7884931
  58.3511006  27.7615378  55.2232375  58.0461142  28.0761527  56.0742519
  59.3041448  27.8396798  55.2659708  56.7957438  33.9205602  56.8725329
  56.2678800  33.1858361  56.5598567  56.2944941  34.6980278  56.6265298
  61.7750284  32.1154622  61.9892376  61.1173959  32.8053883  62.0772504
  62.5790683  32.5051054  62.3326362  51.5276166  24.5825268  59.2331941
  52.1019918  24.3600449  58.5005134  52.1147148  24.6513962  59.9860542
  60.5855743  30.4698995  60.0396317  61.0987625  31.1028987  60.5418027
  61.2356967  29.8700190  59.6739677  51.8545753  26.6129729  53.2527826
  51.0183065  26.9504415  53.5737101  51.7150522  26.4778709  52.3154963
  53.8298833  21.4566517  57.9607010  53.1763246  21.1415534  57.3363625
  53.7879308  20.8342257  58.6866833  54.9410038  31.7385812  49.8760302
  54.0337100  31.5075065  50.0751451  55.4381070  30.9423431  50.0634284
  57.8478117  40.4483319  52.7956989  57.1739816  40.7515016  53.4041946
  58.2343939  41.2512399  52.4462446  57.0636574  27.9448450  62.2854658
  56.1459135  28.1663397  62.1276346  57.4796717  28.0194761  61.4266365
  57.8471621  29.3439866  57.4157338  58.5943440  29.8561263  57.1064460
  58.1163211  29.0223919  58.2761732  56.1198272  31.8398407  54.3984292
  55.2109491  31.5557440  54.4956762  56.1493355  32.2597485  53.5387599
  61.3517539  35.4504996  58.1675460  60.8979866  34.6095906  58.2240650
  60.7211506  36.0866395  58.5050240  60.2950459  26.3796982  59.3976127
  59.5573215  25.8674368  59.7286370  60.5477232  25.9397364  58.5859404
  59.7950478  37.2881493  59.1025278  60.0873453  37.8486550  58.3837644
  60.3049099  37.5810054  59.8578437  60.3962086  19.1573234  59.9917897
  60.7020963  18.2970598  59.7043812  61.1214691  19.7490854  59.7916891
  46.6886442  29.5603921  58.3799495  46.4910842  28.9673282  57.6550561
  46.1333106  29.2556131  59.0975433  54.6683166  29.4527027  60.4994088
  54.7231775  28.5000864  60.4236564  53.8574368  29.6086466  60.9835386
  55.8174359  33.3807150  51.7372371  55.3793789  32.6643009  51.2778008
  56.5584800  33.6083265  51.1757462  52.6075526  28.0704087  58.2584467
  51.7943391  28.3698258  58.6649659  53.1034520  27.6759776  58.9758949
  54.7584104  38.0661844  60.1918731  54.7160282  38.2922690  59.2627263
  55.6746802  37.8325219  60.3404533  58.2049737  28.5345912  67.0899361
  58.5599125  28.7617385  67.9493826  58.8521869  28.8664288  66.4676616
  52.0989600  25.6422443  63.8745702  52.7388980  25.5011202  63.1768665
  51.2667131  25.3556956  63.4984304  52.8749904  34.9424873  59.9880694
  53.6690503  34.4475193  59.7863269  52.1641597  34.4142736  59.6248400
  57.6944749  37.3242969  64.3393062  57.7481771  37.8933905  65.1070778
  56.8259530  37.4944854  63.9747099  49.1832668  29.0867955  56.0640447
  48.2530256  29.0252410  56.2810409  49.2790140  28.5643908  55.2677088
  49.1018217  25.6122768  58.6518688  49.3625034  26.5268101  58.5427849
  49.9235389  25.1447210  58.8015301  50.5743142  27.0260525  65.8217513
  51.2466196  26.8177887  65.1730162  49.7472929  26.8282611  65.3822745
  56.4768714  23.6522466  67.8383174  55.8296629  24.3512415  67.7447650
  57.2469730  24.0858610  68.2059422  59.8847512  33.9171318  70.9133727
  59.7333019  33.6881870  69.9963811  59.8752192  34.8741919  70.9265072
  56.6532849  31.4903231  65.8979994  57.5824909  31.6414390  65.7248961
  56.2323879  31.5787251  65.0428640  55.4521180  35.5153895  63.6678531
  55.3132266  35.1472679  64.5404469  54.6635777  36.0301534  63.4962489
  56.0469332  40.6162991  55.0104068  56.2221088  40.1451035  55.8249690
  55.3602120  41.2428758  55.2385328  57.0026395  34.8935498  61.0567369
  56.6676228  34.8536268  61.9525019  56.5030341  34.2280214  60.5837779
  50.9770639  30.3003128  66.5819950  50.8390437  29.5683367  67.1831489
  51.8875563  30.2112028  66.3004138  59.9385587  32.2391532  51.3304429
  59.3214758  31.5138360  51.2337481  59.4702076  33.0000892  50.9871503
  53.6052940  30.0123087  66.0703630  54.3152559  29.3716279  66.0290248
  53.5622248  30.2635982  66.9929811  61.5939719  36.9490440  68.9910209
  61.5352265  36.2649661  68.3240792  61.9959237  37.6909430  68.5390835
  52.3181874  26.9988305  67.8899269  51.7819231  26.5479043  68.5420866
  51.7298582  27.1334214  67.1469734  51.7284133  26.4576956  50.4525733
  50.8513599  26.3365757  50.0887980  52.2041886  25.6663035  50.2004622
  61.5957126  34.9130024  67.2224189  60.7083905  34.5755946  67.3450588
  62.1655677  34.1813056  67.4592954  43.2486273  31.2454116  60.5467240
  43.9357313  30.9315846  59.9588255  43.0934402  32.1495481  60.2734491
  48.0520995  26.1344313  64.9752264  47.9679184  25.5269982  64.2402674
  47.2303702  26.6253331  64.9761760  54.9148059  38.8103247  57.6988253
  54.1315581  39.3524927  57.7926478  55.6140804  39.3277226  58.0982495
  58.2244709  24.6197876  60.3422459  58.7213409  23.8667838  60.0223529
  57.4531691  24.6562193  59.7765668  59.3074490  33.3769563  57.9160882
  58.3730769  33.4971026  57.7465587  59.4851158  32.4742030  57.6520892
  54.8079678  26.7615259  60.0694143  54.4377465  26.2086300  60.7575049
  55.3038770  26.1573393  59.5169143  60.6663704  21.5867470  62.4901818
  59.7526784  21.8171696  62.6584025  61.0956805  21.6705914  63.3415850
  60.4370162  29.7757362  64.9901712  59.7841613  30.0233269  64.3354164
  60.8150542  28.9621500  64.6564189  57.3977336  39.8117055  59.0929882
  57.5799731  38.9938711  59.5557634  58.2210322  40.0284747  58.6554772
  57.7319502  38.7385240  56.3544930  58.2607268  38.2277695  55.7415093
  57.9947721  38.4227770  57.2190463  56.4857735  30.5177173  71.4767749
  55.8098372  30.4171302  72.1470124  57.3085369  30.3616386  71.9403746
  48.2336595  36.7549109  64.0980264  48.8190031  36.0092797  64.2308168
  48.0361433  37.0653066  64.9816928  51.0875250  39.7900357  59.1142706
  50.4185625  40.2746484  58.6306746  50.9488119  40.0369577  60.0286085
  42.8254249  29.3254709  62.8184707  42.8638349  28.7918300  63.6121825
  42.3194542  28.7989915  62.1995684  50.2045012  24.1719250  66.3147249
  50.2686338  25.0334081  65.9024647  50.1412132  23.5593252  65.5819608
  49.6797284  26.2442382  69.9620284  50.3069323  25.8619460  70.5757808
  48.8225203  26.0256584  70.3275976  60.0791393  36.6505358  71.5674019
  60.6231297  37.2635316  71.0728974  59.4978238  37.2084936  72.0841032
  46.4562827  28.0518812  55.8938639  46.7516268  27.1429490  55.8405692
  45.5550863  28.0306551  55.5719641  58.3648906  39.7726076  62.6989047
  58.2400045  38.9715815  62.1899992  59.0227997  40.2672269  62.2103017
  49.9857074  26.1274808  61.8766187  49.2643660  26.7410776  61.7373660
  50.7750330  26.6632573  61.7982833  60.4283814  37.5735096  64.3268597
  59.4814150  37.4540447  64.2546924  60.7766587  36.6857594  64.4094858
  52.7883387  23.4629235  68.1506839  53.3117789  23.7091531  68.9133148
  52.5695721  24.2949269  67.7309976  48.1850668  25.7332909  56.0177964
  47.8563375  24.8530288  55.8353070  48.5390039  25.6780578  56.9054353
  57.4330247  37.3687812  60.5272949  57.2855210  36.4404519  60.7080519
  58.2583741  37.3907903  60.0430024  51.2992492  26.0205879  56.3853441
  51.6388564  26.5491800  55.6632050  51.7464612  26.3586285  57.1612008
  61.0364369  38.1916371  61.6137822  61.9610917  37.9859232  61.4762273
  60.8679673  37.9432772  62.5227163  53.9935932  24.4042930  65.8356509
  53.6532753  23.6050743  66.2377189  53.2874939  24.7044641  65.2633343
  54.6452404  21.4892242  64.2883832  55.4678474  21.0152720  64.1662723
  54.8890468  22.2682726  64.7882519  53.2860639  24.5180501  54.5846734
  54.0069001  24.8961753  54.0810451  52.6625943  25.2369377  54.6881712
  57.4291762  25.2225650  55.5205066  57.6455376  26.1050287  55.2193895
  56.9485829  24.8311863  54.7910708  52.1690983  28.1811363  62.0975811
  52.0235564  28.4951666  62.9900093  51.6916187  28.7996263  61.5446710
  54.0287366  25.1713911  62.1456701  54.0148935  24.2755004  61.8088999
  54.7459794  25.1784575  62.7794987  55.8813497  25.6051251  64.1909828
  55.6231274  26.5268322  64.1894158  55.3498537  25.2081686  64.8810292
  60.8259685  38.7102038  56.9699913  60.9996563  38.1448461  56.2173766
  61.3188577  39.5102933  56.7879403  46.6436645  30.7216707  65.0363472
  46.0990113  31.4976515  65.1683747  47.5215995  31.0687512  64.8782594
  53.4324262  24.0528291  57.4144271  53.5540173  23.1244937  57.6135158
  53.1426304  24.0666977  56.5022586  56.3015452  21.7383202  60.5510991
  56.3237149  21.8022535  59.5962970  56.7183511  20.8987710  60.7451497
  61.8134858  38.0268803  54.0696812  62.5085762  38.6475495  54.2884126
  62.1558008  37.1764154  54.3449190  47.4302667  29.8486603  67.9293629
  46.6884403  29.9969239  68.5158260  47.1095411  30.1094869  67.0660379
  55.3966942  41.5440491  59.9579396  54.9571932  41.0516870  60.6512252
  56.1475059  41.0013459  59.7171471  47.8759281  37.7352032  59.9604024
  48.7017301  37.4355804  59.5802667  47.5253333  36.9659655  60.4093812
  46.0767886  35.6538359  60.9192957  45.2399794  35.2260533  60.7376959
  46.0491531  35.8470802  61.8563749  52.9165341  25.5660288  71.6234203
  52.9653497  26.4422411  71.2411973  53.4587856  25.0237682  71.0505847
  52.4054321  35.6382424  55.5060158  52.5542441  36.3217888  54.8526831
  53.2120764  35.6187514  56.0209614  60.8121824  28.9424806  69.5327376
  61.7131687  28.8031271  69.2411373  60.8869799  29.1079261  70.4725553
  55.1464630  26.3191661  68.3780562  54.2767939  26.6125227  68.1063151
  55.3824110  26.9032106  69.0987826  63.2723447  30.5023434  66.9290149
  63.7477569  30.6951081  66.1209000  62.3489013  30.5582620  66.6833532
  50.1606954  31.6647601  56.5121227  49.9152996  30.7609931  56.7101437
  50.3302868  31.6664752  55.5700705  57.8503664  22.5371278  65.8945982
  58.3685607  23.2732305  65.5692471  57.4958796  22.8435271  66.7292742
  49.4302601  27.3975959  54.0107388  48.7371846  27.4720314  53.3547424
  49.1854353  26.6336303  54.5328905  58.1016258  18.9571560  61.4146879
  58.3818012  18.2894749  62.0407306  58.8866865  19.1500656  60.9021543
  55.9049726  38.1330554  52.9771905  55.3323693  38.7520741  52.5242377
  56.4782520  38.6829916  53.5111827  61.9725116  27.3789194  65.1618454
  62.9242539  27.4787292  65.1830678  61.8028567  26.5867463  65.6716538
  59.9939496  24.4644778  65.3477855  59.3989428  24.7449790  64.6524344
  59.7089192  24.9538678  66.1194596  59.1246986  38.4167704  54.1080488
  60.0577659  38.3513266  54.3113363  59.0370199  39.2523971  53.6495020
  61.7535003  37.7333575  51.0684435  61.6748634  37.3993438  51.9620193
  62.5744670  38.2255343  51.0675907  64.4513194  30.5995314  64.2760754
  64.4189514  29.6611315  64.4620438  65.0613818  30.6779351  63.5426579
  56.2896525  29.4691367  50.3187958  57.2355630  29.3397575  50.3876376
  55.9110770  28.7306029  50.7957386  64.6007682  27.3906357  64.3219037
  64.0846731  26.6064814  64.1348966  65.4847631  27.0625074  64.4865556
  62.2618409  21.1347373  60.2814850  62.0643230  20.8262461  61.1658182
  62.8718115  21.8609012  60.4112779  56.1735217  33.5209113  71.7788615
  57.0938227  33.6987712  71.9728661  56.1384800  32.5765158  71.6268314
  54.4739442  27.3941343  50.2542843  53.5670897  27.0974456  50.3305557
  54.7515423  27.0971161  49.3877129  45.3917382  28.7147707  60.7041889
  45.0720167  27.8613015  60.4116263  44.8450811  28.9296285  61.4599857
  49.1697290  31.4310148  64.4211396  49.3883300  32.3627256  64.4399430
  49.5823064  31.0718122  65.2066200  56.0901508  21.9378233  56.4087084
  55.2802236  21.5925318  56.7842330  56.7785925  21.6285777  56.9974696
  58.0192056  21.0156280  58.0311381  58.5723095  21.4351733  58.6901404
  58.2562142  20.0892028  58.0734337  54.0425155  27.0043354  73.8114145
  53.9421882  27.9537710  73.7426236  53.8246697  26.6761592  72.9390215
  53.2438227  24.2528279  50.3954822  54.1057391  24.5783177  50.6550640
  53.4288571  23.4659774  49.8827888  45.2605642  32.3350618  62.6735011
  44.5669114  31.9204571  62.1604965  46.0078633  32.3771155  62.0768430
  61.3970863  23.1256805  57.5390045  60.8169532  23.7841609  57.1568098
  61.1306796  22.3034150  57.1277463  59.8474429  22.5261863  59.7411366
  60.3474208  22.6378397  58.9325684  60.4910037  22.2222916  60.3812174
  53.9056425  30.4340492  72.6279207  53.4223507  31.2340852  72.8343096
  53.9917364  30.4448437  71.6746651  47.1742385  32.2668872  60.5501026
  47.1513073  32.3656559  59.5982909  47.4843021  33.1134023  60.8718192
  49.8329763  34.3245027  64.6647640  50.7873016  34.2928969  64.5977572
  49.6342286  33.8635651  65.4797866  50.4229145  32.8946143  67.2318438
  51.2422034  33.3890222  67.2553275  50.6965953  31.9778111  67.2036005
  60.1795741  25.2856895  56.5946393  59.2921596  25.5706546  56.3766588
  60.5949730  25.1250659  55.7473670  63.5310277  25.3103416  60.3100733
  64.3070667  25.7999869  60.5825350  62.8058411  25.7361471  60.7672602
  65.9682836  26.0231036  61.3674673  66.5627327  25.7826772  60.6567982
  66.0409420  25.3038166  61.9948210  48.1879992  39.8664647  61.6817838
  48.0534459  39.1065047  61.1155836  47.7712054  40.5905546  61.2146627
  59.3238955  35.0501570  50.6894413  60.0274805  35.2551573  51.3052069
  58.6001603  35.6178332  50.9543497  60.1536765  30.8011431  56.8096684
  60.0971966  31.2579983  55.9704316  60.7065107  30.0402116  56.6319526
  63.9641571  26.5901163  57.6346803  63.7078505  26.1897799  58.4655011
  63.3394439  27.3044957  57.5096942  45.6764059  27.2284277  67.9310635
  46.3222923  26.7183231  68.4197860  45.4681210  27.9652959  68.5054060
  58.2017451  34.2965124  73.4302776  59.0708611  34.4705777  73.0689411
  57.7224203  35.1159541  73.3078505  54.1967670  21.4924322  53.6834531
  54.1846339  22.4366162  53.8402802  55.0891091  21.3094467  53.3893992
  58.0119789  18.0867098  57.9380468  57.2452185  17.5325585  58.0837150
  58.4230494  18.1588967  58.7994620  50.0161550  24.3751894  72.0285649
  50.8793012  24.0188699  72.2388974  49.4426961  24.0365789  72.7161054
  62.0341635  48.5676760  54.4708065  62.8072511  48.0205747  54.3320941
  62.3867034  49.4321009  54.6822527  64.3707913  44.7269426  52.1026515
  64.6233433  44.2050947  51.3409978  63.4332472  44.5635571  52.2053199
  64.0904201  46.6297532  54.3050890  63.9740460  45.9542435  54.9731974
  64.2006461  46.1429906  53.4883043  64.8481947  44.8900088  56.2839160
  65.5505990  45.3421132  56.7513087  64.5162575  44.2483907  56.9119053
  60.5422026  43.5128220  58.5439771  59.7453189  43.6246914  59.0623266
  60.3147618  43.8514872  57.6780661  62.5743051  37.7832611  73.0215621
  62.1809996  37.2298809  73.6963265  63.3909191  38.0943189  73.4122138
  62.3669920  39.9117186  59.2331941  62.9413672  39.6892367  58.5005134
  62.9540903  39.9805880  59.9860542  63.4469280  43.3996005  58.2584467
  62.6337146  43.6990175  58.6649659  63.9428274  43.0051694  58.9758949
  60.0226422  44.4159872  56.0640447  59.0924010  44.3544328  56.2810409
  60.1183894  43.8935825  55.2677088  59.9411971  40.9414685  58.6518688
  60.2018789  41.8560019  58.5427849  60.7629144  40.4739128  58.8015301
  70.7241267  49.2463236  70.9133727  70.5726773  49.0173787  69.9963811
  70.7145946  50.2033837  70.9265072  66.8863087  55.9454909  55.0104068
  67.0614842  55.4742952  55.8249690  66.1995875  56.5720675  55.2385328
  65.6473432  42.0907177  60.0694143  65.2771220  41.5378217  60.7575049
  66.1432525  41.4865310  59.5169143  61.0438766  39.5011168  66.3147249
  61.1080093  40.3625999  65.9024647  60.9805886  38.8885169  65.5819608
  57.2956581  43.3810729  55.8938639  57.5910022  42.4721408  55.8405692
  56.3944617  43.3598469  55.5719641  63.6277142  38.7921152  68.1506839
  64.1511544  39.0383449  68.9133148  63.4089475  39.6241187  67.7309976
  59.0244423  41.0624827  56.0177964  58.6957129  40.1822206  55.8353070
  59.3783794  41.0072496  56.9054353  62.1386246  41.3497797  56.3853441
  62.4782319  41.8783718  55.6632050  62.5858367  41.6878203  57.1612008
  64.8329687  39.7334847  65.8356509  64.4926507  38.9342661  66.2377189
  64.1268693  40.0336558  65.2633343  64.8681120  40.5005828  62.1456701
  64.8542689  39.6046922  61.8088999  65.5853548  40.5076492  62.7794987
  64.2718016  39.3820209  57.4144271  64.3933927  38.4536855  57.6135158
  63.9820059  39.3958895  56.5022586  63.7559096  40.8952206  71.6234203
  63.8047251  41.7714329  71.2411973  64.2981610  40.3529599  71.0505847
  71.6515579  44.2716724  69.5327376  72.5525442  44.1323189  69.2411373
  71.7263553  44.4371179  70.4725553  60.2696356  42.7267877  54.0107388
  59.5765601  42.8012232  53.3547424  60.0248108  41.9628220  54.5328905
  64.8818910  42.3335271  73.8114145  64.7815637  43.2829628  73.7426236
  64.6640452  42.0053510  72.9390215  60.8555305  39.7043812  72.0285649
  61.7186766  39.3480617  72.2388974  60.2820715  39.3657707  72.7161054
  73.4136805  53.1124528  73.0215621  73.0203751  52.5590727  73.6963265
  74.2302946  53.4235107  73.4122138  72.2917927  74.4236190  61.7843928
  72.5314525  75.0554714  62.4622946  71.4487123  74.0724230  62.0709287
  91.5397436  76.6637586  62.8348050  92.1775846  76.5444333  62.1311390
  91.4218279  77.6118430  62.8936002  88.3487142  76.6165014  62.7709575
  88.0105654  76.5006079  61.8830110  89.2176910  76.2156179  62.7510581
  84.2073958  78.4700490  58.7606466  83.6438823  78.3790427  57.9922754
  84.0926353  77.6500395  59.2408958  88.8306925  77.7699866  68.7295780
  88.8195566  77.3752664  67.8576284  88.9927565  77.0365938  69.3229552
  81.7538390  79.9651682  61.5990686  82.5459682  79.6242507  61.1836986
  81.9935040  80.0746657  62.5192840  89.7873517  82.1371458  54.0720931
  89.1361496  82.7225538  53.6854945  90.5817880  82.6677653  54.1315968
  83.7129144  79.2260595  54.4708065  84.4860020  78.6789582  54.3320941
  84.0654543  80.0904844  54.6822527  85.5514186  80.5536977  67.6774964
  85.2604052  81.4582608  67.5621631  86.1871171  80.5953505  68.3919034
  86.4770393  77.9313826  64.2676324  87.0733966  77.7069848  63.5533287
  86.5345365  77.1898571  64.8701772  86.0495422  75.3853261  52.1026515
  86.3020942  74.8634783  51.3409978  85.1119981  75.2219407  52.2053199
  91.0938704  74.3889040  59.9101258  91.8801794  73.9708463  59.5591675
  91.3577409  75.2935132  60.0782907  91.2648782  79.8261890  54.6089915
  90.6294615  79.8996516  55.3210820  90.9346188  80.4155489  53.9308994
  96.4947132  74.3264273  60.8134237  97.2272304  73.7563490  61.0472066
  95.7386487  73.9385873  61.2540742  85.7691710  77.2881367  54.3050890
  85.6527969  76.6126271  54.9731974  85.8793970  76.8013741  53.4883043
  88.1123251  76.7491514  58.0097579  87.7481459  76.2222135  58.7210501
  88.9690367  76.3589983  57.8364065  90.5104072  80.2398393  64.6724758
  90.2104795  81.1423432  64.5640565  90.1655131  79.9730576  65.5245911
  83.9616553  76.6912190  60.7061463  83.0367049  76.5588404  60.9139154
  84.2100966  77.4706409  61.2031405  93.9101215  72.7580933  62.3522195
  93.0018093  72.6896342  62.0580956  93.8588811  73.2352878  63.1804021
  87.7317959  74.2339072  53.9905595  87.6117584  74.6796122  54.8291075
  87.0370548  74.5824389  53.4319133  81.3225364  76.3345463  61.5405252
  81.4517745  76.5879942  62.4544663  80.6422815  76.9273171  61.2209907
  85.4924851  87.0042713  57.6395726  85.4148881  87.9550538  57.7184206
  84.8886495  86.6588586  58.2970652  87.9842081  74.1770579  70.2957093
  87.2075415  74.7364499  70.2859957  88.6232644  74.6627362  70.8171963
  95.7762862  70.9597371  64.1300069  95.1337242  71.2529905  63.4839864
  95.2717790  70.8450292  64.9353266  93.4303025  74.7060545  54.8185929
  94.3420881  74.9387931  54.6433626  92.9212672  75.2897589  54.2561007
  86.2388453  76.9856032  69.8575060  86.9803138  77.5241076  69.5809883
  85.5325439  77.6122321  70.0146612  91.7143793  79.1285173  68.4547221
  92.1227149  78.6867583  67.7101854  90.9921055  78.5537800  68.7081414
  88.0674863  74.0657779  65.8280778  88.9136058  74.4897193  65.9715427
  88.0073501  73.4091404  66.5219341  92.0372608  79.6886363  62.2099510
  91.4081470  79.8532077  61.5075578  91.6498270  80.1027973  62.9810474
  95.9161840  80.6240801  59.5643874  95.2312878  81.0039702  59.0140907
  96.0005689  81.2336128  60.2975822  91.2174308  71.7262148  67.4861952
  90.9735240  72.4804208  66.9496228  91.4934239  72.1047495  68.3209199
  93.1712771  78.2700760  66.1639217  93.3829666  78.9132520  65.4873598
  93.1242519  77.4363077  65.6961147  90.7739000  70.8818581  63.0675790
  89.9123479  71.1799834  63.3592527  90.8001435  71.0988980  62.1356822
  87.5900570  79.4260771  59.4749595  88.0538915  79.7048474  58.6854218
  87.3257368  78.5244216  59.2922686  84.4824651  78.9732253  62.4129358
  85.0526008  79.4019521  61.7746843  85.0732762  78.6914837  63.1113544
  86.5269456  75.5483924  56.2839160  87.2293499  76.0004967  56.7513087
  86.1950084  74.9067742  56.9119053  84.9749817  74.1395680  70.6590370
  84.3448478  74.8211961  70.8925767  84.8685905  74.0278762  69.7143508
  80.2694790  73.8067476  61.5856294  79.4793844  74.0625005  61.1096405
  80.7606037  74.6215814  61.6908334  94.2858599  81.1472715  64.3361575
  95.1076043  80.7452903  64.0544256  94.2821002  81.0440950  65.2877691
  88.0515203  80.6956759  66.4922285  88.1159635  81.1577166  67.3280457
  87.3426126  80.0654124  66.6204595  78.5532493  74.0597967  64.0171285
  78.8040531  74.9444977  64.2828861  79.0892041  73.8802568  63.2446377
 102.3764592  77.4911464  60.6846546 101.6228301  76.9218862  60.5290551
 102.5112133  77.4574128  61.6317181  87.7663220  82.3624866  56.3601266
  87.6308895  83.2076402  56.7886113  88.3073033  82.5644144  55.5967199
  84.2530560  68.4416446  73.0215621  83.8597505  67.8882645  73.6963265
  85.0696700  68.7527025  73.4122138  83.0287502  82.9966061  59.0151944
  83.2054131  83.9184025  58.8272928  83.8244336  82.6824480  59.4446324
  82.3139859  75.0430692  68.8914107  82.1993374  74.1415950  69.1921206
  81.4584377  75.2894389  68.5398924  89.3931697  82.9848433  70.4901608
  88.9495551  82.1984811  70.1722512  90.0548910  83.1727583  69.8245498
  84.1518818  84.5144234  65.0162286  84.7026243  84.3861298  64.2439280
  83.3130294  84.8139123  64.6657179  91.4912935  83.2651233  68.5183009
  91.4731410  84.0860114  68.0263278  92.4132855  83.1405308  68.7433150
  87.9485989  80.7795362  69.3606517  88.4814326  80.0183650  69.1305825
  87.4200070  80.4869014  70.1030672  91.0805967  75.8764039  53.3972594
  90.5652590  76.6468644  53.6360982  90.8083275  75.2029175  54.0205656
  88.6653078  70.7213740  58.4557833  87.8094674  70.3320590  58.2763471
  89.0780029  70.8005701  57.5957618  96.0540241  78.6296394  55.3325768
  95.2769683  78.2907553  54.8880930  96.7331722  78.6349017  54.6580733
  90.8692270  73.7491131  55.2232375  90.5642405  74.0637280  56.0742519
  91.8222712  73.8272551  55.2659708  89.3138702  79.9081355  56.8725329
  88.7860063  79.1734114  56.5598567  88.8126204  80.6856031  56.6265298
  94.2931548  78.1030375  61.9892376  93.6355222  78.7929637  62.0772504
  95.0971947  78.4926807  62.3326362  93.1037006  76.4574748  60.0396317
  93.6168888  77.0904740  60.5418027  93.7538230  75.8575943  59.6739677
  87.4591302  77.7261565  49.8760302  86.5518363  77.4950818  50.0751451
  87.9562334  76.9299184  50.0634284  90.3659381  86.4359072  52.7956989
  89.6921079  86.7390769  53.4041946  90.7525203  87.2388152  52.4462446
  89.5817837  73.9324203  62.2854658  88.6640399  74.1539150  62.1276346
  89.9977981  74.0070514  61.4266365  90.3652885  75.3315619  57.4157338
  91.1124704  75.8437016  57.1064460  90.6344475  75.0099672  58.2761732
  88.6379535  77.8274160  54.3984292  87.7290754  77.5433193  54.4956762
  88.6674619  78.2473238  53.5387599  93.8698803  81.4380749  58.1675460
  93.4161130  80.5971659  58.2240650  93.2392769  82.0742148  58.5050240
  92.8131722  72.3672735  59.3976127  92.0754479  71.8550121  59.7286370
  93.0658496  71.9273117  58.5859404  92.3131742  83.2757246  59.1025278
  92.6054716  83.8362303  58.3837644  92.8230362  83.5685807  59.8578437
  87.1864429  75.4402780  60.4994088  87.2413039  74.4876617  60.4236564
  86.3755631  75.5962219  60.9835386  88.3355623  79.3682903  51.7372371
  87.8975053  78.6518762  51.2778008  89.0766064  79.5959018  51.1757462
  85.1256789  74.0579840  58.2584467  84.3124655  74.3574011  58.6649659
  85.6215783  73.6635529  58.9758949  87.2765367  84.0537597  60.1918731
  87.2341546  84.2798443  59.2627263  88.1928066  83.8200972  60.3404533
  90.7231001  74.5221665  67.0899361  91.0780389  74.7493138  67.9493826
  91.3703132  74.8540041  66.4676616  96.4528738  77.6440100  57.7948690
  96.3146636  77.8341696  56.8669879  96.0964957  78.4059483  58.2516741
  84.6170864  71.6298196  63.8745702  85.2570243  71.4886955  63.1768665
  83.7848394  71.3432709  63.4984304  96.4798117  79.7116627  62.8059961
  96.9134624  79.6191917  63.6543015  97.1929698  79.6874128  62.1679977
  85.3931168  80.9300626  59.9880694  86.1871766  80.4350946  59.7863269
  84.6822860  80.4018489  59.6248400  90.2126012  83.3118722  64.3393062
  90.2663035  83.8809658  65.1070778  89.3440794  83.4820607  63.9747099
  83.0924406  73.0136278  65.8217513  83.7647459  72.8053640  65.1730162
  82.2654192  72.8158364  65.3822745  97.3413667  79.7540328  65.3392847
  97.5349557  80.6586139  65.5852121  97.2414285  79.2947747  66.1731432
  92.4028776  79.9047071  70.9133727  92.2514282  79.6757623  69.9963811
  92.3933455  80.8617672  70.9265072  89.1714112  77.4778984  65.8979994
  90.1006172  77.6290143  65.7248961  88.7505142  77.5663004  65.0428640
  87.9702444  81.5029648  63.6678531  87.8313529  81.1348432  64.5404469
  87.1817040  82.0177287  63.4962489  88.5650596  86.6038744  55.0104068
  88.7402351  86.1326788  55.8249690  87.8783384  87.2304511  55.2385328
  89.5207659  80.8811251  61.0567369  89.1857492  80.8412021  61.9525019
  89.0211605  80.2155967  60.5837779  83.4951903  76.2878881  66.5819950
  83.3571701  75.5559120  67.1831489  84.4056826  76.1987781  66.3004138
  92.4566851  78.2267285  51.3304429  91.8396021  77.5014113  51.2337481
  91.9883339  78.9876645  50.9871503  86.1234204  75.9998840  66.0703630
  86.8333822  75.3592032  66.0290248  86.0803512  76.2511735  66.9929811
  94.1120982  82.9366193  68.9910209  94.0533528  82.2525414  68.3240792
  94.5140501  83.6785183  68.5390835  84.8363138  72.9864058  67.8899269
  84.3000495  72.5354796  68.5420866  84.2479846  73.1209967  67.1469734
  83.1311681  89.7528107  61.7843928  83.3708279  90.3846631  62.4622946
  82.2880877  89.4016147  62.0709287  94.1138389  80.9005777  67.2224189
  93.2265168  80.5631699  67.3450588  94.6836941  80.1688809  67.4592954
  75.7667537  77.2329869  60.5467240  76.4538576  76.9191599  59.9588255
  75.6115665  78.1371234  60.2734491  87.6439543  85.5607230  64.1885432
  87.5709714  86.3662201  64.7004736  87.2016936  85.7599196  63.3633453
  87.4329323  84.7979000  57.6988253  86.6496844  85.3400680  57.7926478
  88.1322068  85.3152979  58.0982495  90.7425973  70.6073629  60.3422459
  91.2394672  69.8543592  60.0223529  89.9712954  70.6437946  59.7765668
  98.5955730  76.3113995  61.9840750  98.5845606  77.1938710  61.6134683
  97.7273109  75.9585546  61.7895287  90.1038226  85.4594064  66.3443591
  90.8166199  86.0941529  66.2719492  89.6128255  85.5557930  65.5283592
  91.8255753  79.3645316  57.9160882  90.8912032  79.4846779  57.7465587
  92.0032422  78.4617783  57.6520892  87.3260941  72.7491012  60.0694143
  86.9558729  72.1962053  60.7575049  87.8220034  72.1449146  59.5169143
  95.2128305  75.2062636  58.4510916  95.6788757  76.0390627  58.3771219
  95.6635805  74.7407617  59.1556175  85.1550140  83.2088507  67.1649161
  85.8559599  83.8424990  67.3178556  84.6845255  83.5503239  66.4044801
  93.2804536  81.5506457  55.4497068  93.5564380  81.4363052  56.3590942
  92.4109035  81.1523942  55.4109241  92.9551426  75.7633115  64.9901712
  92.3022876  76.0109022  64.3354164  93.3331806  74.9497253  64.6564189
  89.9158600  85.7992808  59.0929882  90.0980994  84.9814464  59.5557634
  90.7391586  86.0160500  58.6554772  90.2500765  84.7260993  56.3544930
  90.7788532  84.2153448  55.7415093  90.5128985  84.4103523  57.2190463
  89.0038999  76.5052926  71.4767749  88.3279636  76.4047055  72.1470124
  89.8266633  76.3492139  71.9403746  80.7517858  82.7424862  64.0980264
  81.3371295  81.9968550  64.2308168  80.5542696  83.0528819  64.9816928
  83.6056513  85.7776110  59.1142706  82.9366888  86.2622237  58.6306746
  83.4669383  86.0245330  60.0286085  75.3435513  75.3130462  62.8184707
  75.3819612  74.7794053  63.6121825  74.8375806  74.7865668  62.1995684
  87.7461782  87.8119853  65.7125365  88.2980090  87.9751475  66.4774450
  88.0867975  88.4024291  65.0405390  92.5972656  82.6381111  71.5674019
  93.1412560  83.2511069  71.0728974  92.0159501  83.1960689  72.0841032
  90.8830169  85.7601829  62.6989047  90.7581309  84.9591569  62.1899992
  91.5409260  86.2548022  62.2103017  82.5038337  72.1150561  61.8766187
  81.7824923  72.7286529  61.7373660  83.2931593  72.6508326  61.7982833
  92.9465077  83.5610849  64.3268597  91.9995413  83.4416200  64.2546924
  93.2947851  82.6733347  64.4094858  89.9511511  83.3563565  60.5272949
  89.8036473  82.4280272  60.7080519  90.7765004  83.3783656  60.0430024
  93.5545633  84.1792124  61.6137822  94.4792180  83.9734985  61.4762273
  93.3860936  83.9308525  62.5227163  84.6872246  74.1687116  62.0975811
  84.5416827  74.4827419  62.9900093  84.2097450  74.7872016  61.5446710
  86.5468629  71.1589664  62.1456701  86.5330198  70.2630757  61.8088999
  87.2641057  71.1660328  62.7794987  88.3994760  71.5927004  64.1909828
  88.1412538  72.5144075  64.1894158  87.8679800  71.1957439  64.8810292
  93.3440949  84.6977791  56.9699913  93.5177826  84.1324214  56.2173766
  93.8369840  85.4978686  56.7879403  79.1617909  76.7092460  65.0363472
  78.6171377  77.4852268  65.1683747  80.0397258  77.0563265  64.8782594
  99.1980340  77.4614214  58.5890213  99.6411486  76.7121539  58.1909336
  98.3206850  77.4524350  58.2063945  94.3316121  84.0144556  54.0696812
  95.0267026  84.6351248  54.2884126  94.6739271  83.1639907  54.3449190
  79.9483930  75.8362357  67.9293629  79.2065667  75.9844992  68.5158260
  79.6276675  76.0970622  67.0660379  96.2307544  81.4644261  55.5984142
  96.7558869  81.8031534  54.8733463  96.1429897  80.5291276  55.4147277
  87.8927593  85.3778335  67.7274019  88.2014720  85.1327482  68.5996719
  88.6903075  85.5824973  67.2392889  87.9148205  87.5316244  59.9579396
  87.4753195  87.0392623  60.6512252  88.6656322  86.9889212  59.7171471
  80.3940544  83.7227785  59.9604024  81.2198564  83.4231557  59.5802667
  80.0434596  82.9535408  60.4093812  85.3622077  83.0754253  62.0301697
  84.7402087  82.4124958  61.7303925  86.0326944  83.1015385  61.3475345
  78.5949149  81.6414112  60.9192957  77.7581058  81.2136286  60.7376959
  78.5672795  81.8346555  61.8563749  85.4346605  71.5536041  71.6234203
  85.4834760  72.4298164  71.2411973  85.9769119  71.0113435  71.0505847
  95.9201450  82.0977165  70.9035340  95.1296994  82.0801304  70.3639840
  95.6834805  82.6365458  71.6584377  96.0399326  78.9469631  68.2168069
  96.0897330  78.7819639  69.1583592  95.9313249  78.0796890  67.8265950
  84.9235584  81.6258177  55.5060158  85.0723705  82.3093641  54.8526831
  85.7302028  81.6063267  56.0209614  93.3303088  74.9300559  69.5327376
  94.2312951  74.7907024  69.2411373  93.4051062  75.0955014  70.4725553
  87.6645893  72.3067414  68.3780562  86.7949203  72.6000980  68.1063151
  87.9005374  72.8907859  69.0987826  97.5417522  81.3666573  68.4610091
  97.2502331  81.7296553  69.2973551  96.9289654  80.6533581  68.2823423
  98.7413205  78.9319452  60.9812661  99.5760096  79.3709256  61.1450221
  98.8772333  78.4558106  60.1620907  95.7904711  76.4899187  66.9290149
  96.2658832  76.6826834  66.1209000  94.8670276  76.5458373  66.6833532
  88.4230990  84.1206307  52.9771905  87.8504957  84.7396494  52.5242377
  88.9963783  84.6705669  53.5111827  94.4906380  73.3664947  65.1618454
  95.4423803  73.4663045  65.1830678  94.3209830  72.5743216  65.6716538
  92.5120759  70.4520531  65.3477855  91.9170691  70.7325543  64.6524344
  92.2270456  70.9414431  66.1194596  91.6428250  84.4043457  54.1080488
  92.5758923  84.3389019  54.3113363  91.5551462  85.2399724  53.6495020
  94.2716266  83.7209328  51.0684435  94.1929898  83.3869191  51.9620193
  95.0925933  84.2131096  51.0675907  96.9694457  76.5871067  64.2760754
  96.9370778  75.6487068  64.4620438  97.5795081  76.6655104  63.5426579
  88.8077788  75.4567120  50.3187958  89.7536893  75.3273328  50.3876376
  88.4292033  74.7181782  50.7957386  97.1188946  73.3782110  64.3219037
  96.6027995  72.5940567  64.1348966  98.0028894  73.0500827  64.4865556
 102.7871007  77.6487074  63.4166791 103.5174396  77.3872362  63.9774494
 102.1777953  76.9115796  63.4568859 100.8686304  75.7894936  64.0141242
 100.1419468  75.6550901  63.4057733 100.4533591  76.0971765  64.8197960
  88.6916481  79.5084866  71.7788615  89.6119490  79.6863465  71.9728661
  88.6566064  78.5640911  71.6268314  81.6878553  77.4185901  64.4211396
  81.9064563  78.3503009  64.4399430  82.1004327  77.0593875  65.2066200
  86.5606419  72.9919107  73.8114145  86.4603146  73.9413464  73.7426236
  86.3427961  72.6637345  72.9390215  77.7786906  78.3226371  62.6735011
  77.0850377  77.9080324  62.1604965  78.5259897  78.3646908  62.0768430
  93.9152127  69.1132558  57.5390045  93.3350796  69.7717362  57.1568098
  93.6488059  68.2909903  57.1277463  92.3655693  68.5137616  59.7411366
  92.8655471  68.6254150  58.9325684  93.0091301  68.2098669  60.3812174
  86.4237689  76.4216245  72.6279207  85.9404770  77.2216606  72.8343096
  86.5098628  76.4324190  71.6746651  82.3511026  80.3120780  64.6647640
  83.3054280  80.2804722  64.5977572  82.1523550  79.8511404  65.4797866
  82.9410408  78.8821896  67.2318438  83.7603297  79.3765975  67.2553275
  83.2147216  77.9653864  67.2036005  92.6977005  71.2732648  56.5946393
  91.8102860  71.5582299  56.3766588  93.1130994  71.1126412  55.7473670
  96.0491541  71.2979169  60.3100733  96.8251931  71.7875622  60.5825350
  95.3239675  71.7237224  60.7672602  98.4864099  72.0106789  61.3674673
  99.0808590  71.7702525  60.6567982  98.5590683  71.2913919  61.9948210
  80.7061255  85.8540400  61.6817838  80.5715723  85.0940800  61.1155836
  80.2893317  86.5781299  61.2146627  91.8420218  81.0377323  50.6894413
  92.5456068  81.2427326  51.3052069  91.1182867  81.6054085  50.9543497
  92.6718028  76.7887184  56.8096684  92.6153230  77.2455736  55.9704316
  93.2246371  76.0277869  56.6319526  96.4822834  72.5776916  57.6346803
  96.2259768  72.1773552  58.4655011  95.8575702  73.2920710  57.5096942
 100.7935172  75.3172990  60.1418095 100.2334730  75.3866179  60.9149657
 100.1878675  75.1413974  59.4217591  83.8630381  86.7509717  61.8936281
  83.7462765  87.6955149  61.7914971  83.0422827  86.4483278  62.2822080
  93.7506915  81.4759852  52.7392874  94.5852519  81.0441051  52.5570348
  93.5891258  81.3041866  53.6669768  93.4052808  77.9791966  54.1049213
  93.3501611  77.8136237  53.1637657  92.7798863  78.6867999  54.2611403
  78.1945323  73.2160030  67.9310635  78.8404186  72.7058984  68.4197860
  77.9862474  73.9528712  68.5054060  90.7198715  80.2840877  73.4302776
  91.5889874  80.4581530  73.0689411  90.2405466  81.1035294  73.3078505
  84.8884895  87.4037979  65.1092209  85.7912142  87.4361589  65.4258704
  84.6622265  86.4738429  65.1238545  86.6438497  86.1568965  61.7702288
  85.6934128  86.1570827  61.6566660  86.9470983  85.4101700  61.2538322
 102.3791190  91.9929503  62.8348050 103.0169600  91.8736251  62.1311390
 102.2612033  92.9410347  62.8936002  99.1880897  91.9456932  62.7709575
  98.8499408  91.8297996  61.8830110 100.0570665  91.5448097  62.7510581
  95.0467712  93.7992408  58.7606466  94.4832578  93.7082345  57.9922754
  94.9320108  92.9792312  59.2408958  99.6700680  93.0991783  68.7295780
  99.6589321  92.7044582  67.8576284  99.8321319  92.3657856  69.3229552
  92.5932144  95.2943600  61.5990686  93.3853436  94.9534424  61.1836986
  92.8328795  95.4038575  62.5192840 100.6267271  97.4663376  54.0720931
  99.9755251  98.0517456  53.6854945 101.4211634  97.9969571  54.1315968
  94.5522898  94.5552513  54.4708065  95.3253774  94.0081500  54.3320941
  94.9048297  95.4196762  54.6822527  96.3907941  95.8828895  67.6774964
  96.0997807  96.7874526  67.5621631  97.0264925  95.9245423  68.3919034
  97.3164148  93.2605744  64.2676324  97.9127720  93.0361766  63.5533287
  97.3739119  92.5190489  64.8701772  96.8889176  90.7145179  52.1026515
  97.1414697  90.1926700  51.3409978  95.9513735  90.5511324  52.2053199
 101.9332459  89.7180957  59.9101258 102.7195548  89.3000380  59.5591675
 102.1971163  90.6227049  60.0782907 102.1042536  95.1553808  54.6089915
 101.4688369  95.2288434  55.3210820 101.7739943  95.7447406  53.9308994
 107.3340886  89.6556190  60.8134237 108.0666058  89.0855407  61.0472066
 106.5780242  89.2677791  61.2540742  96.6085465  92.6173285  54.3050890
  96.4921723  91.9418188  54.9731974  96.7187725  92.1305659  53.4883043
  98.9517006  92.0783432  58.0097579  98.5875213  91.5514053  58.7210501
  99.8084122  91.6881901  57.8364065 104.8566306  83.3677765  65.2728845
 104.5249631  84.2373176  65.0490060 104.2611920  83.0514049  65.9522876
  98.5922493  87.1073332  53.0058928  98.7596895  87.9753568  53.3729399
  98.4019662  87.2700613  52.0820217 101.3497826  95.5690311  64.6724758
 101.0498549  96.4715349  64.5640565 101.0048886  95.3022494  65.5245911
  94.8010307  92.0204107  60.7061463  93.8760804  91.8880322  60.9139154
  95.0494721  92.7998327  61.2031405 104.7494970  88.0872851  62.3522195
 103.8411847  88.0188259  62.0580956 104.6982566  88.5644796  63.1804021
  98.5711714  89.5630989  53.9905595  98.4511339  90.0088040  54.8291075
  97.8764302  89.9116307  53.4319133  92.1619119  91.6637381  61.5405252
  92.2911500  91.9171860  62.4544663  91.4816570  92.2565089  61.2209907
  96.3318606 102.3334631  57.6395726  96.2542635 103.2842456  57.7184206
  95.7280249 101.9880503  58.2970652  98.8235836  89.5062496  70.2957093
  98.0469170  90.0656417  70.2859957  99.4626399  89.9919279  70.8171963
 106.6156616  86.2889289  64.1300069 105.9730996  86.5821822  63.4839864
 106.1111545  86.1742210  64.9353266 104.2696780  90.0352462  54.8185929
 105.1814636  90.2679849  54.6433626 103.7606427  90.6189507  54.2561007
  97.0782208  92.3147950  69.8575060  97.8196892  92.8532994  69.5809883
  96.3719193  92.9414238  70.0146612 102.5537548  94.4577090  68.4547221
 102.9620904  94.0159501  67.7101854 101.8314809  93.8829718  68.7081414
  98.9068618  89.3949697  65.8280778  99.7529813  89.8189111  65.9715427
  98.8467255  88.7383321  66.5219341 102.8766362  95.0178281  62.2099510
 102.2475225  95.1823995  61.5075578 102.4892024  95.4319890  62.9810474
 106.7555594  95.9532719  59.5643874 106.0706632  96.3331620  59.0140907
 106.8399443  96.5628045  60.2975822 102.0568063  87.0554065  67.4861952
 101.8128995  87.8096126  66.9496228 102.3327993  87.4339413  68.3209199
 104.0106526  93.5992678  66.1639217 104.2223421  94.2424438  65.4873598
 103.9636274  92.7654994  65.6961147 101.6132755  86.2110498  63.0675790
 100.7517234  86.5091752  63.3592527 101.6395189  86.4280897  62.1356822
  98.4294324  94.7552689  59.4749595  98.8932670  95.0340392  58.6854218
  98.1651122  93.8536133  59.2922686  95.3218405  94.3024170  62.4129358
  95.8919762  94.7311439  61.7746843  95.9126517  94.0206755  63.1113544
  97.3663210  90.8775841  56.2839160  98.0687253  91.3296885  56.7513087
  97.0343839  90.2359660  56.9119053  95.8143572  89.4687598  70.6590370
  95.1842232  90.1503879  70.8925767  95.7079660  89.3570680  69.7143508
  91.1088544  89.1359394  61.5856294  90.3187598  89.3916922  61.1096405
  91.5999791  89.9507732  61.6908334 105.1252354  96.4764633  64.3361575
 105.9469797  96.0744820  64.0544256 105.1214756  96.3732867  65.2877691
  93.0603289  89.5003973  58.5439771  92.2634453  89.6122667  59.0623266
  92.8328882  89.8390625  57.6780661  98.8908957  96.0248676  66.4922285
  98.9553390  96.4869084  67.3280457  98.1819881  95.3946041  66.6204595
  89.3926247  89.3889884  64.0171285  89.6434285  90.2736894  64.2828861
  89.9285795  89.2094486  63.2446377 113.2158347  92.8203382  60.6846546
 112.4622055  92.2510780  60.5290551 113.3505888  92.7866046  61.6317181
  98.6056975  97.6916784  56.3601266  98.4702649  98.5368320  56.7886113
  99.1466787  97.8936062  55.5967199  95.0924314  83.7708364  73.0215621
  94.6991260  83.2174562  73.6963265  95.9090455  84.0818942  73.4122138
  92.0586372  95.2092222  56.9329191  92.5710893  96.0035472  57.0834755
  92.7109085  94.5118512  56.8662792  93.8681257  98.3257978  59.0151944
  94.0447885  99.2475943  58.8272928  94.6638090  98.0116397  59.4446324
  98.0092275  85.1866243  70.6135877  98.7501989  85.7873396  70.5340340
  98.2410198  84.4443881  70.0553920  93.1533613  90.3722610  68.8914107
  93.0387128  89.4707867  69.1921206  92.2978131  90.6186307  68.5398924
 100.2325451  98.3140350  70.4901608  99.7889305  97.5276729  70.1722512
 100.8942665  98.5019501  69.8245498  94.9912572  99.8436152  65.0162286
  95.5419997  99.7153215  64.2439280  94.1524048 100.1431041  64.6657179
 102.3306689  98.5943150  68.5183009 102.3125165  99.4152031  68.0263278
 103.2526609  98.4697226  68.7433150  98.7879743  96.1087280  69.3606517
  99.3208080  95.3475568  69.1305825  98.2593824  95.8160932  70.1030672
 101.9549438  81.2147346  64.8900159 101.6113708  82.1048987  64.8139270
 102.3228401  81.0249003  64.0269744  90.0235289  93.5380876  57.7088761
  90.8610511  93.9477885  57.4922469  90.2013557  92.5980318  57.6788955
 101.9199721  91.2055957  53.3972594 101.4046344  91.9760562  53.6360982
 101.6477029  90.5321093  54.0205656  99.5046832  86.0505658  58.4557833
  98.6488428  85.6612508  58.2763471  99.9173784  86.1297618  57.5957618
 101.0345979  83.5852001  62.8549392 100.5310774  83.5482136  62.0417198
 101.3276586  84.4944744  62.9146049  97.2788865  83.6690731  61.8615574
  98.1441861  83.4733539  61.5021464  97.3466373  83.4401082  62.7884931
 106.8933995  93.9588312  55.3325768 106.1163438  93.6199471  54.8880930
 107.5725476  93.9640935  54.6580733 101.7086024  89.0783049  55.2232375
 101.4036160  89.3929198  56.0742519 102.6616466  89.1564469  55.2659708
 100.1532456  95.2373272  56.8725329  99.6253818  94.5026032  56.5598567
  99.6519959  96.0147949  56.6265298 105.1325302  93.4322293  61.9892376
 104.4748976  94.1221554  62.0772504 105.9365701  93.8218725  62.3326362
  94.8851184  85.8992939  59.2331941  95.4594936  85.6768120  58.5005134
  95.4722166  85.9681633  59.9860542 103.9430761  91.7866665  60.0396317
 104.4562643  92.4196657  60.5418027 104.5931985  91.1867861  59.6739677
  95.2120771  87.9297400  53.2527826  94.3758083  88.2672086  53.5737101
  95.0725540  87.7946379  52.3154963  97.1873851  82.7734187  57.9607010
  96.5338264  82.4583205  57.3363625  97.1454325  82.1509928  58.6866833
  98.2985056  93.0553483  49.8760302  97.3912118  92.8242736  50.0751451
  98.7956088  92.2591102  50.0634284 101.2053135 101.7650990  52.7956989
 100.5314834 102.0682687  53.4041946 101.5918957 102.5680070  52.4462446
 100.4211592  89.2616121  62.2854658  99.5034153  89.4831068  62.1276346
 100.8371735  89.3362431  61.4266365 101.2046639  90.6607537  57.4157338
 101.9518458  91.1728934  57.1064460 101.4738229  90.3391589  58.2761732
  99.4773290  93.1566077  54.3984292  98.5684509  92.8725110  54.4956762
  99.5068373  93.5765156  53.5387599 104.7092557  96.7672667  58.1675460
 104.2554884  95.9263577  58.2240650 104.0786524  97.4034065  58.5050240
 103.6525477  87.6964653  59.3976127 102.9148233  87.1842039  59.7286370
 103.9052250  87.2565035  58.5859404 103.1525496  98.6049164  59.1025278
 103.4448471  99.1654221  58.3837644 103.6624117  98.8977725  59.8578437
 103.7537104  80.4740905  59.9917897 104.0595981  79.6138268  59.7043812
 104.4789709  81.0658525  59.7916891  90.0461460  90.8771592  58.3799495
  89.8485860  90.2840952  57.6550561  89.4908124  90.5723802  59.0975433
  98.0258184  90.7694698  60.4994088  98.0806793  89.8168534  60.4236564
  97.2149386  90.9254137  60.9835386  99.1749377  94.6974821  51.7372371
  98.7368807  93.9810680  51.2778008  99.9159818  94.9250936  51.1757462
  95.9650544  89.3871758  58.2584467  95.1518409  89.6865928  58.6649659
  96.4609538  88.9927447  58.9758949  98.1159121  99.3829515  60.1918731
  98.0735300  99.6090361  59.2627263  99.0321820  99.1492889  60.3404533
 101.5624755  89.8513582  67.0899361 101.9174143  90.0785055  67.9493826
 102.2096887  90.1831959  66.4676616 107.2922492  92.9732018  57.7948690
 107.1540391  93.1633614  56.8669879 106.9358711  93.7351401  58.2516741
  95.4564618  86.9590113  63.8745702  96.0963998  86.8178872  63.1768665
  94.6242149  86.6724627  63.4984304 107.3191872  95.0408545  62.8059961
 107.7528378  94.9483834  63.6543015 108.0323453  95.0166046  62.1679977
  96.2324922  96.2592544  59.9880694  97.0265521  95.7642864  59.7863269
  95.5216615  95.7310407  59.6248400 101.0519767  98.6410639  64.3393062
 101.1056789  99.2101576  65.1070778 100.1834548  98.8112524  63.9747099
  92.5407686  90.4035625  56.0640447  91.6105274  90.3420081  56.2810409
  92.6365158  89.8811578  55.2677088  92.4593235  86.9290438  58.6518688
  92.7200052  87.8435772  58.5427849  93.2810407  86.4614881  58.8015301
  93.9318160  88.3428195  65.8217513  94.6041214  88.1345558  65.1730162
  93.1047947  88.1450281  65.3822745 108.1807421  95.0832246  65.3392847
 108.3743311  95.9878056  65.5852121 108.0808040  94.6239665  66.1731432
  99.8343732  84.9690136  67.8383174  99.1871647  85.6680086  67.7447650
 100.6044748  85.4026280  68.2059422 103.2422530  95.2338989  70.9133727
 103.0908036  95.0049540  69.9963811 103.2327210  96.1909590  70.9265072
 100.0107866  92.8070901  65.8979994 100.9399926  92.9582061  65.7248961
  99.5898896  92.8954922  65.0428640  98.8096198  96.8321566  63.6678531
  98.6707284  96.4640350  64.5404469  98.0210794  97.3469205  63.4962489
  99.4044350 101.9330662  55.0104068  99.5796106 101.4618705  55.8249690
  98.7177138 102.5596428  55.2385328 100.3601413  96.2103168  61.0567369
 100.0251246  96.1703938  61.9525019  99.8605359  95.5447884  60.5837779
  94.3345657  91.6170798  66.5819950  94.1965455  90.8851037  67.1831489
  95.2450581  91.5279699  66.3004138 103.2960605  93.5559203  51.3304429
 102.6789776  92.8306031  51.2337481 102.8277094  94.3168563  50.9871503
  96.9627958  91.3290758  66.0703630  97.6727577  90.6883950  66.0290248
  96.9197266  91.5803653  66.9929811 104.9514737  98.2658111  68.9910209
 104.8927283  97.5817331  68.3240792 105.3534255  99.0077101  68.5390835
  95.6756892  88.3155976  67.8899269  95.1394249  87.8646714  68.5420866
  95.0873600  88.4501884  67.1469734  93.9705436 105.0820025  61.7843928
  94.2102034 105.7138549  62.4622946  93.1274632 104.7308065  62.0709287
  95.0859151  87.7744627  50.4525733  94.2088617  87.6533428  50.0887980
  95.5616904  86.9830705  50.2004622 104.9532144  96.2297695  67.2224189
 104.0658923  95.8923617  67.3450588 105.5230695  95.4980726  67.4592954
  86.6061291  92.5621787  60.5467240  87.2932331  92.2483517  59.9588255
  86.4509420  93.4663151  60.2734491  91.4096013  87.4511983  64.9752264
  91.3254202  86.8437653  64.2402674  90.5878720  87.9421002  64.9761760
  98.4833297 100.8899147  64.1885432  98.4103469 101.6954119  64.7004736
  98.0410690 101.0891113  63.3633453  98.2723077 100.1270917  57.6988253
  97.4890599 100.6692598  57.7926478  98.9715822 100.6444897  58.0982495
 101.5819727  85.9365547  60.3422459 102.0788427  85.1835509  60.0223529
 100.8106709  85.9729864  59.7765668 109.4349485  91.6405912  61.9840750
 109.4239361  92.5230628  61.6134683 108.5666864  91.2877463  61.7895287
 100.9431981 100.7885981  66.3443591 101.6559953 101.4233446  66.2719492
 100.4522010 100.8849847  65.5283592 102.6649508  94.6937234  57.9160882
 101.7305787  94.8138697  57.7465587 102.8426176  93.7909701  57.6520892
  98.1654696  88.0782930  60.0694143  97.7952483  87.5253970  60.7575049
  98.6613788  87.4741063  59.5169143 106.0522059  90.5354553  58.4510916
 106.5182511  91.3682545  58.3771219 106.5029560  90.0699535  59.1556175
  95.9943894  98.5380425  67.1649161  96.6953354  99.1716908  67.3178556
  95.5239009  98.8795156  66.4044801 104.1198290  96.8798375  55.4497068
 104.3958134  96.7654969  56.3590942 103.2502789  96.4815860  55.4109241
 104.0238722  82.9035140  62.4901818 103.1101802  83.1339367  62.6584025
 104.4531823  82.9873584  63.3415850 103.7945180  91.0925032  64.9901712
 103.1416631  91.3400940  64.3354164 104.1725560  90.2789171  64.6564189
 100.7552354 101.1284726  59.0929882 100.9374749 100.3106381  59.5557634
 101.5785340 101.3452418  58.6554772 101.0894520 100.0552911  56.3544930
 101.6182286  99.5445365  55.7415093 101.3522739  99.7395441  57.2190463
  99.8432753  91.8344843  71.4767749  99.1673390  91.7338973  72.1470124
 100.6660387  91.6784057  71.9403746  91.5911612  98.0716780  64.0980264
  92.1765049  97.3260468  64.2308168  91.3936451  98.3820737  64.9816928
  94.4450268 101.1068027  59.1142706  93.7760643 101.5914155  58.6306746
  94.3063137 101.3537248  60.0286085  86.1829267  90.6422380  62.8184707
  86.2213367  90.1085971  63.6121825  85.6769560  90.1157586  62.1995684
  98.5855536 103.1411771  65.7125365  99.1373844 103.3043392  66.4774450
  98.9261730 103.7316209  65.0405390  93.5620030  85.4886921  66.3147249
  93.6261356  86.3501752  65.9024647  93.4987150  84.8760922  65.5819608
  93.0372302  87.5610053  69.9620284  93.6644341  87.1787130  70.5757808
  92.1800221  87.3424255  70.3275976 103.4366411  97.9673028  71.5674019
 103.9806315  98.5802987  71.0728974 102.8553255  98.5252607  72.0841032
  89.8137845  89.3686482  55.8938639  90.1091286  88.4597161  55.8405692
  88.9125881  89.3474222  55.5719641 101.7223924 101.0893746  62.6989047
 101.5975063 100.2883486  62.1899992 102.3803015 101.5839940  62.2103017
  93.3432092  87.4442479  61.8766187  92.6218678  88.0578447  61.7373660
  94.1325348  87.9800244  61.7982833 103.7858832  98.8902766  64.3268597
 102.8389167  98.7708118  64.2546924 104.1341605  98.0025264  64.4094858
  96.1458405  84.7796905  68.1506839  96.6692807  85.0259202  68.9133148
  95.9270739  85.6116940  67.7309976  91.5425686  87.0500580  56.0177964
  91.2138393  86.1697959  55.8353070  91.8965057  86.9948249  56.9054353
 100.7905265  98.6855483  60.5272949 100.6430228  97.7572190  60.7080519
 101.6158759  98.7075573  60.0430024  94.6567510  87.3373550  56.3853441
  94.9963582  87.8659471  55.6632050  95.1039630  87.6753956  57.1612008
 104.3939387  99.5084041  61.6137822 105.3185935  99.3026903  61.4762273
 104.2254690  99.2600443  62.5227163  97.3510950  85.7210600  65.8356509
  97.0107771  84.9218414  66.2377189  96.6449957  86.0212311  65.2633343
  98.0027422  82.8059913  64.2883832  98.8253492  82.3320391  64.1662723
  98.2465486  83.5850397  64.7882519  96.6435657  85.8348171  54.5846734
  97.3644019  86.2129424  54.0810451  96.0200961  86.5537048  54.6881712
 100.7866780  86.5393320  55.5205066 101.0030394  87.4217958  55.2193895
 100.3060847  86.1479534  54.7910708  95.5266001  89.4979034  62.0975811
  95.3810582  89.8119337  62.9900093  95.0491205  90.1163934  61.5446710
  97.3862384  86.4881582  62.1456701  97.3723953  85.5922675  61.8088999
  98.1034812  86.4952245  62.7794987  99.2388515  86.9218922  64.1909828
  98.9806292  87.8435992  64.1894158  98.7073555  86.5249356  64.8810292
 104.1834703 100.0269709  56.9699913 104.3571581  99.4616131  56.2173766
 104.6763595 100.8270604  56.7879403  90.0011663  92.0384378  65.0363472
  89.4565131  92.8144186  65.1683747  90.8791013  92.3855182  64.8782594
  96.7899280  85.3695962  57.4144271  96.9115191  84.4412608  57.6135158
  96.5001322  85.3834648  56.5022586  99.6590470  83.0550872  60.5510991
  99.6812167  83.1190205  59.5962970 100.0758529  82.2155381  60.7451497
 110.0374094  92.7906132  58.5890213 110.4805241  92.0413457  58.1909336
 109.1600605  92.7816268  58.2063945 105.1709876  99.3436473  54.0696812
 105.8660780  99.9643166  54.2884126 105.5133026  98.4931824  54.3449190
  90.7877685  91.1654274  67.9293629  90.0459421  91.3136910  68.5158260
  90.4670429  91.4262540  67.0660379 107.0701299  96.7936179  55.5984142
 107.5952623  97.1323452  54.8733463 106.9823651  95.8583194  55.4147277
  98.7321348 100.7070252  67.7274019  99.0408474 100.4619399  68.5996719
  99.5296830 100.9116891  67.2392889  98.7541960 102.8608162  59.9579396
  98.3146950 102.3684541  60.6512252  99.5050077 102.3181130  59.7171471
  91.2334299  99.0519703  59.9604024  92.0592319  98.7523475  59.5802667
  90.8828351  98.2827325  60.4093812  96.2015832  98.4046171  62.0301697
  95.5795841  97.7416876  61.7303925  96.8720699  98.4307303  61.3475345
  89.4342904  96.9706029  60.9192957  88.5974812  96.5428204  60.7376959
  89.4066549  97.1638473  61.8563749  96.2740359  86.8827959  71.6234203
  96.3228515  87.7590082  71.2411973  96.8162874  86.3405352  71.0505847
 106.7595205  97.4269082  70.9035340 105.9690749  97.4093221  70.3639840
 106.5228560  97.9657376  71.6584377 106.8793080  94.2761549  68.2168069
 106.9291085  94.1111556  69.1583592 106.7707003  93.4088808  67.8265950
  95.7629339  96.9550094  55.5060158  95.9117459  97.6385559  54.8526831
  96.5695782  96.9355185  56.0209614 104.1696842  90.2592477  69.5327376
 105.0706705  90.1198942  69.2411373 104.2444817  90.4246932  70.4725553
  98.5039648  87.6359332  68.3780562  97.6342957  87.9292898  68.1063151
  98.7399128  88.2199777  69.0987826 108.3811277  96.6958490  68.4610091
 108.0896085  97.0588471  69.2973551 107.7683408  95.9825499  68.2823423
 109.5806959  94.2611370  60.9812661 110.4153851  94.7001174  61.1450221
 109.7166088  93.7850023  60.1620907 106.6298465  91.8191105  66.9290149
 107.1052587  92.0118751  66.1209000 105.7064030  91.8750291  66.6833532
  93.5181972  92.9815272  56.5121227  93.2728014  92.0777602  56.7101437
  93.6877886  92.9832423  55.5700705 101.2078682  83.8538948  65.8945982
 101.7260625  84.5899975  65.5692471 100.8533814  84.1602942  66.7292742
  92.7877619  88.7143630  54.0107388  92.0946864  88.7887985  53.3547424
  92.5429371  87.9503973  54.5328905 101.4591276  80.2739231  61.4146879
 101.7393030  79.6062420  62.0407306 102.2441883  80.4668327  60.9021543
  99.2624744  99.4498225  52.9771905  98.6898711 100.0688412  52.5242377
  99.8357538  99.9997587  53.5111827 105.3300134  88.6956865  65.1618454
 106.2817557  88.7954963  65.1830678 105.1603585  87.9035134  65.6716538
 103.3514514  85.7812448  65.3477855 102.7564446  86.0617461  64.6524344
 103.0664210  86.2706349  66.1194596 102.4822004  99.7335375  54.1080488
 103.4152677  99.6680937  54.3113363 102.3945217 100.5691642  53.6495020
 105.1110021  99.0501245  51.0684435 105.0323652  98.7161109  51.9620193
 105.9319687  99.5423013  51.0675907 107.8088212  91.9162985  64.2760754
 107.7764532  90.9778985  64.4620438 108.4188836  91.9947021  63.5426579
  99.6471543  90.7859038  50.3187958 100.5930647  90.6565246  50.3876376
  99.2685788  90.0473700  50.7957386 107.9582700  88.7074028  64.3219037
 107.4421749  87.9232485  64.1348966 108.8422649  88.3792745  64.4865556
 105.6193427  82.4515044  60.2814850 105.4218248  82.1430132  61.1658182
 106.2293133  83.1776683  60.4112779 113.6264762  92.9778992  63.4166791
 114.3568150  92.7164280  63.9774494 113.0171707  92.2407713  63.4568859
 111.7080059  91.1186854  64.0141242 110.9813222  90.9842819  63.4057733
 111.2927346  91.4263683  64.8197960  99.5310235  94.8376784  71.7788615
 100.4513245  95.0155383  71.9728661  99.4959818  93.8932829  71.6268314
  97.8314460  88.7109014  50.2542843  96.9245915  88.4142127  50.3305557
  98.1090441  88.4138832  49.3877129  88.7492400  90.0315377  60.7041889
  88.4295185  89.1780686  60.4116263  88.2025828  90.2463956  61.4599857
  92.5272308  92.7477818  64.4211396  92.7458318  93.6794926  64.4399430
  92.9398082  92.3885793  65.2066200  99.4476526  83.2545904  56.4087084
  98.6377254  82.9092989  56.7842330 100.1360943  82.9453448  56.9974696
 101.3767074  82.3323951  58.0311381 101.9298113  82.7519404  58.6901404
 101.6137160  81.4059699  58.0734337  97.4000173  88.3211024  73.8114145
  97.2996900  89.2705381  73.7426236  97.1821715  87.9929263  72.9390215
  96.6013245  85.5695949  50.3954822  97.4632409  85.8950848  50.6550640
  96.7863589  84.7827445  49.8827888  88.6180660  93.6518289  62.6735011
  87.9244132  93.2372242  62.1604965  89.3653651  93.6938825  62.0768430
 104.7545881  84.4424476  57.5390045 104.1744550  85.1009280  57.1568098
 104.4881814  83.6201820  57.1277463 103.2049447  83.8429533  59.7411366
 103.7049226  83.9546068  58.9325684 103.8485055  83.5390586  60.3812174
  97.2631443  91.7508163  72.6279207  96.7798525  92.5508523  72.8343096
  97.3492382  91.7616108  71.6746651  90.5317403  93.5836543  60.5501026
  90.5088091  93.6824230  59.5982909  90.8418039  94.4301694  60.8718192
  93.1904781  95.6412698  64.6647640  94.1448034  95.6096640  64.5977572
  92.9917304  95.1803322  65.4797866  93.7804163  94.2113814  67.2318438
  94.5997052  94.7057892  67.2553275  94.0540971  93.2945782  67.2036005
 103.5370759  86.6024566  56.5946393 102.6496614  86.8874217  56.3766588
 103.9524748  86.4418330  55.7473670 106.8885295  86.6271087  60.3100733
 107.6645685  87.1167540  60.5825350 106.1633429  87.0529141  60.7672602
 109.3257854  87.3398706  61.3674673 109.9202345  87.0994442  60.6567982
 109.3984437  86.6205837  61.9948210  91.5455009 101.1832317  61.6817838
  91.4109477 100.4232718  61.1155836  91.1287072 101.9073217  61.2146627
 102.6813972  96.3669241  50.6894413 103.3849823  96.5719243  51.3052069
 101.9576621  96.9346003  50.9543497 103.5111783  92.1179102  56.8096684
 103.4546984  92.5747653  55.9704316 104.0640125  91.3569787  56.6319526
 107.3216589  87.9068834  57.6346803 107.0653523  87.5065470  58.4655011
 106.6969457  88.6212628  57.5096942 111.6328927  90.6464907  60.1418095
 111.0728485  90.7158096  60.9149657 111.0272430  90.4705892  59.4217591
  94.7024135 102.0801634  61.8936281  94.5856520 103.0247067  61.7914971
  93.8816582 101.7775196  62.2822080 104.5900670  96.8051770  52.7392874
 105.4246274  96.3732968  52.5570348 104.4285013  96.6333784  53.6669768
 104.2446562  93.3083883  54.1049213 104.1895366  93.1428155  53.1637657
 103.6192617  94.0159916  54.2611403  89.0339077  88.5451948  67.9310635
  89.6797941  88.0350902  68.4197860  88.8256228  89.2820629  68.5054060
 101.5592469  95.6132795  73.4302776 102.4283629  95.7873447  73.0689411
 101.0799221  96.4327212  73.3078505  97.5542688  82.8091992  53.6834531
  97.5421357  83.7533832  53.8402802  98.4466109  82.6262138  53.3893992
  95.7278649 102.7329896  65.1092209  96.6305896 102.7653506  65.4258704
  95.5016020 101.8030347  65.1238545  97.4832251 101.4860883  61.7702288
  96.5327883 101.4862744  61.6566660  97.7864738 100.7393617  61.2538322
 101.3694807  79.4034769  57.9380468 100.6027203  78.8493256  58.0837150
 101.7805512  79.4756638  58.7994620  93.3736568  85.6919565  72.0285649
  94.2368030  85.3356370  72.2388974  92.8001979  85.3533460  72.7161054
 113.2184945 107.3221421  62.8348050 113.8563355 107.2028168  62.1311390
 113.1005788 108.2702265  62.8936002 110.0274651 107.2748849  62.7709575
 109.6893163 107.1589914  61.8830110 110.8964419 106.8740014  62.7510581
 105.8861467 109.1284326  58.7606466 105.3226332 109.0374263  57.9922754
 105.7713862 108.3084230  59.2408958 110.5094434 108.4283701  68.7295780
 110.4983075 108.0336499  67.8576284 110.6715074 107.6949774  69.3229552
 103.4325899 110.6235517  61.5990686 104.2247191 110.2826342  61.1836986
 103.6722549 110.7330492  62.5192840 105.3916653 109.8844430  54.4708065
 106.1647529 109.3373418  54.3320941 105.7442052 110.7488680  54.6822527
 107.2301695 111.2120813  67.6774964 106.9391561 112.1166444  67.5621631
 107.8658680 111.2537340  68.3919034 108.1557902 108.5897661  64.2676324
 108.7521475 108.3653684  63.5533287 108.2132874 107.8482407  64.8701772
 107.7282931 106.0437097  52.1026515 107.9808451 105.5218618  51.3409978
 106.7907490 105.8803242  52.2053199 112.7726213 105.0472875  59.9101258
 113.5589303 104.6292298  59.5591675 113.0364918 105.9518967  60.0782907
 112.9436291 110.4845725  54.6089915 112.3082124 110.5580352  55.3210820
 112.6133697 111.0739324  53.9308994 118.1734641 104.9848108  60.8134237
 118.9059813 104.4147325  61.0472066 117.4173996 104.5969709  61.2540742
 107.4479219 107.9465203  54.3050890 107.3315477 107.2710106  54.9731974
 107.5581479 107.4597576  53.4883043 109.7910760 107.4075350  58.0097579
 109.4268968 106.8805971  58.7210501 110.6477876 107.0173819  57.8364065
 115.6960061  98.6969682  65.2728845 115.3643386  99.5665093  65.0490060
 115.1005674  98.3805966  65.9522876 109.4316247 102.4365249  53.0058928
 109.5990650 103.3045486  53.3729399 109.2413416 102.5992531  52.0820217
 112.1891580 110.8982228  64.6724758 111.8892304 111.8007267  64.5640565
 111.8442640 110.6314411  65.5245911 105.6404062 107.3496025  60.7061463
 104.7154558 107.2172239  60.9139154 105.8888475 108.1290244  61.2031405
 115.5888724 103.4164768  62.3522195 114.6805602 103.3480177  62.0580956
 115.5376320 103.8936713  63.1804021 109.4105468 104.8922907  53.9905595
 109.2905093 105.3379958  54.8291075 108.7158057 105.2408225  53.4319133
 103.0012873 106.9929299  61.5405252 103.1305254 107.2463778  62.4544663
 102.3210324 107.5857007  61.2209907 109.6629590 104.8354414  70.2957093
 108.8862924 105.3948334  70.2859957 110.3020153 105.3211197  70.8171963
 117.4550371 101.6181207  64.1300069 116.8124751 101.9113740  63.4839864
 116.9505299 101.5034127  64.9353266 115.1090534 105.3644380  54.8185929
 116.0208390 105.5971767  54.6433626 114.6000181 105.9481424  54.2561007
 107.9175962 107.6439867  69.8575060 108.6590647 108.1824911  69.5809883
 107.2112948 108.2706156  70.0146612 113.3931302 109.7869008  68.4547221
 113.8014658 109.3451418  67.7101854 112.6708564 109.2121635  68.7081414
 109.7462372 104.7241615  65.8280778 110.5923567 105.1481028  65.9715427
 109.6861010 104.0675239  66.5219341 113.7160117 110.3470198  62.2099510
 113.0868979 110.5115913  61.5075578 113.3285779 110.7611808  62.9810474
 112.8961817 102.3845983  67.4861952 112.6522749 103.1388044  66.9496228
 113.1721748 102.7631331  68.3209199 114.8500280 108.9284595  66.1639217
 115.0617175 109.5716355  65.4873598 114.8030028 108.0946912  65.6961147
 112.4526509 101.5402416  63.0675790 111.5910988 101.8383670  63.3592527
 112.4788944 101.7572815  62.1356822 109.2688079 110.0844607  59.4749595
 109.7326424 110.3632310  58.6854218 109.0044877 109.1828051  59.2922686
 106.1612160 109.6316088  62.4129358 106.7313517 110.0603356  61.7746843
 106.7520271 109.3498673  63.1113544 108.2056965 106.2067759  56.2839160
 108.9081008 106.6588803  56.7513087 107.8737593 105.5651578  56.9119053
 106.6537326 104.7979516  70.6590370 106.0235987 105.4795796  70.8925767
 106.5473414 104.6862597  69.7143508 101.9482299 104.4651312  61.5856294
 101.1581353 104.7208840  61.1096405 102.4393546 105.2799649  61.6908334
 103.8997044 104.8295891  58.5439771 103.1028207 104.9414585  59.0623266
 103.6722636 105.1682543  57.6780661 109.7302712 111.3540594  66.4922285
 109.7947144 111.8161001  67.3280457 109.0213635 110.7237959  66.6204595
 100.2320002 104.7181802  64.0171285 100.4828040 105.6028812  64.2828861
 100.7679550 104.5386404  63.2446377 109.4450729 113.0208702  56.3601266
 109.3096404 113.8660237  56.7886113 109.9860542 113.2227979  55.5967199
 105.9318069  99.1000281  73.0215621 105.5385014  98.5466480  73.6963265
 106.7484209  99.4110860  73.4122138 102.8980127 110.5384140  56.9329191
 103.4104647 111.3327390  57.0834755 103.5502839 109.8410430  56.8662792
 104.7075011 113.6549896  59.0151944 104.8841640 114.5767861  58.8272928
 105.5031845 113.3408315  59.4446324 108.8486030 100.5158161  70.6135877
 109.5895743 101.1165314  70.5340340 109.0803953  99.7735798  70.0553920
 103.9927368 105.7014528  68.8914107 103.8780883 104.7999785  69.1921206
 103.1371886 105.9478225  68.5398924 105.8306327 115.1728070  65.0162286
 106.3813752 115.0445133  64.2439280 104.9917803 115.4722959  64.6657179
 109.6273498 111.4379197  69.3606517 110.1601835 110.6767486  69.1305825
 109.0987579 111.1452849  70.1030672 112.7943193  96.5439263  64.8900159
 112.4507462  97.4340905  64.8139270 113.1622155  96.3540921  64.0269744
 100.8629043 108.8672794  57.7088761 101.7004265 109.2769802  57.4922469
 101.0407311 107.9272236  57.6788955 112.7593475 106.5347875  53.3972594
 112.2440099 107.3052479  53.6360982 112.4870784 105.8613011  54.0205656
 110.3440587 101.3797575  58.4557833 109.4882183 100.9904426  58.2763471
 110.7567538 101.4589536  57.5957618 111.8739733  98.9143919  62.8549392
 111.3704529  98.8774054  62.0417198 112.1670340  99.8236661  62.9146049
 108.1182619  98.9982648  61.8615574 108.9835616  98.8025457  61.5021464
 108.1860128  98.7693000  62.7884931 112.5479779 104.4074967  55.2232375
 112.2429914 104.7221116  56.0742519 113.5010221 104.4856387  55.2659708
 110.9926211 110.5665190  56.8725329 110.4647572 109.8317950  56.5598567
 110.4913713 111.3439866  56.6265298 105.7244938 101.2284856  59.2331941
 106.2988690 101.0060038  58.5005134 106.3115921 101.2973551  59.9860542
 114.7824515 107.1158583  60.0396317 115.2956397 107.7488575  60.5418027
 115.4325739 106.5159779  59.6739677 106.0514525 103.2589317  53.2527826
 105.2151837 103.5964004  53.5737101 105.9119295 103.1238297  52.3154963
 108.0267606  98.1026105  57.9607010 107.3732018  97.7875122  57.3363625
 107.9848080  97.4801846  58.6866833 109.1378811 108.3845400  49.8760302
 108.2305872 108.1534654  50.0751451 109.6349843 107.5883019  50.0634284
 111.2605346 104.5908039  62.2854658 110.3427908 104.8122986  62.1276346
 111.6765490 104.6654349  61.4266365 112.0440394 105.9899454  57.4157338
 112.7912213 106.5020852  57.1064460 112.3131983 105.6683507  58.2761732
 110.3167044 108.4857995  54.3984292 109.4078263 108.2017028  54.4956762
 110.3462128 108.9057074  53.5387599 114.4919231 103.0256571  59.3976127
 113.7541988 102.5133957  59.7286370 114.7446005 102.5856952  58.5859404
 114.5930858  95.8032823  59.9917897 114.8989735  94.9430186  59.7043812
 115.3183463  96.3950443  59.7916891 100.8855215 106.2063509  58.3799495
 100.6879614 105.6132870  57.6550561 100.3301878 105.9015719  59.0975433
 108.8651938 106.0986616  60.4994088 108.9200548 105.1460452  60.4236564
 108.0543140 106.2546055  60.9835386 110.0143132 110.0266739  51.7372371
 109.5762562 109.3102598  51.2778008 110.7553573 110.2542854  51.1757462
 106.8044298 104.7163675  58.2584467 105.9912164 105.0157846  58.6649659
 107.3003292 104.3219364  58.9758949 112.4018510 105.1805500  67.0899361
 112.7567897 105.4076973  67.9493826 113.0490641 105.5123877  66.4676616
 106.2958373 102.2882031  63.8745702 106.9357752 102.1470790  63.1768665
 105.4635903 102.0016544  63.4984304 107.0718677 111.5884461  59.9880694
 107.8659275 111.0934782  59.7863269 106.3610369 111.0602325  59.6248400
 103.3801440 105.7327543  56.0640447 102.4499028 105.6711999  56.2810409
 103.4758912 105.2103496  55.2677088 103.2986989 102.2582356  58.6518688
 103.5593807 103.1727689  58.5427849 104.1204162 101.7906799  58.8015301
 104.7711915 103.6720113  65.8217513 105.4434968 103.4637475  65.1730162
 103.9441701 103.4742199  65.3822745 110.6737487 100.2982054  67.8383174
 110.0265402 100.9972004  67.7447650 111.4438502 100.7318198  68.2059422
 110.8501621 108.1362819  65.8979994 111.7793681 108.2873979  65.7248961
 110.4292651 108.2246840  65.0428640 109.6489953 112.1613483  63.6678531
 109.5101038 111.7932268  64.5404469 108.8604549 112.6761123  63.4962489
 111.1995168 111.5395086  61.0567369 110.8645000 111.4995856  61.9525019
 110.6999114 110.8739802  60.5837779 105.1739412 106.9462716  66.5819950
 105.0359210 106.2142955  67.1831489 106.0844335 106.8571616  66.3004138
 114.1354360 108.8851120  51.3304429 113.5183530 108.1597949  51.2337481
 113.6670848 109.6460481  50.9871503 107.8021713 106.6582675  66.0703630
 108.5121331 106.0175868  66.0290248 107.7591021 106.9095570  66.9929811
 106.5150646 103.6447893  67.8899269 105.9788004 103.1938632  68.5420866
 105.9267355 103.7793802  67.1469734 105.9252905 103.1036545  50.4525733
 105.0482372 102.9825346  50.0887980 106.4010659 102.3122623  50.2004622
  97.4455046 107.8913704  60.5467240  98.1326085 107.5775434  59.9588255
  97.2903174 108.7955069  60.2734491 102.2489768 102.7803901  64.9752264
 102.1647956 102.1729571  64.2402674 101.4272474 103.2712919  64.9761760
 112.4213482 101.2657465  60.3422459 112.9182181 100.5127427  60.0223529
 111.6500463 101.3021781  59.7765668 113.5043262 110.0229152  57.9160882
 112.5699541 110.1430614  57.7465587 113.6819931 109.1201619  57.6520892
 109.0048450 103.4074848  60.0694143 108.6346238 102.8545888  60.7575049
 109.5007543 102.8032981  59.5169143 116.8915814 105.8646471  58.4510916
 117.3576266 106.6974463  58.3771219 117.3423314 105.3991453  59.1556175
 106.8337649 113.8672343  67.1649161 107.5347108 114.5008826  67.3178556
 106.3632764 114.2087074  66.4044801 114.8632476  98.2327058  62.4901818
 113.9495556  98.4631285  62.6584025 115.2925578  98.3165502  63.3415850
 114.6338935 106.4216950  64.9901712 113.9810385 106.6692857  64.3354164
 115.0119315 105.6081088  64.6564189 110.6826508 107.1636761  71.4767749
 110.0067145 107.0630890  72.1470124 111.5054142 107.0075975  71.9403746
 102.4305367 113.4008698  64.0980264 103.0158804 112.6552386  64.2308168
 102.2330205 113.7112654  64.9816928 105.2844022 116.4359945  59.1142706
 104.6154397 116.9206073  58.6306746 105.1456892 116.6829165  60.0286085
  97.0223022 105.9714298  62.8184707  97.0607121 105.4377888  63.6121825
  96.5163315 105.4449503  62.1995684 104.4013784 100.8178838  66.3147249
 104.4655111 101.6793669  65.9024647 104.3380904 100.2052840  65.5819608
 103.8766057 102.8901971  69.9620284 104.5038095 102.5079048  70.5757808
 103.0193975 102.6716173  70.3275976 100.6531599 104.6978400  55.8938639
 100.9485040 103.7889078  55.8405692  99.7519635 104.6766139  55.5719641
 104.1825846 102.7734397  61.8766187 103.4612432 103.3870364  61.7373660
 104.9719102 103.3092161  61.7982833 106.9852160 100.1088823  68.1506839
 107.5086562 100.3551120  68.9133148 106.7664493 100.9408858  67.7309976
 102.3819441 102.3792498  56.0177964 102.0532147 101.4989877  55.8353070
 102.7358812 102.3240166  56.9054353 105.4961264 102.6665467  56.3853441
 105.8357337 103.1951389  55.6632050 105.9433385 103.0045874  57.1612008
 108.1904705 101.0502518  65.8356509 107.8501525 100.2510331  66.2377189
 107.4843711 101.3504229  65.2633343 108.8421177  98.1351831  64.2883832
 109.6647246  97.6612309  64.1662723 109.0859240  98.9142314  64.7882519
 107.4829411 101.1640089  54.5846734 108.2037774 101.5421342  54.0810451
 106.8594715 101.8828966  54.6881712 111.6260534 101.8685238  55.5205066
 111.8424148 102.7509876  55.2193895 111.1454601 101.4771451  54.7910708
 106.3659755 104.8270951  62.0975811 106.2204336 105.1411254  62.9900093
 105.8884959 105.4455852  61.5446710 108.2256138 101.8173499  62.1456701
 108.2117707 100.9214593  61.8088999 108.9428566 101.8244163  62.7794987
 110.0782269 102.2510839  64.1909828 109.8200047 103.1727910  64.1894158
 109.5467309 101.8541274  64.8810292 100.8405418 107.3676296  65.0363472
 100.2958886 108.1436104  65.1683747 101.7184767 107.7147100  64.8782594
 107.6293034 100.6987879  57.4144271 107.7508945  99.7704526  57.6135158
 107.3395077 100.7126565  56.5022586 110.4984225  98.3842790  60.5510991
 110.5205921  98.4482123  59.5962970 110.9152284  97.5447299  60.7451497
 101.6271439 106.4946192  67.9293629 100.8853176 106.6428827  68.5158260
 101.3064184 106.7554457  67.0660379 102.0728053 114.3811621  59.9604024
 102.8986073 114.0815392  59.5802667 101.7222105 113.6119243  60.4093812
 107.0409586 113.7338089  62.0301697 106.4189596 113.0708794  61.7303925
 107.7114453 113.7599221  61.3475345 100.2736658 112.2997947  60.9192957
  99.4368566 111.8720121  60.7376959 100.2460304 112.4930390  61.8563749
 107.1134114 102.2119877  71.6234203 107.1622269 103.0882000  71.2411973
 107.6556628 101.6697270  71.0505847 106.6023093 112.2842012  55.5060158
 106.7511214 112.9677477  54.8526831 107.4089537 112.2647102  56.0209614
 115.0090597 105.5884394  69.5327376 115.9100460 105.4490859  69.2411373
 115.0838571 105.7538849  70.4725553 109.3433402 102.9651249  68.3780562
 108.4736712 103.2584815  68.1063151 109.5792883 103.5491694  69.0987826
 117.4692220 107.1483023  66.9290149 117.9446341 107.3410669  66.1209000
 116.5457785 107.2042208  66.6833532 104.3575726 108.3107190  56.5121227
 104.1121768 107.4069520  56.7101437 104.5271641 108.3124340  55.5700705
 112.0472436  99.1830866  65.8945982 112.5654380  99.9191893  65.5692471
 111.6927569  99.4894859  66.7292742 103.6271374 104.0435547  54.0107388
 102.9340619 104.1179902  53.3547424 103.3823126 103.2795891  54.5328905
 112.2985030  95.6031149  61.4146879 112.5786784  94.9354338  62.0407306
 113.0835637  95.7960244  60.9021543 116.1693889 104.0248783  65.1618454
 117.1211311 104.1246880  65.1830678 115.9997339 103.2327051  65.6716538
 114.1908268 101.1104366  65.3477855 113.5958200 101.3909379  64.6524344
 113.9057965 101.5998267  66.1194596 110.4865297 106.1150955  50.3187958
 111.4324402 105.9857163  50.3876376 110.1079542 105.3765617  50.7957386
 118.7976455 104.0365946  64.3219037 118.2815504 103.2524402  64.1348966
 119.6816403 103.7084662  64.4865556 116.4587182  97.7806961  60.2814850
 116.2612003  97.4722050  61.1658182 117.0686887  98.5068600  60.4112779
 110.3703990 110.1668701  71.7788615 111.2906999 110.3447300  71.9728661
 110.3353573 109.2224747  71.6268314 108.6708214 104.0400932  50.2542843
 107.7639670 103.7434044  50.3305557 108.9484195 103.7430750  49.3877129
  99.5886155 105.3607295  60.7041889  99.2688939 104.5072603  60.4116263
  99.0419583 105.5755873  61.4599857 103.3666062 108.0769736  64.4211396
 103.5852072 109.0086844  64.4399430 103.7791836 107.7177711  65.2066200
 110.2870280  98.5837821  56.4087084 109.4771008  98.2384906  56.7842330
 110.9754697  98.2745365  56.9974696 112.2160828  97.6615868  58.0311381
 112.7691867  98.0811322  58.6901404 112.4530915  96.7351616  58.0734337
 108.2393928 103.6502942  73.8114145 108.1390655 104.5997299  73.7426236
 108.0215470 103.3221181  72.9390215 107.4406999 100.8987867  50.3954822
 108.3026163 101.2242765  50.6550640 107.6257343 100.1119363  49.8827888
  99.4574415 108.9810207  62.6735011  98.7637886 108.5664159  62.1604965
 100.2047406 109.0230743  62.0768430 115.5939635  99.7716393  57.5390045
 115.0138305 100.4301197  57.1568098 115.3275568  98.9493738  57.1277463
 114.0443202  99.1721451  59.7411366 114.5442980  99.2837986  58.9325684
 114.6878810  98.8682504  60.3812174 108.1025198 107.0800081  72.6279207
 107.6192279 107.8800441  72.8343096 108.1886137 107.0908026  71.6746651
 101.3711157 108.9128460  60.5501026 101.3481845 109.0116148  59.5982909
 101.6811794 109.7593611  60.8718192 104.0298535 110.9704615  64.6647640
 104.9841789 110.9388558  64.5977572 103.8311059 110.5095239  65.4797866
 104.6197917 109.5405731  67.2318438 105.4390806 110.0349810  67.2553275
 104.8934725 108.6237700  67.2036005 114.3764514 101.9316484  56.5946393
 113.4890369 102.2166134  56.3766588 114.7918503 101.7710247  55.7473670
 117.7279050 101.9563005  60.3100733 118.5039440 102.4459457  60.5825350
 117.0027184 102.3821059  60.7672602 120.1651608 102.6690624  61.3674673
 120.7596099 102.4286360  60.6567982 120.2378192 101.9497755  61.9948210
 102.3848764 116.5124235  61.6817838 102.2503232 115.7524636  61.1155836
 101.9680826 117.2365135  61.2146627 114.3505537 107.4471020  56.8096684
 114.2940739 107.9039571  55.9704316 114.9033880 106.6861704  56.6319526
 118.1610343 103.2360752  57.6346803 117.9047277 102.8357387  58.4655011
 117.5363211 103.9504546  57.5096942 115.0840317 108.6375801  54.1049213
 115.0289120 108.4720072  53.1637657 114.4586372 109.3451834  54.2611403
  99.8732832 103.8743865  67.9310635 100.5191695 103.3642819  68.4197860
  99.6649983 104.6112547  68.5054060 108.3936442  98.1383910  53.6834531
 108.3815112  99.0825750  53.8402802 109.2859864  97.9554055  53.3893992
 112.2088561  94.7326687  57.9380468 111.4420957  94.1785173  58.0837150
 112.6199266  94.8048555  58.7994620 104.2130323 101.0211482  72.0285649
 105.0761784 100.6648287  72.2388974 103.6395733 100.6825377  72.7161054
  44.9912126  -7.6940534  49.4954882  44.6530637  -7.8099470  48.6075416
  45.8601894  -8.0949369  49.4755888  40.8498941  -5.8405058  45.4851773
  40.2863806  -5.9315121  44.7168060  40.7351336  -6.6605153  45.9654265
  45.4731909  -6.5405683  55.4541087  45.4620549  -6.9352884  54.5821591
  45.6352548  -7.2739610  56.0474859  38.3963373  -4.3453866  48.3235993
  39.1884665  -4.6863042  47.9082292  38.6360023  -4.2358891  49.2438146
  46.4298500  -2.1734090  40.7966237  45.7786480  -1.5880010  40.4100251
  47.2242863  -1.6427895  40.8561275  40.3554127  -5.0844953  41.1953372
  41.1285003  -5.6315966  41.0566248  40.7079526  -4.2200704  41.4067833
  42.1939170  -3.7568571  54.4020271  41.9029036  -2.8522940  54.2866937
  42.8296154  -3.7152043  55.1164341  43.1195377  -6.3791722  50.9921631
  43.7158949  -6.6035700  50.2778594  43.1770348  -7.1206977  51.5947079
  42.6920405  -8.9252287  38.8271822  42.9445926  -9.4470766  38.0655285
  41.7544964  -9.0886141  38.9298505  47.9073765  -4.4843658  41.3335222
  47.2719598  -4.4109032  42.0456126  47.5771172  -3.8950059  40.6554301
  42.4116694  -7.0224181  41.0296197  42.2952952  -7.6979278  41.6977281
  42.5218954  -7.5091807  40.2128350  44.7548235  -7.5614034  44.7342886
  44.3906442  -8.0883413  45.4455807  45.6115351  -7.9515565  44.5609371
  47.1529055  -4.0707155  51.3970065  46.8529778  -3.1682116  51.2885872
  46.8080114  -4.3374972  52.2491218  40.6041536  -7.6193358  47.4306769
  39.6792033  -7.7517144  47.6384461  40.8525949  -6.8399139  47.9276712
  37.9650347  -7.9760085  48.2650558  38.0942728  -7.7225606  49.1789970
  37.2847799  -7.3832377  47.9455213  42.1349835   2.6937165  44.3641032
  42.0573864   3.6444990  44.4429513  41.5311478   2.3483038  45.0215959
  42.8813437  -7.3249516  56.5820366  43.6228121  -6.7864472  56.3055190
  42.1750422  -6.6983227  56.7391918  48.3568776  -5.1820376  55.1792528
  48.7652132  -5.6237965  54.4347160  47.6346038  -5.7567748  55.4326721
  48.6797591  -4.6219185  48.9344817  48.0506453  -4.4573471  48.2320885
  48.2923253  -4.2077575  49.7055781  52.5586823  -3.6864747  46.2889181
  51.8737861  -3.3065846  45.7386214  52.6430672  -3.0769420  47.0221128
  49.8137754  -6.0404788  52.8884524  50.0254650  -5.3973028  52.2118905
  49.7667503  -6.8742472  52.4206454  44.2325553  -4.8844777  46.1994902
  44.6963898  -4.6057074  45.4099524  43.9682351  -5.7861332  46.0167993
  41.1249634  -5.3373295  49.1374665  41.6950991  -4.9086027  48.4992150
  41.7157746  -5.6190711  49.8358851  43.1694439  -8.7621625  43.0084467
  43.8718482  -8.3100581  43.4758393  42.8375067  -9.4037806  43.6364360
  41.6174800 -10.1709868  57.3835676  40.9873461  -9.4893587  57.6171073
  41.5110888 -10.2826786  56.4388815  50.9283582  -3.1632833  51.0606881
  51.7501026  -3.5652645  50.7789563  50.9245985  -3.2664599  52.0122997
  44.6940186  -3.6148789  53.2167592  44.7584618  -3.1528382  54.0525764
  43.9851110  -4.2451424  53.3449902  44.4088204  -1.9480682  43.0846572
  44.2733878  -1.1029146  43.5131420  44.9498016  -1.7461404  42.3212506
  37.8617601  -4.4305244  43.6574497  38.3742121  -3.6361994  43.8080062
  38.5140314  -5.1278953  43.5908099  39.6712486  -1.3139488  45.7397250
  39.8479114  -0.3921523  45.5518234  40.4669319  -1.6281068  46.1691630
  46.0356680  -1.3257115  57.2146914  45.5920534  -2.1120737  56.8967819
  46.6973893  -1.1377965  56.5490805  40.7943801   0.2038686  51.7407593
  41.3451226   0.0755750  50.9684587  39.9555277   0.5033575  51.3902486
  48.1337918  -1.0454315  55.2428316  48.1156393  -0.2245434  54.7508585
  49.0557838  -1.1700240  55.4678457  44.5910972  -3.5310186  56.0851824
  45.1239309  -4.2921898  55.8551132  44.0625053  -3.8236534  56.8275978
  52.6965224  -5.6809154  42.0571074  51.9194667  -6.0197995  41.6126236
  53.3756705  -5.6756531  41.3826039  45.9563685  -4.4024193  43.5970636
  45.4285046  -5.1371434  43.2843873  45.4551188  -3.6249517  43.3510604
  50.9356531  -6.2075173  48.7137682  50.2780205  -5.5175912  48.8017811
  51.7396930  -5.8178741  49.0571669  44.1016285  -6.5843983  36.6005609
  43.1943347  -6.8154730  36.7996758  44.5987317  -7.3806364  36.7879591
  47.0084364   2.1253524  39.5202295  46.3346063   2.4285221  40.1287253
  47.3950186   2.9282604  39.1707752  45.2804518  -6.4831388  41.1229599
  44.3715738  -6.7672356  41.2202069  45.3099602  -6.0632310  40.2632906
  50.5123786  -2.8724799  44.8920767  50.0586113  -3.7133889  44.9485957
  49.8817753  -2.2363400  45.2295547  48.9556725  -1.0348302  45.8270585
  49.2479699  -0.4743245  45.1082950  49.4655346  -0.7419741  46.5823744
  44.9780606  -4.9422645  38.4617678  44.5400036  -5.6586786  38.0023315
  45.7191047  -4.7146530  37.9002769  43.9190350  -0.2567951  46.9164038
  43.8766529  -0.0307105  45.9872570  44.8353049  -0.4904576  47.0649839
  53.1223101  -4.5988921  49.5305268  53.5559607  -4.6913632  50.3788322
  53.8354681  -4.6231420  48.8925284  42.0356151  -3.3804922  46.7126001
  42.8296750  -3.8754602  46.5108576  41.3247843  -3.9087059  46.3493706
  46.8550996  -0.9986827  51.0638368  46.9088018  -0.4295890  51.8316084
  45.9865777  -0.8284941  50.6992405  53.9838650  -4.5565220  52.0638153
  54.1774540  -3.6519409  52.3097428  53.8839268  -5.0157801  52.8976738
  49.0453759  -4.4058477  57.6379034  48.8939265  -4.6347926  56.7209117
  49.0358438  -3.4487876  57.6510379  45.8139095  -6.8326565  52.6225300
  46.7431155  -6.6815405  52.4494268  45.3930125  -6.7442544  51.7673947
  44.6127427  -2.8075900  50.3923838  44.4738513  -3.1757116  51.2649776
  43.8242023  -2.2928261  50.2207796  45.2075579   2.2933196  41.7349374
  45.3827335   1.8221240  42.5494997  44.5208367   2.9198963  41.9630635
  46.1632642  -3.4294297  47.7812676  45.8282475  -3.4693527  48.6770325
  45.6636588  -4.0949581  47.3083086  40.1376886  -8.0226667  53.3065257
  39.9996684  -8.7546429  53.9076796  41.0481810  -8.1117767  53.0249445
  49.0991834  -6.0838263  38.0549735  48.4821004  -6.8091435  37.9582788
  48.6308322  -5.3228903  37.7116810  42.7659187  -8.3106708  52.7948936
  43.4758805  -8.9513516  52.7535555  42.7228495  -8.0593813  53.7175117
  50.7545966  -1.3739355  55.7155516  50.6958512  -2.0580135  55.0486099
  51.1565484  -0.6320365  55.2636142  39.7736664   5.4422559  48.5089235
  40.0133263   6.0741083  49.1868253  38.9305861   5.0910599  48.7954594
  50.7563373  -3.4099771  53.9469495  49.8690152  -3.7473849  54.0695894
  51.3261924  -4.1416740  54.1838261  44.2864526   1.2501682  50.9130739
  44.2134698   2.0556653  51.4250043  43.8441919   1.4493647  50.0878760
  44.0754306   0.4873452  44.4233560  43.2921828   1.0295132  44.5171785
  44.7747051   1.0047431  44.8227801  46.7463210   1.1488516  53.0688897
  47.4591182   1.7835980  52.9964799  46.2553238   1.2452382  52.2528899
  48.4680737  -4.9460232  44.6406189  47.5337015  -4.8258769  44.4710893
  48.6457405  -5.8487765  44.3766199  41.7975123  -1.1017041  53.8894468
  42.4984583  -0.4680558  54.0423862  41.3270238  -0.7602309  53.1290107
  49.9229519  -2.7599091  42.1742375  50.1989363  -2.8742497  43.0836249
  49.0534018  -3.1581606  42.1354548  46.5583583   1.4887260  45.8175189
  46.7405978   0.6708916  46.2802941  47.3816569   1.7054952  45.3800079
  46.8925749   0.4155445  43.0790237  47.4213515  -0.0952101  42.4660399
  47.1553968   0.0997975  43.9435770  45.6463982  -7.8052622  58.2013055
  44.9704619  -7.9058493  58.8715431  46.4691616  -7.9613409  58.6649053
  37.3942841  -1.5680686  50.8225571  37.9796278  -2.3136998  50.9553475
  37.1967680  -1.2576729  51.7062235  40.2481497   1.4670562  45.8388013
  39.5791872   1.9516689  45.3552053  40.1094366   1.7139782  46.7531392
  44.3886765   3.5014305  52.4370671  44.9405073   3.6645927  53.2019757
  44.7292959   4.0918743  51.7650696  49.2397639  -1.6724437  58.2919326
  49.7837543  -1.0594479  57.7974281  48.6584484  -1.1144859  58.8086339
  47.5255152   1.4496281  49.4234354  47.4006292   0.6486020  48.9145299
  48.1834243   1.9442474  48.9348324  49.5890061  -0.7494699  51.0513904
  48.6420396  -0.8689348  50.9792230  49.9372834  -1.6372201  51.1340165
  46.5936494  -0.9541983  47.2518256  46.4461456  -1.8825276  47.4325826
  47.4189988  -0.9321892  46.7675331  50.1970616  -0.1313424  48.3383129
  51.1217163  -0.3370563  48.2007580  50.0285919  -0.3797023  49.2472470
  41.3297230 -10.1418432  48.8221118  41.1841810  -9.8278129  49.7145399
  40.8522433  -9.5233532  48.2692016  49.9865932   0.3872243  43.6945220
  50.1602810  -0.1781334  42.9419073  50.4794823   1.1873138  43.5124710
  50.9741105  -0.2960993  40.7942118  51.6692009   0.3245700  41.0129433
  51.3164255  -1.1465641  41.0694496  52.8732528  -2.8461287  42.3229449
  53.3983852  -2.5074014  41.5978769  52.7854880  -3.7814272  42.1392584
  44.5352576   1.0672787  54.4519326  44.8439703   0.8221933  55.3242025
  45.3328058   1.2719425  53.9638196  44.5573188   3.2210696  46.6824702
  44.1178179   2.7287075  47.3757559  45.3081305   2.6783664  46.4416778
  37.0365527  -0.5877763  46.6849330  37.8623547  -0.8873991  46.3047974
  36.6859579  -1.3570140  47.1339119  42.0047061  -1.2351295  48.7547004
  41.3827070  -1.8980590  48.4549232  42.6751928  -1.2090163  48.0720652
  35.2374133  -2.6691436  47.6438264  34.4006041  -3.0969262  47.4622265
  35.2097778  -2.4758993  48.5809055  52.5626434  -2.2128383  57.6280647
  51.7721977  -2.2304245  57.0885147  52.3259788  -1.6740090  58.3829684
  52.6824309  -5.3635917  54.9413376  52.7322314  -5.5285910  55.8828898
  52.5738232  -6.2308658  54.5511256  41.5660568  -2.6847371  42.2305465
  41.7148688  -2.0011907  41.5772137  42.3727011  -2.7042281  42.7454920
  54.1842506  -2.9438975  55.1855397  53.8927314  -2.5808995  56.0218858
  53.5714637  -3.6571967  55.0068729  39.3213201  -6.6582194  43.2366533
  39.0759242  -7.5619864  43.4346744  39.4909115  -6.6565043  42.2946011
  45.0655973  -0.1899241  39.7017212  44.4929940   0.4290946  39.2487684
  45.6388767   0.3600121  40.2357134  48.2853233   0.0937909  40.8325794
  49.2183906   0.0283471  41.0358670  48.1976446   0.9294176  40.3740327
  50.9141250  -0.5896220  37.7929742  50.8354881  -0.9236357  38.6865500
  51.7350916  -0.0974452  37.7921214  45.3341464  -4.8020682  58.5033921
  46.2544474  -4.6242083  58.6973968  45.2991047  -5.7464637  58.3513621
  38.3303537  -6.8919647  51.1456703  38.5489546  -5.9602539  51.1644736
  38.7429310  -7.2511673  51.9311506  43.0662672  -7.8889303  59.3524513
  42.5829754  -7.0888943  59.5588402  43.1523611  -7.8781358  58.3991957
  36.3348632  -6.0560923  47.2746333  36.3119320  -5.9573236  46.3228216
  36.6449268  -5.2095772  47.5963499  38.9936010  -3.9984768  51.3892947
  39.9479263  -4.0300826  51.3222879  38.7948533  -4.4594144  52.2043173
  39.5835392  -5.4283652  53.9563745  40.4028281  -4.9339573  53.9798582
  39.8572199  -6.3451684  53.9281312  37.3486238   1.5434851  48.4063145
  37.2140706   0.7835252  47.8401143  36.9318301   2.2675751  47.9391934
  48.4845201  -3.2728225  37.4139720  49.1881051  -3.0678222  38.0297376
  47.7607850  -2.7051463  37.6788804  40.5055364   2.4404169  48.6181587
  40.3887748   3.3849601  48.5160278  39.6847810   2.1377730  49.0067387
  50.3931899  -2.8345696  39.4638180  51.2277503  -3.2664497  39.2815655
  50.2316242  -3.0063682  40.3915075  50.0477791  -6.3313582  40.8294519
  49.9926595  -6.4969311  39.8882964  49.4223846  -5.6237550  40.9856709
  47.3623698  -4.0264671  60.1548082  48.2314858  -3.8524018  59.7934717
  46.8830450  -3.2070254  60.0323812  41.5309878   3.0932430  51.8337516
  42.4337125   3.1256041  52.1504011  41.3047248   2.1632881  51.8483852
  43.2863480   1.8463417  48.4947595  42.3359111   1.8465279  48.3811967
  43.5895966   1.0996152  47.9783629  59.0216174   7.6823955  49.5593357
  59.6594584   7.5630703  48.8556697  58.9037017   8.6304799  49.6181309
  55.8305880   7.6351383  49.4954882  55.4924392   7.5192448  48.6075416
  56.6995648   7.2342549  49.4755888  51.6892696   9.4886860  45.4851773
  51.1257561   9.3976797  44.7168060  51.5745091   8.6686764  45.9654265
  56.3125663   8.7886235  55.4541087  56.3014304   8.3939033  54.5821591
  56.4746303   8.0552308  56.0474859  49.2357128  10.9838051  48.3235993
  50.0278420  10.6428876  47.9082292  49.4753778  11.0933026  49.2438146
  57.2692254  13.1557828  40.7966237  56.6180234  13.7411908  40.4100251
  58.0636617  13.6864022  40.8561275  51.1947882  10.2446965  41.1953372
  51.9678758   9.6975952  41.0566248  51.5473281  11.1091214  41.4067833
  53.0332924  11.5723347  54.4020271  52.7422790  12.4768978  54.2866937
  53.6689909  11.6139875  55.1164341  53.9589131   8.9500195  50.9921631
  54.5552703   8.7256218  50.2778594  54.0164103   8.2084941  51.5947079
  53.5314159   6.4039631  38.8271822  53.7839680   5.8821152  38.0655285
  52.5938719   6.2405776  38.9298505  58.5757442   5.4075409  46.6346565
  59.3620532   4.9894832  46.2836982  58.8396147   6.3121501  46.8028213
  58.7467520  10.8448259  41.3335222  58.1113353  10.9182886  42.0456126
  58.4164926  11.4341858  40.6554301  63.9765869   5.3450642  47.5379543
  64.7091041   4.7749859  47.7717373  63.2205225   4.9572243  47.9786049
  53.2510448   8.3067737  41.0296197  53.1346706   7.6312640  41.6977281
  53.3612708   7.8200111  40.2128350  55.5941989   7.7677884  44.7342886
  55.2300196   7.2408505  45.4455807  56.4509105   7.3776353  44.5609371
  61.4991290  -0.9427784  51.9974152  61.1674615  -0.0732373  51.7735367
  60.9036903  -1.2591500  52.6768182  55.2347476   2.7967784  39.7304234
  55.4021878   3.6648020  40.0974705  55.0444645   2.9595065  38.8065524
  57.9922809  11.2584762  51.3970065  57.6923532  12.1609801  51.2885872
  57.6473869  10.9916946  52.2491218  51.4435291   7.7098559  47.4306769
  50.5185787   7.5774773  47.6384461  51.6919704   8.4892779  47.9276712
  61.3919953   3.7767303  49.0767502  60.4836830   3.7082711  48.7826263
  61.3407549   4.2539248  49.9049328  55.2136697   5.2525441  40.7150901
  55.0936322   5.6982492  41.5536382  54.5189285   5.6010759  40.1564439
  48.8044102   7.3531833  48.2650558  48.9336483   7.6066312  49.1789970
  48.1241553   7.9459541  47.9455213  52.9743589  18.0229083  44.3641032
  52.8967619  18.9736908  44.4429513  52.3705233  17.6774955  45.0215959
  55.4660819   5.1956948  57.0202399  54.6894153   5.7550868  57.0105264
  56.1051382   5.6813731  57.5417270  63.2581599   1.9783741  50.8545376
  62.6155980   2.2716274  50.2085171  62.7536528   1.8636661  51.6598573
  60.9121763   5.7246914  41.5431235  61.8239619   5.9574301  41.3678933
  60.4031410   6.3083958  40.9806314  53.7207191   8.0042402  56.5820366
  54.4621876   8.5427446  56.3055190  53.0144177   8.6308690  56.7391918
  59.1962531  10.1471542  55.1792528  59.6045887   9.7053953  54.4347160
  58.4739792   9.5724170  55.4326721  55.5493601   5.0844149  52.5526085
  56.3954796   5.5083562  52.6960734  55.4892239   4.4277773  53.2464648
  59.5191345  10.7072733  48.9344817  58.8900208  10.8718447  48.2320885
  59.1317008  11.1214342  49.7055781  63.3980577  11.6427171  46.2889181
  62.7131616  12.0226072  45.7386214  63.4824427  12.2522497  47.0221128
  58.6993046   2.7448517  54.2107258  58.4553978   3.4990578  53.6741534
  58.9752977   3.1233865  55.0454506  60.6531509   9.2887130  52.8884524
  60.8648404   9.9318889  52.2118905  60.6061257   8.4549446  52.4206454
  58.2557738   1.9004950  49.7921096  57.3942217   2.1986204  50.0837834
  58.2820173   2.1175349  48.8602129  55.0719307  10.4447141  46.1994902
  55.5357653  10.7234844  45.4099524  54.8076105   9.5430585  46.0167993
  51.9643388   9.9918622  49.1374665  52.5344745  10.4205891  48.4992150
  52.5551500   9.7101207  49.8358851  54.0088193   6.5670293  43.0084467
  54.7112237   7.0191337  43.4758393  53.6768822   5.9254112  43.6364360
  52.4568555   5.1582050  57.3835676  51.8267215   5.8398331  57.6171073
  52.3504643   5.0465131  56.4388815  47.7513527   4.8253846  48.3101601
  46.9612581   5.0811374  47.8341711  48.2424775   5.6402184  48.4153641
  61.7677337  12.1659085  51.0606881  62.5894781  11.7639272  50.7789563
  61.7639740  12.0627319  52.0122997  49.7028273   5.1898425  45.2685077
  48.9059436   5.3017119  45.7868573  49.4753865   5.5285077  44.4025968
  55.5333940  11.7143128  53.2167592  55.5978373  12.1763536  54.0525764
  54.8244864  11.0840493  53.3449902  46.0351230   5.0784336  50.7416591
  46.2859269   5.9631346  51.0074167  46.5710779   4.8988938  49.9691683
  69.8583330   8.5097833  47.4091853  69.1047038   7.9405232  47.2535857
  69.9930871   8.4760498  48.3562488  55.2481958  13.3811236  43.0846572
  55.1127633  14.2262772  43.5131420  55.7891771  13.5830513  42.3212506
  51.7349298  -0.5397184  59.7460927  51.3416243  -1.0930986  60.4208572
  52.5515438  -0.2286606  60.1367445  48.7011355  10.8986674  43.6574497
  49.2135876  11.6929924  43.8080062  49.3534068  10.2012964  43.5908099
  50.5106240  14.0152430  45.7397250  50.6872868  14.9370395  45.5518234
  51.3063074  13.7010849  46.1691630  54.6517259   0.8760695  57.3381184
  55.3926972   1.4767848  57.2585646  54.8835181   0.1338333  56.7799227
  49.7958597   6.0617062  55.6159414  49.6812112   5.1602319  55.9166513
  48.9403114   6.3080759  55.2644230  56.8750434  14.0034802  57.2146914
  56.4314289  13.2171181  56.8967819  57.5367648  14.1913953  56.5490805
  51.6337556  15.5330604  51.7407593  52.1844981  15.4047667  50.9684587
  50.7949031  15.8325493  51.3902486  58.9731672  14.2837602  55.2428316
  58.9550148  15.1046483  54.7508585  59.8951593  14.1591677  55.4678457
  55.4304727  11.7981732  56.0851824  55.9633063  11.0370020  55.8551132
  54.9018808  11.5055384  56.8275978  58.5974422  -3.0958202  51.6145466
  58.2538691  -2.2056561  51.5384576  58.9653384  -3.2856545  50.7515051
  46.6660272   9.2275328  44.4334068  47.5035494   9.6372336  44.2167776
  46.8438540   8.2874770  44.4034262  58.5624704   6.8950409  40.1217901
  58.0471328   7.6655013  40.3606288  58.2902013   6.2215545  40.7450962
  56.1471815   1.7400110  45.1803139  55.2913412   1.3506960  45.0008778
  56.5598767   1.8192070  44.3202925  57.6770962  -0.7253547  49.5794699
  57.1735758  -0.7623412  48.7662504  57.9701569   0.1839196  49.6391356
  53.9213848  -0.6414817  48.5860881  54.7866845  -0.8372009  48.2266770
  53.9891357  -0.8704466  49.5130237  63.5358978   9.6482763  42.0571074
  62.7588421   9.3093923  41.6126236  64.2150459   9.6535387  41.3826039
  58.3511007   4.7677501  41.9477682  58.0461143   5.0823650  42.7987825
  59.3041450   4.8458921  41.9905015  56.7957439  10.9267724  43.5970636
  56.2678801  10.1920484  43.2843873  56.2944942  11.7042401  43.3510604
  61.7750285   9.1216745  48.7137682  61.1173960   9.8116006  48.8017811
  62.5790685   9.5113177  49.0571669  51.5276167   1.5887390  45.9577247
  52.1019919   1.3662572  45.2250440  52.1147149   1.6576085  46.7105849
  60.5855744   7.4761117  46.7641624  61.0987626   8.1091109  47.2663334
  61.2356968   6.8762313  46.3984984  51.8545754   3.6191851  39.9773133
  51.0183066   3.9566538  40.2982407  51.7150524   3.4840831  39.0400270
  53.8298835  -1.5371361  44.6852317  53.1763247  -1.8522343  44.0608932
  53.7879309  -2.1595620  45.4112140  54.9410039   8.7447934  36.6005609
  54.0337101   8.5137188  36.7996758  55.4381071   7.9485554  36.7879591
  57.8478118  17.4545442  39.5202295  57.1739817  17.7577138  40.1287253
  58.2343940  18.2574522  39.1707752  57.0636575   4.9510573  49.0099965
  56.1459136   5.1725520  48.8521653  57.4796719   5.0256883  48.1511672
  57.8471623   6.3501989  44.1402645  58.5943442   6.8623386  43.8309767
  58.1163212   6.0286041  45.0007038  56.1198273   8.8460529  41.1229599
  55.2109492   8.5619562  41.2202069  56.1493357   9.2659608  40.2632906
  61.3517540  12.4567119  44.8920767  60.8979867  11.6158029  44.9485957
  60.7211507  13.0928517  45.2295547  60.2950460   3.3859105  46.1221434
  59.5573217   2.8736491  46.4531677  60.5477233   2.9459486  45.3104711
  59.7950480  14.2943616  45.8270585  60.0873454  14.8548673  45.1082950
  60.3049100  14.5872177  46.5823744  46.6886443   6.5666043  45.1044801
  46.4910843   5.9735404  44.3795868  46.1333107   6.2618254  45.8220740
  54.6683167   6.4589150  47.2239394  54.7231777   5.5062986  47.1481871
  53.8574369   6.6148589  47.7080693  55.8174361  10.3869273  38.4617678
  55.3793791   9.6705132  38.0023315  56.5584802  10.6145388  37.9002769
  52.6075527   5.0766210  44.9829773  51.7943392   5.3760380  45.3894965
  53.1034521   4.6821898  45.7004256  54.7584105  15.0723967  46.9164038
  54.7160284  15.2984813  45.9872570  55.6746804  14.8387341  47.0649839
  58.2049739   5.5408034  53.8144667  58.5599126   5.7679507  54.6739133
  58.8521870   5.8726411  53.1921922  63.9347476   8.6626470  44.5193996
  63.7965374   8.8528066  43.5915185  63.5783694   9.4245853  44.9762047
  52.0989602   2.6484565  50.5991008  52.7388981   2.5073324  49.9013972
  51.2667132   2.3619079  50.2229610  63.9616855  10.7302997  49.5305268
  64.3953362  10.6378286  50.3788322  64.6748436  10.7060497  48.8925284
  52.8749906  11.9486996  46.7126001  53.6690504  11.4537316  46.5108576
  52.1641598  11.4204859  46.3493706  57.6944750  14.3305091  51.0638368
  57.7481772  14.8996027  51.8316084  56.8259531  14.5006976  50.6992405
  49.1832669   6.0930077  42.7885753  48.2530257   6.0314533  43.0055716
  49.2790141   5.5706030  41.9922395  49.1018218   2.6184890  45.3763995
  49.3625035   3.5330223  45.2673156  49.9235390   2.1509333  45.5260608
  50.5743143   4.0322647  52.5462820  51.2466197   3.8240009  51.8975469
  49.7472930   3.8344733  52.1068052  64.8232405  10.7726698  52.0638153
  65.0168295  11.6772508  52.3097428  64.7233023  10.3134117  52.8976738
  56.4768715   0.6584588  54.5628480  55.8296630   1.3574538  54.4692957
  57.2469731   1.0920732  54.9304729  59.8847513  10.9233440  57.6379034
  59.7333020  10.6943992  56.7209117  59.8752193  11.8804042  57.6510379
  56.6532850   8.4965353  52.6225300  57.5824910   8.6476513  52.4494268
  56.2323880   8.5849374  51.7673947  55.4521182  12.5216018  50.3923838
  55.3132267  12.1534802  51.2649776  54.6635778  13.0363657  50.2207796
  56.0469334  17.6225114  41.7349374  56.2221089  17.1513157  42.5494997
  55.3602122  18.2490880  41.9630635  57.0026397  11.8997620  47.7812676
  56.6676229  11.8598390  48.6770325  56.5030342  11.2342336  47.3083086
  50.9770641   7.3065250  53.3065257  50.8390439   6.5745489  53.9076796
  51.8875564   7.2174150  53.0249445  59.9385588   9.2453655  38.0549735
  59.3214759   8.5200483  37.9582788  59.4702077  10.0063015  37.7116810
  53.6052941   7.0185210  52.7948936  54.3152560   6.3778402  52.7535555
  53.5622249   7.2698104  53.7175117  61.5939720  13.9552563  55.7155516
  61.5352266  13.2711783  55.0486099  61.9959238  14.6971553  55.2636142
  52.3181875   4.0050428  54.6144576  51.7819232   3.5541166  55.2666172
  51.7298584   4.1396336  53.8715040  50.6130419  20.7714477  48.5089235
  50.8527017  21.4033001  49.1868253  49.7699615  20.4202517  48.7954594
  51.7284134   3.4639079  37.1771040  50.8513601   3.3427880  36.8133286
  52.2041887   2.6725157  36.9249928  61.5957127  11.9192147  53.9469495
  60.7083906  11.5818069  54.0695894  62.1655678  11.1875178  54.1838261
  43.2486274   8.2516239  47.2712547  43.9357314   7.9377969  46.6833562
  43.0934403   9.1557603  46.9979798  48.0520997   3.1406435  51.6997570
  47.9679185   2.5332105  50.9647980  47.2303703   3.6315454  51.7007067
  55.1258281  16.5793599  50.9130739  55.0528452  17.3848571  51.4250043
  54.6835674  16.7785565  50.0878760  54.9148060  15.8165369  44.4233560
  54.1315582  16.3587049  44.5171785  55.6140805  16.3339349  44.8227801
  58.2244710   1.6259999  47.0667765  58.7213410   0.8729961  46.7468836
  57.4531692   1.6624315  46.5010975  66.0774468   7.3300364  48.7086057
  66.0664344   8.2125080  48.3379990  65.2091847   6.9771915  48.5140594
  57.5856964  16.4780433  53.0688897  58.2984936  17.1127898  52.9964799
  57.0946993  16.5744299  52.2528899  59.3074491  10.3831686  44.6406189
  58.3730770  10.5033148  44.4710893  59.4851160   9.4804153  44.3766199
  54.8079679   3.7677382  46.7939450  54.4377467   3.2148422  47.4820356
  55.3038772   3.1635515  46.2414450  62.6947042   6.2249005  45.1756223
  63.1607495   7.0576997  45.1016526  63.1454543   5.7593987  45.8801481
  52.6368878  14.2274877  53.8894468  53.3378337  14.8611360  54.0423862
  52.1663993  14.5689608  53.1290107  60.7623274  12.5692827  42.1742375
  61.0383117  12.4549421  43.0836249  59.8927772  12.1710311  42.1354548
  60.6663705  -1.4070408  49.2147124  59.7526785  -1.1766181  49.3829331
  61.0956807  -1.3231964  50.0661157  60.4370164   6.7819484  51.7147018
  59.7841614   7.0295392  51.0599471  60.8150544   5.9683622  51.3809496
  57.3977338  16.8179177  45.8175189  57.5799732  16.0000833  46.2802941
  58.2210324  17.0346870  45.3800079  57.7319503  15.7447363  43.0790237
  58.2607269  15.2339817  42.4660399  57.9947723  15.4289893  43.9435770
  56.4857737   7.5239295  58.2013055  55.8098374   7.4233425  58.8715431
  57.3085371   7.3678509  58.6649053  48.2336596  13.7611232  50.8225571
  48.8190033  13.0154920  50.9553475  48.0361434  14.0715189  51.7062235
  51.0875251  16.7962479  45.8388013  50.4185626  17.2808607  45.3552053
  50.9488121  17.0431700  46.7531392  42.8254251   6.3316832  49.5430014
  42.8638350   5.7980423  50.3367132  42.3194543   5.8052038  48.9240991
  55.2280520  18.8306223  52.4370671  55.7798828  18.9937844  53.2019757
  55.5686713  19.4210661  51.7650696  50.2045013   1.1781373  53.0392556
  50.2686339   2.0396203  52.6269954  50.1412133   0.5655374  52.3064915
  49.6797285   3.2504505  56.6865590  50.3069324   2.8681582  57.3003115
  48.8225204   3.0318707  57.0521283  60.0791394  13.6567480  58.2919326
  60.6231298  14.2697439  57.7974281  59.4978239  14.2147059  58.8086339
  46.4562828   5.0580934  42.6183945  46.7516269   4.1491613  42.5650999
  45.5550864   5.0368674  42.2964948  58.3648907  16.7788198  49.4234354
  58.2400046  15.9777938  48.9145299  59.0227998  17.2734392  48.9348324
  49.9857075   3.1336931  48.6011494  49.2643661   3.7472898  48.4618967
  50.7750331   3.6694696  48.5228140  60.4283815  14.5797218  51.0513904
  59.4814151  14.4602570  50.9792230  60.7766588  13.6919716  51.1340165
  52.7883389   0.4691357  54.8752146  53.3117790   0.7153654  55.6378455
  52.5695722   1.3011392  54.4555283  48.1850670   2.7395032  42.7423270
  47.8563376   1.8592411  42.5598376  48.5390040   2.6842701  43.6299660
  57.4330249  14.3749935  47.2518256  57.2855211  13.4466642  47.4325826
  58.2583742  14.3970025  46.7675331  51.2992493   3.0268002  43.1098748
  51.6388565   3.5553923  42.3877356  51.7464613   3.3648408  43.8857315
  61.0364370  15.1978493  48.3383129  61.9610918  14.9921355  48.2007580
  60.8679674  14.9494894  49.2472470  53.9935934   1.4105052  52.5601816
  53.6532754   0.6112865  52.9622496  53.2874940   1.7106763  51.9878649
  54.6452405  -1.5045635  51.0129139  55.4678475  -1.9785157  50.8908029
  54.8890469  -0.7255151  51.5127825  53.2860640   1.5242623  41.3092041
  54.0069002   1.9023876  40.8055758  52.6625944   2.2431500  41.4127019
  57.4291763   2.2287772  42.2450373  57.6455377   3.1112410  41.9439201
  56.9485830   1.8373986  41.5156015  52.1690984   5.1873485  48.8221118
  52.0235565   5.5013788  49.7145399  51.6916188   5.8058386  48.2692016
  54.0287367   2.1776033  48.8702007  54.0148936   1.2817127  48.5334305
  54.7459795   2.1846697  49.5040293  55.8813498   2.6113374  50.9155135
  55.6231276   3.5330444  50.9139465  55.3498538   2.2143808  51.6055599
  60.8259687  15.7164161  43.6945220  60.9996564  15.1510583  42.9419073
  61.3188578  16.5165056  43.5124710  46.6436646   7.7278830  51.7608779
  46.0990114   8.5038638  51.8929053  47.5215996   8.0749634  51.6027900
  53.4324263   1.0590414  44.1389577  53.5540174   0.1307060  44.3380465
  53.1426305   1.0729100  43.2267893  56.3015453  -1.2554676  47.2756297
  56.3237150  -1.1915343  46.3208277  56.7183512  -2.0950167  47.4696803
  66.6799078   8.4800584  45.3135520  67.1230224   7.7307909  44.9154643
  65.8025588   8.4710720  44.9309252  61.8134859  15.0330925  40.7942118
  62.5085764  15.6537618  41.0129433  62.1558009  14.1826276  41.0694496
  47.4302668   6.8548726  54.6538936  46.6884404   7.0031361  55.2403566
  47.1095413   7.1156992  53.7905685  63.7126282  12.4830631  42.3229449
  64.2377606  12.8217903  41.5978769  63.6248635  11.5477646  42.1392584
  55.3746331  16.3964704  54.4519326  55.6833457  16.1513851  55.3242025
  56.1721813  16.6011343  53.9638196  55.3966943  18.5502614  46.6824702
  54.9571933  18.0578993  47.3757559  56.1475060  18.0075582  46.4416778
  47.8759282  14.7414155  46.6849330  48.7017302  14.4417927  46.3047974
  47.5253334  13.9721777  47.1339119  52.8440815  14.0940623  48.7547004
  52.2220824  13.4311328  48.4549232  53.5145682  14.1201755  48.0720652
  46.0767887  12.6600481  47.6438264  45.2399795  12.2322656  47.4622265
  46.0491532  12.8532925  48.5809055  52.9165343   2.5722411  58.3479510
  52.9653498   3.4484534  57.9657280  53.4587857   2.0299804  57.7751153
  63.4020188  13.1163534  57.6280647  62.6115732  13.0987673  57.0885147
  63.1653543  13.6551828  58.3829684  63.5218063   9.9656001  54.9413376
  63.5716068   9.8006008  55.8828898  63.4131987   9.0983260  54.5511256
  52.4054322  12.6444546  42.2305465  52.5542442  13.3280011  41.5772137
  53.2120765  12.6249636  42.7454920  60.8121826   5.9486929  56.2572682
  61.7131688   5.8093394  55.9656680  60.8869800   6.1141384  57.1970860
  55.1464631   3.3253783  55.1025869  54.2767940   3.6187350  54.8308457
  55.3824111   3.9094228  55.8233132  65.0236260  12.3852942  55.1855397
  64.7321068  12.7482923  56.0218858  64.4108391  11.6719950  55.0068729
  66.2231942   9.9505822  47.7057967  67.0578834  10.3895626  47.8695528
  66.3591071   9.4744475  46.8866213  63.2723448   7.5085557  53.6535455
  63.7477570   7.7013203  52.8454307  62.3489014   7.5644743  53.4078839
  50.1606955   8.6709724  43.2366533  49.9152997   7.7672054  43.4346744
  50.3302870   8.6726874  42.2946011  57.8503665  -0.4566600  52.6191289
  58.3685609   0.2794427  52.2937778  57.4958798  -0.1502606  53.4538048
  49.4302603   4.4038082  40.7352695  48.7371847   4.4782437  40.0792731
  49.1854354   3.6398425  41.2574212  55.9049728  15.1392677  39.7017212
  55.3323695  15.7582864  39.2487684  56.4782521  15.6892039  40.2357134
  61.9725117   4.3851317  51.8863761  62.9242540   4.4849415  51.9075985
  61.8028568   3.5929585  52.3961845  59.9939497   1.4706900  52.0723162
  59.3989429   1.7511913  51.3769650  59.7089194   1.9600801  52.8439903
  59.1246987  15.4229827  40.8325794  60.0577660  15.3575389  41.0358670
  59.0370200  16.2586094  40.3740327  61.7535004  14.7395697  37.7929742
  61.6748636  14.4055561  38.6865500  62.5744671  15.2317465  37.7921214
  64.4513195   7.6057437  51.0006060  64.4189515   6.6673437  51.1865744
  65.0613819   7.6841473  50.2671885  56.2896526   6.4753490  37.0433264
  57.2355631   6.3459698  37.1121682  55.9110771   5.7368151  37.5202693
  64.6007684   4.3968480  51.0464344  64.0846732   3.6126937  50.8594272
  65.4847632   4.0687197  51.2110863  62.2618411  -1.8590504  47.0060156
  62.0643232  -2.1675416  47.8903488  62.8718116  -1.1328865  47.1358086
  70.2689745   8.6673443  50.1412097  70.9993134   8.4058732  50.7019801
  69.6596691   7.9302165  50.1814165  68.3505042   6.8081306  50.7386548
  67.6238206   6.6737271  50.1303040  67.9352329   7.1158135  51.5443266
  56.1735219  10.5271236  58.5033921  57.0938228  10.7049835  58.6973968
  56.1384802   9.5827281  58.3513621  54.4739443   4.4003466  36.9788150
  53.5670899   4.1036579  37.0550863  54.7515424   4.1033284  36.1122436
  45.3917384   5.7209829  47.4287196  45.0720168   4.8675138  47.1361570
  44.8450812   5.9358408  48.1845163  49.1697291   8.4372270  51.1456703
  49.3883301   9.3689378  51.1644736  49.5823065   8.0780245  51.9311506
  56.0901509  -1.0559644  43.1332391  55.2802237  -1.4012559  43.5087637
  56.7785926  -1.3652101  43.7220003  58.0192057  -1.9781598  44.7556688
  58.5723096  -1.5586144  45.4146711  58.2562144  -2.9045849  44.7979644
  54.0425156   4.0105476  60.5359452  53.9421883   4.9599833  60.4671543
  53.8246698   3.6823715  59.6635522  53.2438228   1.2590401  37.1200129
  54.1057392   1.5845299  37.3795946  53.4288572   0.4721897  36.6073195
  45.2605644   9.3412741  49.3980318  44.5669115   8.9266694  48.8850272
  46.0078635   9.3833277  48.8013737  61.3970864   0.1318928  44.2635352
  60.8169533   0.7903732  43.8813404  61.1306797  -0.6903728  43.8522769
  59.8474431  -0.4676015  46.4656672  60.3474209  -0.3559480  45.6570991
  60.4910039  -0.7714962  47.1057481  53.9056427   7.4402615  59.3524513
  53.4223508   8.2402975  59.5588402  53.9917366   7.4510560  58.3991957
  47.1742386   9.2730995  47.2746333  47.1513074   9.3718682  46.3228216
  47.4843023  10.1196145  47.5963499  49.8329764  11.3307150  51.3892947
  50.7873018  11.2991092  51.3222879  49.6342288  10.8697773  52.2043173
  50.4229146   9.9008266  53.9563745  51.2422035  10.3952344  53.9798582
  50.6965954   8.9840234  53.9281312  60.1795742   2.2919018  43.3191700
  59.2921597   2.5768669  43.1011895  60.5949731   2.1312781  42.4718977
  63.5310278   2.3165539  47.0346039  64.3070669   2.8061991  47.3070656
  62.8058413   2.7423593  47.4917909  65.9682837   3.0293158  48.0919980
  66.5627328   2.7888894  47.3813288  66.0409421   2.3100289  48.7193516
  48.1879993  16.8726769  48.4063145  48.0534461  16.1127170  47.8401143
  47.7712055  17.5967669  47.9391934  59.3238956  12.0563693  37.4139720
  60.0274806  12.2613695  38.0297376  58.6001605  12.6240455  37.6788804
  60.1536766   7.8073554  43.5341990  60.0971967   8.2642105  42.6949623
  60.7065109   7.0464239  43.3564833  63.9641572   3.5963286  44.3592110
  63.7078506   3.1959921  45.1900317  63.3394440   4.3107080  44.2342249
  68.2753910   6.3359359  46.8663401  67.7153468   6.4052548  47.6394963
  67.6697413   6.1600344  46.1462897  51.3449119  17.7696086  48.6181587
  51.2281503  18.7141519  48.5160278  50.5241565  17.4669648  49.0067387
  61.2325653  12.4946222  39.4638180  62.0671257  12.0627420  39.2815655
  61.0709996  12.3228236  40.3915075  60.8871545   8.9978335  40.8294519
  60.8320349   8.8322607  39.8882964  60.2617601   9.7054368  40.9856709
  45.6764060   4.2346400  54.6555942  46.3222924   3.7245354  55.1443167
  45.4681211   4.9715081  55.2299367  58.2017453  11.3027247  60.1548082
  59.0708612  11.4767899  59.7934717  57.7224204  12.1221664  60.0323812
  54.1967671  -1.5013556  40.4079838  54.1846341  -0.5571716  40.5648109
  55.0891093  -1.6843410  40.1139299  52.3703633  18.4224348  51.8337516
  53.2730879  18.4547958  52.1504011  52.1441003  17.4924799  51.8483852
  54.1257235  17.1755335  48.4947595  53.1752866  17.1757196  48.3811967
  54.4289721  16.4288069  47.9783629  50.0161551   1.3814017  58.7530956
  50.8793013   1.0250822  58.9634280  49.4426962   1.0427911  59.4406360
  69.8609928  23.0115873  49.5593357  70.4988338  22.8922620  48.8556697
  69.7430771  23.9596717  49.6181309  66.6699635  22.9643301  49.4954882
  66.3318146  22.8484366  48.6075416  67.5389403  22.5634466  49.4755888
  67.1519418  24.1178153  55.4541087  67.1408058  23.7230951  54.5821591
  67.3140057  23.3844225  56.0474859  60.0750882  26.3129969  48.3235993
  60.8672174  25.9720794  47.9082292  60.3147532  26.4224944  49.2438146
  63.8726679  26.9015265  54.4020271  63.5816545  27.8060895  54.2866937
  64.5083663  26.9431792  55.1164341  64.7982886  24.2792113  50.9921631
  65.3946458  24.0548136  50.2778594  64.8557857  23.5376859  51.5947079
  69.4151197  20.7367327  46.6346565  70.2014286  20.3186750  46.2836982
  69.6789901  21.6413419  46.8028213  74.8159624  20.6742560  47.5379543
  75.5484796  20.1041777  47.7717373  74.0598980  20.2864161  47.9786049
  72.3385044  14.3864134  51.9974152  72.0068369  15.2559545  51.7735367
  71.7430658  14.0700418  52.6768182  66.0741231  18.1259701  39.7304234
  66.2415633  18.9939938  40.0974705  65.8838400  18.2886983  38.8065524
  62.2829045  23.0390477  47.4306769  61.3579542  22.9066691  47.6384461
  62.5313458  23.8184696  47.9276712  72.2313708  19.1059220  49.0767502
  71.3230585  19.0374629  48.7826263  72.1801303  19.5831165  49.9049328
  66.0530451  20.5817359  40.7150901  65.9330077  21.0274410  41.5536382
  65.3583040  20.9302676  40.1564439  59.6437856  22.6823751  48.2650558
  59.7730237  22.9358229  49.1789970  58.9635308  23.2751459  47.9455213
  66.3054573  20.5248866  57.0202399  65.5287907  21.0842786  57.0105264
  66.9445136  21.0105649  57.5417270  74.0975354  17.3075659  50.8545376
  73.4549734  17.6008192  50.2085171  73.5930282  17.1928579  51.6598573
  71.7515518  21.0538832  41.5431235  72.6633374  21.2866219  41.3678933
  71.2425165  21.6375876  40.9806314  64.5600946  23.3334319  56.5820366
  65.3015630  23.8719363  56.3055190  63.8537931  23.9600608  56.7391918
  66.3887355  20.4136067  52.5526085  67.2348551  20.8375480  52.6960734
  66.3285993  19.7569691  53.2464648  69.5386801  18.0740435  54.2107258
  69.2947733  18.8282495  53.6741534  69.8146731  18.4525782  55.0454506
  69.0951492  17.2296868  49.7921096  68.2335971  17.5278121  50.0837834
  69.1213927  17.4467267  48.8602129  62.8037143  25.3210540  49.1374665
  63.3738500  25.7497808  48.4992150  63.3945255  25.0393125  49.8358851
  64.8481948  21.8962211  43.0084467  65.5505991  22.3483255  43.4758393
  64.5162576  21.2546030  43.6364360  63.2962309  20.4873967  57.3835676
  62.6660970  21.1690248  57.6171073  63.1898397  20.3757049  56.4388815
  58.5907282  20.1545763  48.3101601  57.8006336  20.4103292  47.8341711
  59.0818529  20.9694101  48.4153641  60.5422027  20.5190343  45.2685077
  59.7453190  20.6309037  45.7868573  60.3147619  20.8576995  44.4025968
  66.3727695  27.0435046  53.2167592  66.4372127  27.5055453  54.0525764
  65.6638619  26.4132411  53.3449902  56.8744985  20.4076254  50.7416591
  57.1253023  21.2923264  51.0074167  57.4104533  20.2280855  49.9691683
  62.5743052  14.7894733  59.7460927  62.1809998  14.2360932  60.4208572
  63.3909192  15.1005312  60.1367445  65.4911013  16.2052612  57.3381184
  66.2320726  16.8059766  57.2585646  65.7228936  15.4630250  56.7799227
  60.6352351  21.3908980  55.6159414  60.5205866  20.4894237  55.9166513
  59.7796869  21.6372676  55.2644230  69.4368176  12.2333715  51.6145466
  69.0932445  13.1235357  51.5384576  69.8047139  12.0435373  50.7515051
  69.4018459  22.2242326  40.1217901  68.8865082  22.9946931  40.3606288
  69.1295767  21.5507463  40.7450962  66.9865570  17.0692027  45.1803139
  66.1307166  16.6798878  45.0008778  67.3992522  17.1483988  44.3202925
  68.5164716  14.6038371  49.5794699  68.0129512  14.5668506  48.7662504
  68.8095323  15.5131113  49.6391356  64.7607602  14.6877100  48.5860881
  65.6260599  14.4919909  48.2266770  64.8285111  14.4587452  49.5130237
  74.3752733  24.9774681  42.0571074  73.5982176  24.6385841  41.6126236
  75.0544214  24.9827304  41.3826039  69.1904762  20.0969419  41.9477682
  68.8854898  20.4115568  42.7987825  70.1435204  20.1750838  41.9905015
  62.3669921  16.9179308  45.9577247  62.9413673  16.6954490  45.2250440
  62.9540904  16.9868003  46.7105849  71.4249499  22.8053035  46.7641624
  71.9381380  23.4383027  47.2663334  72.0750723  22.2054231  46.3984984
  62.6939509  18.9483769  39.9773133  61.8576821  19.2858456  40.2982407
  62.5544278  18.8132749  39.0400270  64.6692589  13.7920557  44.6852317
  64.0157001  13.4769574  44.0608932  64.6273063  13.1696298  45.4112140
  67.9030329  20.2802491  49.0099965  66.9852891  20.5017438  48.8521653
  68.3190473  20.3548801  48.1511672  68.6865377  21.6793906  44.1402645
  69.4337196  22.1915303  43.8309767  68.9556967  21.3577959  45.0007038
  72.1911295  27.7859036  44.8920767  71.7373622  26.9449946  44.9485957
  71.5605262  28.4220435  45.2295547  71.1344214  18.7151023  46.1221434
  70.3966971  18.2028409  46.4531677  71.3870988  18.2751404  45.3104711
  71.2355842  11.4927275  46.7163203  71.5414719  10.6324638  46.4289118
  71.9608447  12.0844895  46.5162197  57.5280198  21.8957961  45.1044801
  57.3304598  21.3027322  44.3795868  56.9726862  21.5910171  45.8220740
  65.5076921  21.7881068  47.2239394  65.5625531  20.8354904  47.1481871
  64.6968123  21.9440507  47.7080693  63.4469281  20.4058127  44.9829773
  62.6337147  20.7052298  45.3894965  63.9428276  20.0113816  45.7004256
  69.0443493  20.8699952  53.8144667  69.3992881  21.0971425  54.6739133
  69.6915624  21.2018329  53.1921922  62.9383356  17.9776483  50.5991008
  63.5782735  17.8365242  49.9013972  62.1060887  17.6910996  50.2229610
  60.0226424  21.4221995  42.7885753  59.0924012  21.3606451  43.0055716
  60.1183895  20.8997948  41.9922395  59.9411973  17.9476808  45.3763995
  60.2018790  18.8622141  45.2673156  60.7629145  17.4801250  45.5260608
  61.4136898  19.3614565  52.5462820  62.0859951  19.1531927  51.8975469
  60.5866684  19.1636651  52.1068052  67.3162470  15.9876506  54.5628480
  66.6690385  16.6866456  54.4692957  68.0863485  16.4212650  54.9304729
  67.4926604  23.8257271  52.6225300  68.4218664  23.9768430  52.4494268
  67.0717634  23.9141292  51.7673947  67.8420151  27.2289538  47.7812676
  67.5069984  27.1890308  48.6770325  67.3424097  26.5634254  47.3083086
  61.8164395  22.6357168  53.3065257  61.6784193  21.9037407  53.9076796
  62.7269319  22.5466068  53.0249445  70.7779343  24.5745572  38.0549735
  70.1608513  23.8492400  37.9582788  70.3095831  25.3354933  37.7116810
  64.4446696  22.3477127  52.7948936  65.1546314  21.7070320  52.7535555
  64.4016004  22.5990022  53.7175117  63.1575630  19.3342345  54.6144576
  62.6212987  18.8833084  55.2666172  62.5692338  19.4688254  53.8715040
  61.4524173  36.1006395  48.5089235  61.6920772  36.7324919  49.1868253
  60.6093370  35.7494435  48.7954594  62.5677889  18.7930997  37.1771040
  61.6907355  18.6719797  36.8133286  63.0435642  18.0017075  36.9249928
  54.0880029  23.5808156  47.2712547  54.7751069  23.2669886  46.6833562
  53.9328158  24.4849521  46.9979798  58.8914751  18.4698353  51.6997570
  58.8072940  17.8624022  50.9647980  58.0697457  18.9607371  51.7007067
  69.0638465  16.9551916  47.0667765  69.5607164  16.2021879  46.7468836
  68.2925446  16.9916233  46.5010975  70.1468246  25.7123604  44.6406189
  69.2124524  25.8325066  44.4710893  70.3244914  24.8096070  44.3766199
  65.6473434  19.0969299  46.7939450  65.2771221  18.5440340  47.4820356
  66.1432526  18.4927433  46.2414450  73.5340797  21.5540923  45.1756223
  74.0001249  22.3868915  45.1016526  73.9848297  21.0885905  45.8801481
  71.5057460  13.9221510  49.2147124  70.5920539  14.1525737  49.3829331
  71.9350561  14.0059954  50.0661157  71.2763918  22.1111402  51.7147018
  70.6235368  22.3587309  51.0599471  71.6544298  21.2975540  51.3809496
  67.3251491  22.8531213  58.2013055  66.6492128  22.7525342  58.8715431
  68.1479125  22.6970427  58.6649053  59.0730350  29.0903149  50.8225571
  59.6583787  28.3446837  50.9553475  58.8755189  29.4007106  51.7062235
  53.6648005  21.6608750  49.5430014  53.7032105  21.1272340  50.3367132
  53.1588298  21.1343955  48.9240991  61.0438767  16.5073290  53.0392556
  61.1080094  17.3688121  52.6269954  60.9805888  15.8947292  52.3064915
  60.5191040  18.5796423  56.6865590  61.1463079  18.1973500  57.3003115
  59.6618959  18.3610625  57.0521283  57.2956583  20.3872852  42.6183945
  57.5910024  19.4783530  42.5650999  56.3944618  20.3660591  42.2964948
  60.8250830  18.4628848  48.6011494  60.1037415  19.0764816  48.4618967
  61.6144085  18.9986613  48.5228140  63.6277143  15.7983275  54.8752146
  64.1511545  16.0445571  55.6378455  63.4089476  16.6303310  54.4555283
  59.0244424  18.0686950  42.7423270  58.6957130  17.1884328  42.5598376
  59.3783795  18.0134618  43.6299660  62.1386247  18.3559919  43.1098748
  62.4782320  18.8845841  42.3877356  62.5858368  18.6940325  43.8857315
  64.8329688  16.7396970  52.5601816  64.4926509  15.9404783  52.9622496
  64.1268694  17.0398681  51.9878649  65.4846160  13.8246282  51.0129139
  66.3072229  13.3506761  50.8908029  65.7284224  14.6036766  51.5127825
  64.1254394  16.8534541  41.3092041  64.8462757  17.2315794  40.8055758
  63.5019699  17.5723418  41.4127019  68.2685517  17.5579690  42.2450373
  68.4849132  18.4404328  41.9439201  67.7879585  17.1665903  41.5156015
  63.0084739  20.5165403  48.8221118  62.8629319  20.8305706  49.7145399
  62.5309942  21.1350303  48.2692016  64.8681122  17.5067951  48.8702007
  64.8542690  16.6109044  48.5334305  65.5853550  17.5138615  49.5040293
  66.7207252  17.9405291  50.9155135  66.4625030  18.8622362  50.9139465
  66.1892293  17.5435726  51.6055599  57.4830401  23.0570747  51.7608779
  56.9383869  23.8330555  51.8929053  58.3609751  23.4041552  51.6027900
  64.2718018  16.3882331  44.1389577  64.3933929  15.4598978  44.3380465
  63.9820060  16.4021017  43.2267893  67.1409208  14.0737242  47.2756297
  67.1630905  14.1376575  46.3208277  67.5577267  13.2341750  47.4696803
  58.2696423  22.1840644  54.6538936  57.5278159  22.3323279  55.2403566
  57.9489167  22.4448909  53.7905685  74.5520037  27.8122548  42.3229449
  75.0771361  28.1509821  41.5978769  74.4642389  26.8769564  42.1392584
  58.7153036  30.0706072  46.6849330  59.5411056  29.7709844  46.3047974
  58.3647088  29.3013695  47.1339119  56.9161641  27.9892399  47.6438264
  56.0793550  27.5614573  47.4622265  56.8885287  28.1824842  48.5809055
  63.7559097  17.9014329  58.3479510  63.8047253  18.7776452  57.9657280
  64.2981611  17.3591722  57.7751153  71.6515580  21.2778846  56.2572682
  72.5525443  21.1385311  55.9656680  71.7263555  21.4433301  57.1970860
  65.9858386  18.6545701  55.1025869  65.1161695  18.9479267  54.8308457
  66.2217866  19.2386146  55.8233132  74.1117203  22.8377474  53.6535455
  74.5871324  23.0305121  52.8454307  73.1882768  22.8936660  53.4078839
  68.6897419  14.8725318  52.6191289  69.2079363  15.6086345  52.2937778
  68.3352552  15.1789311  53.4538048  60.2696357  19.7329999  40.7352695
  59.5765602  19.8074354  40.0792731  60.0248109  18.9690343  41.2574212
  68.9410014  11.2925601  48.1392186  69.2211767  10.6248790  48.7652612
  69.7260620  11.4854696  47.6266849  72.8118872  19.7143235  51.8863761
  73.7636295  19.8141332  51.9075985  72.6422322  18.9221503  52.3961845
  70.8333251  16.7998818  52.0723162  70.2383183  17.0803831  51.3769650
  70.5482948  17.2892719  52.8439903  75.2906950  22.9349354  51.0006060
  75.2583270  21.9965355  51.1865744  75.9007573  23.0133391  50.2671885
  67.1290281  21.8045407  37.0433264  68.0749385  21.6751615  37.1121682
  66.7504525  21.0660069  37.5202693  75.4401438  19.7260398  51.0464344
  74.9240487  18.9418854  50.8594272  76.3241387  19.3979114  51.2110863
  73.1012165  13.4701413  47.0060156  72.9036986  13.1616501  47.8903488
  73.7111871  14.1963052  47.1358086  67.0128973  25.8563153  58.5033921
  67.9331983  26.0341752  58.6973968  66.9778556  24.9119199  58.3513621
  65.3133198  19.7295384  36.9788150  64.4064653  19.4328496  37.0550863
  65.5909179  19.4325202  36.1122436  56.2311138  21.0501747  47.4287196
  55.9113922  20.1967055  47.1361570  55.6844566  21.2650325  48.1845163
  60.0091046  23.7664188  51.1456703  60.2277055  24.6981296  51.1644736
  60.4216819  23.4072162  51.9311506  66.9295263  14.2732273  43.1332391
  66.1195992  13.9279358  43.5087637  67.6179680  13.9639817  43.7220003
  68.8585812  13.3510320  44.7556688  69.4116850  13.7705774  45.4146711
  69.0955898  12.4246068  44.7979644  64.8818911  19.3397394  60.5359452
  64.7815638  20.2891751  60.4671543  64.6640453  19.0115633  59.6635522
  64.0831982  16.5882319  37.1200129  64.9451146  16.9137217  37.3795946
  64.2682326  15.8013815  36.6073195  56.0999398  24.6704659  49.3980318
  55.4062870  24.2558611  48.8850272  56.8472389  24.7125195  48.8013737
  72.2364619  15.4610845  44.2635352  71.6563288  16.1195649  43.8813404
  71.9700551  14.6388190  43.8522769  70.6868185  14.8615903  46.4656672
  71.1867964  14.9732438  45.6570991  71.3303793  14.5576956  47.1057481
  64.7450181  22.7694533  59.3524513  64.2617263  23.5694893  59.5588402
  64.8311120  22.7802478  58.3991957  58.0136141  24.6022912  47.2746333
  57.9906829  24.7010600  46.3228216  58.3236777  25.4488063  47.5963499
  60.6723518  26.6599067  51.3892947  61.6266772  26.6283010  51.3222879
  60.4736042  26.1989691  52.2043173  61.2622901  25.2300183  53.9563745
  62.0815790  25.7244262  53.9798582  61.5359708  24.3132152  53.9281312
  71.0189497  17.6210936  43.3191700  70.1315352  17.9060586  43.1011895
  71.4343486  17.4604699  42.4718977  74.3704033  17.6457457  47.0346039
  75.1464423  18.1353909  47.3070656  73.6452167  18.0715511  47.4917909
  76.8076592  18.3585076  48.0919980  77.4021082  18.1180812  47.3813288
  76.8803175  17.6392206  48.7193516  59.0273747  32.2018687  48.4063145
  58.8928215  31.4419088  47.8401143  58.6105810  32.9259587  47.9391934
  70.1632710  27.3855610  37.4139720  70.8668560  27.5905613  38.0297376
  69.4395359  27.9532372  37.6788804  70.9930521  23.1365472  43.5341990
  70.9365722  23.5934023  42.6949623  71.5458863  22.3756156  43.3564833
  74.8035326  18.9255203  44.3592110  74.5472261  18.5251839  45.1900317
  74.1788195  19.6398997  44.2342249  79.1147664  21.6651277  46.8663401
  78.5547222  21.7344466  47.6394963  78.5091168  21.4892261  46.1462897
  71.7265300  24.3270253  40.8294519  71.6714104  24.1614524  39.8882964
  71.1011355  25.0346286  40.9856709  56.5157815  19.5638317  54.6555942
  57.1616678  19.0537271  55.1443167  56.3074966  20.3006999  55.2299367
  65.0361425  13.8278362  40.4079838  65.0240095  14.7720202  40.5648109
  65.9284847  13.6448507  40.1139299  68.8513545  10.4221139  44.6625775
  68.0845941   9.8679625  44.8082457  69.2624250  10.4943007  45.5239926
  60.8555306  16.7105934  58.7530956  61.7186767  16.3542739  58.9634280
  60.2820717  16.3719829  59.4406360  91.5370839  39.1681669  47.4091853
  90.7834547  38.5989067  47.2535857  91.6718380  39.1344333  48.3562488
  75.8755180  29.1570280  40.4079838  75.8633850  30.1012119  40.5648109
  76.7678602  28.9740425  40.1139299  94.0172553  45.0447970  51.9974152
  93.6855878  45.9143380  51.7735367  93.4218167  44.7284254  52.6768182
  95.7762863  47.9659494  50.8545376  95.1337243  48.2592027  50.2085171
  95.2717791  47.8512414  51.6598573  90.7739001  47.8880703  49.7921096
  89.9123480  48.1861957  50.0837834  90.8001436  48.1051102  48.8602129
  90.1952225  45.2622206  49.5794699  89.6917021  45.2252341  48.7662504
  90.4882832  46.1714949  49.6391356  92.8131723  49.3734858  46.1221434
  92.0754480  48.8612244  46.4531677  93.0658497  48.9335239  45.3104711
  92.9143351  42.1511110  46.7163203  93.2202228  41.2908473  46.4289118
  93.6395956  42.7428730  46.5162197  90.7425974  47.6135752  47.0667765
  91.2394673  46.8605714  46.7468836  89.9712955  47.6500068  46.5010975
  95.2128306  52.2124758  45.1756223  95.6788758  53.0452750  45.1016526
  95.6635806  51.7469740  45.8801481  93.1844969  44.5805345  49.2147124
  92.2708048  44.8109572  49.3829331  93.6138070  44.6643789  50.0661157
  97.5417524  58.3728695  55.1855397  97.2502332  58.7358676  56.0218858
  96.9289655  57.6595704  55.0068729  90.3684928  45.5309153  52.6191289
  90.8866872  46.2670180  52.2937778  90.0140061  45.8373147  53.4538048
  90.6197523  41.9509436  48.1392186  90.8999276  41.2832625  48.7652612
  91.4048129  42.1438532  47.6266849  94.7799674  44.1285249  47.0060156
  94.5824495  43.8200337  47.8903488  95.3899380  44.8546888  47.1358086
 100.8686306  52.7957059  50.7386548 100.1419469  52.6613024  50.1303040
 100.4533593  53.1033888  51.5443266  93.9152128  46.1194681  44.2635352
  93.3350797  46.7779485  43.8813404  93.6488060  45.2972025  43.8522769
  92.3655694  45.5199738  46.4656672  92.8655472  45.6316273  45.6570991
  93.0091302  45.2160791  47.1057481  92.6977006  48.2794771  43.3191700
  91.8102861  48.5644422  43.1011895  93.1130995  48.1188534  42.4718977
  96.0491542  48.3041292  47.0346039  96.8251932  48.7937744  47.3070656
  95.3239676  48.7299346  47.4917909  98.4864101  49.0168911  48.0919980
  99.0808591  48.7764647  47.3813288  98.5590684  48.2976042  48.7193516
  96.4822835  49.5839039  44.3592110  96.2259770  49.1835675  45.1900317
  95.8575703  50.2982833  44.2342249 100.7935173  52.3235112  46.8663401
 100.2334731  52.3928301  47.6394963 100.1878677  52.1476097  46.1462897
 102.3791192  68.9991626  49.5593357 103.0169602  68.8798373  48.8556697
 102.2612035  69.9472470  49.6181309  99.6700681  70.1053906  55.4541087
  99.6589322  69.7106704  54.5821591  99.8321321  69.3719978  56.0474859
 100.6267272  74.4725498  40.7966237  99.9755252  75.0579579  40.4100251
 101.4211635  75.0031693  40.8561275  96.3907942  72.8891018  54.4020271
  96.0997808  73.7936649  54.2866937  97.0264927  72.9307545  55.1164341
 102.1042538  72.1615930  41.3335222 101.4688371  72.2350557  42.0456126
 101.7739944  72.7509529  40.6554301 107.3340887  66.6618313  47.5379543
 108.0666059  66.0917530  47.7717373 106.5780243  66.2739914  47.9786049
 104.8566308  60.3739887  51.9974152 104.5249633  61.2435298  51.7735367
 104.2611921  60.0576171  52.6768182 101.3497827  72.5752433  51.3970065
 101.0498550  73.4777472  51.2885872 101.0048887  72.3084616  52.2491218
 104.7494971  65.0934973  49.0767502 103.8411848  65.0250382  48.7826263
 104.6982567  65.5706918  49.9049328  98.5711715  66.5693112  40.7150901
  98.4511340  67.0150163  41.5536382  97.8764303  66.9178429  40.1564439
  96.3318607  79.3396754  44.3641032  96.2542637  80.2904579  44.4429513
  95.7280251  78.9942626  45.0215959  98.8235837  66.5124619  57.0202399
  98.0469171  67.0718539  57.0105264  99.4626400  66.9981402  57.5417270
 106.6156617  63.2951412  50.8545376 105.9730998  63.5883945  50.2085171
 106.1111546  63.1804332  51.6598573 104.2696781  67.0414585  41.5431235
 105.1814637  67.2741972  41.3678933 103.7606428  67.6251629  40.9806314
  97.0782209  69.3210072  56.5820366  97.8196894  69.8595116  56.3055190
  96.3719195  69.9476361  56.7391918 102.5537549  71.4639213  55.1792528
 102.9620905  71.0221623  54.4347160 101.8314810  70.8891840  55.4326721
  98.9068619  66.4011820  52.5526085  99.7529814  66.8251233  52.6960734
  98.8467256  65.7445444  53.2464648 102.8766363  72.0240403  48.9344817
 102.2475226  72.1886118  48.2320885 102.4892025  72.4382013  49.7055781
 106.7555595  72.9594841  46.2889181 106.0706633  73.3393743  45.7386214
 106.8399445  73.5690168  47.0221128 102.0568064  64.0616188  54.2107258
 101.8128996  64.8158248  53.6741534 102.3327995  64.4401536  55.0454506
 104.0106527  70.6054800  52.8884524 104.2223422  71.2486560  52.2118905
 103.9636275  69.7717117  52.4206454 101.6132756  63.2172621  49.7921096
 100.7517235  63.5153874  50.0837834 101.6395191  63.4343020  48.8602129
  95.8143573  66.4749720  57.3835676  95.1842233  67.1566001  57.6171073
  95.7079661  66.3632802  56.4388815 105.1252355  73.4826756  51.0606881
 105.9469799  73.0806943  50.7789563 105.1214758  73.3794990  52.0122997
  98.8908958  73.0310799  53.2167592  98.9553391  73.4931206  54.0525764
  98.1819882  72.4008164  53.3449902 113.2158348  69.8265504  47.4091853
 112.4622056  69.2572902  47.2535857 113.3505889  69.7928169  48.3562488
  95.0924316  60.7770486  59.7460927  94.6991261  60.2236685  60.4208572
  95.9090456  61.0881065  60.1367445  93.8681258  75.3320101  45.7397250
  94.0447886  76.2538066  45.5518234  94.6638092  75.0178520  46.1691630
  98.0092277  62.1928365  57.3381184  98.7501990  62.7935519  57.2585646
  98.2410199  61.4506003  56.7799227  93.1533615  67.3784733  55.6159414
  93.0387130  66.4769990  55.9166513  92.2978132  67.6248429  55.2644230
 100.2325452  75.3202473  57.2146914  99.7889307  74.5338852  56.8967819
 100.8942666  75.5081624  56.5490805  94.9912574  76.8498275  51.7407593
  95.5419999  76.7215338  50.9684587  94.1524049  77.1493164  51.3902486
 102.3306690  75.6005273  55.2428316 102.3125166  76.4214154  54.7508585
 103.2526610  75.4759348  55.4678457  98.7879745  73.1149402  56.0851824
  99.3208081  72.3537691  55.8551132  98.2593826  72.8223054  56.8275978
 101.9199722  68.2118079  40.1217901 101.4046346  68.9822684  40.3606288
 101.6477031  67.5383216  40.7450962 106.8933996  70.9650434  42.0571074
 106.1163439  70.6261594  41.6126236 107.5725477  70.9703057  41.3826039
 101.7086025  66.0845172  41.9477682 101.4036161  66.3991321  42.7987825
 102.6616468  66.1626591  41.9905015 105.1325303  70.4384415  48.7137682
 104.4748978  71.1283677  48.8017811 105.9365703  70.8280847  49.0571669
 103.9430762  68.7928788  46.7641624 104.4562644  69.4258780  47.2663334
 104.5931986  68.1929984  46.3984984  98.2985057  70.0615605  36.6005609
  97.3912119  69.8304859  36.7996758  98.7956089  69.2653224  36.7879591
 101.2053136  78.7713112  39.5202295 100.5314835  79.0744809  40.1287253
 101.5918958  79.5742193  39.1707752 104.7092558  73.7734790  44.8920767
 104.2554885  72.9325699  44.9485957 104.0786525  74.4096188  45.2295547
 103.1525498  75.6111286  45.8270585 103.4448472  76.1716343  45.1082950
 103.6624118  75.9039847  46.5823744  99.1749379  71.7036944  38.4617678
  98.7368809  70.9872803  38.0023315  99.9159820  71.9313059  37.9002769
  98.1159123  76.3891637  46.9164038  98.0735302  76.6152484  45.9872570
  99.0321822  76.1555012  47.0649839 101.5624757  66.8575705  53.8144667
 101.9174144  67.0847178  54.6739133 102.2096888  67.1894082  53.1921922
 107.2922493  69.9794141  44.5193996 107.1540392  70.1695737  43.5915185
 106.9358712  70.7413524  44.9762047 107.3191873  72.0470668  49.5305268
 107.7528380  71.9545957  50.3788322 108.0323454  72.0228168  48.8925284
 101.0519768  75.6472762  51.0638368 101.1056790  76.2163698  51.8316084
 100.1834549  75.8174647  50.6992405 108.1807423  72.0894368  52.0638153
 108.3743313  72.9940179  52.3097428 108.0808041  71.6301787  52.8976738
  99.8343733  61.9752259  54.5628480  99.1871648  62.6742209  54.4692957
 100.6044749  62.4088403  54.9304729 103.2422531  72.2401111  57.6379034
 103.0908038  72.0111663  56.7209117 103.2327211  73.1971713  57.6510379
 100.0107868  69.8133024  52.6225300 100.9399928  69.9644183  52.4494268
  99.5898898  69.9017045  51.7673947  98.8096200  73.8383688  50.3923838
  98.6707285  73.4702473  51.2649776  98.0210796  74.3531328  50.2207796
  99.4044351  78.9392785  41.7349374  99.5796107  78.4680828  42.5494997
  98.7177140  79.5658551  41.9630635 103.2960606  70.5621325  38.0549735
 102.6789777  69.8368154  37.9582788 102.8277095  71.3230686  37.7116810
  96.9627959  68.3352880  52.7948936  97.6727578  67.6946073  52.7535555
  96.9197267  68.5865775  53.7175117 104.9514738  75.2720234  55.7155516
 104.8927284  74.5879454  55.0486099 105.3534256  76.0139224  55.2636142
  93.9705437  82.0882148  48.5089235  94.2102035  82.7200672  49.1868253
  93.1274633  81.7370188  48.7954594 104.9532145  73.2359818  53.9469495
 104.0658924  72.8985739  54.0695894 105.5230696  72.5042849  54.1838261
  98.4833299  77.8961270  50.9130739  98.4103470  78.7016241  51.4250043
  98.0410692  78.0953236  50.0878760  98.2723078  77.1333040  44.4233560
  97.4890600  77.6754720  44.5171785  98.9715823  77.6507020  44.8227801
 109.4349486  68.6468035  48.7086057 109.4239362  69.5292750  48.3379990
 108.5666865  68.2939586  48.5140594 100.9431982  77.7948104  53.0688897
 101.6559954  78.4295569  52.9964799 100.4522011  77.8911970  52.2528899
 102.6649509  71.6999357  44.6406189 101.7305788  71.8200819  44.4710893
 102.8426178  70.7971823  44.3766199 106.0522060  67.5416676  45.1756223
 106.5182513  68.3744668  45.1016526 106.5029561  67.0761658  45.8801481
  95.9943896  75.5442547  53.8894468  96.6953355  76.1779030  54.0423862
  95.5239011  75.8857279  53.1290107 104.1198292  73.8860497  42.1742375
 104.3958135  73.7717092  43.0836249 103.2502790  73.4877982  42.1354548
 103.7945182  68.0987155  51.7147018 103.1416632  68.3463062  51.0599471
 104.1725562  67.2851293  51.3809496 100.7552356  78.1346848  45.8175189
 100.9374750  77.3168504  46.2802941 101.5785342  78.3514540  45.3800079
 101.0894521  77.0615033  43.0790237 101.6182287  76.5507488  42.4660399
 101.3522741  76.7457563  43.9435770  99.8432755  68.8406966  58.2013055
  99.1673392  68.7401095  58.8715431 100.6660389  68.6846180  58.6649053
  91.5911614  75.0778903  50.8225571  92.1765051  74.3322590  50.9553475
  91.3936452  75.3882859  51.7062235  94.4450269  78.1130150  45.8388013
  93.7760644  78.5976278  45.3552053  94.3063139  78.3599370  46.7531392
  98.5855538  80.1473893  52.4370671  99.1373846  80.3105515  53.2019757
  98.9261731  80.7378331  51.7650696  93.0372303  64.5672176  56.6865590
  93.6644342  64.1849253  57.3003115  92.1800222  64.3486378  57.0521283
 103.4366412  74.9735151  58.2919326 103.9806316  75.5865109  57.7974281
 102.8553257  75.5314729  58.8086339 101.7223925  78.0955869  49.4234354
 101.5975064  77.2945609  48.9145299 102.3803016  78.5902062  48.9348324
 103.7858833  75.8964889  51.0513904 102.8389169  75.7770240  50.9792230
 104.1341606  75.0087387  51.1340165  96.1458407  61.7859028  54.8752146
  96.6692808  62.0321324  55.6378455  95.9270740  62.6179063  54.4555283
 100.7905267  75.6917605  47.2518256 100.6430229  74.7634313  47.4325826
 101.6158760  75.7137696  46.7675331 104.3939388  76.5146164  48.3383129
 105.3185936  76.3089025  48.2007580 104.2254692  76.2662565  49.2472470
  97.3510952  62.7272723  52.5601816  97.0107772  61.9280536  52.9622496
  96.6449958  63.0274434  51.9878649 104.1834705  77.0331831  43.6945220
 104.3571582  76.4678254  42.9419073 104.6763596  77.8332726  43.5124710
 110.0374096  69.7968254  45.3135520 110.4805242  69.0475580  44.9154643
 109.1600606  69.7878391  44.9309252 105.1709877  76.3498596  40.7942118
 105.8660782  76.9705289  41.0129433 105.5133027  75.4993947  41.0694496
 107.0701300  73.7998301  42.3229449 107.5952624  74.1385574  41.5978769
 106.9823653  72.8645317  42.1392584  98.7321349  77.7132375  54.4519326
  99.0408475  77.4681522  55.3242025  99.5296831  77.9179013  53.9638196
  98.7541961  79.8670285  46.6824702  98.3146951  79.3746663  47.3757559
  99.5050078  79.3243252  46.4416778  91.2334300  76.0581826  46.6849330
  92.0592320  75.7585597  46.3047974  90.8828352  75.2889448  47.1339119
  96.2015833  75.4108294  48.7547004  95.5795842  74.7478999  48.4549232
  96.8720700  75.4369426  48.0720652  96.2740361  63.8890082  58.3479510
  96.3228516  64.7652205  57.9657280  96.8162875  63.3467475  57.7751153
 106.7595206  74.4331205  57.6280647 105.9690750  74.4155344  57.0885147
 106.5228561  74.9719499  58.3829684 106.8793081  71.2823671  54.9413376
 106.9291086  71.1173679  55.8828898 106.7707005  70.4150930  54.5511256
  95.7629340  73.9612217  42.2305465  95.9117460  74.6447681  41.5772137
  96.5695783  73.9417307  42.7454920 104.1696844  67.2654599  56.2572682
 105.0706706  67.1261064  55.9656680 104.2444818  67.4309054  57.1970860
  98.5039649  64.6421454  55.1025869  97.6342958  64.9355020  54.8308457
  98.7399129  65.2261899  55.8233132 108.3811278  73.7020613  55.1855397
 108.0896086  74.0650593  56.0218858 107.7683409  72.9887621  55.0068729
 109.5806960  71.2673493  47.7057967 110.4153852  71.7063297  47.8695528
 109.7166089  70.7912146  46.8866213 106.6298466  68.8253228  53.6535455
 107.1052588  69.0180874  52.8454307 105.7064032  68.8812413  53.4078839
 101.2078683  60.8601071  52.6191289 101.7260627  61.5962098  52.2937778
 100.8533816  61.1665064  53.4538048  99.2624746  76.4560348  39.7017212
  98.6898713  77.0750535  39.2487684  99.8357539  77.0059709  40.2357134
 105.3300135  65.7018988  51.8863761 106.2817558  65.8017085  51.9075985
 105.1603586  64.9097256  52.3961845 103.3514515  62.7874571  52.0723162
 102.7564447  63.0679584  51.3769650 103.0664212  63.2768472  52.8439903
 102.4822005  76.7397498  40.8325794 103.4152678  76.6743059  41.0358670
 102.3945218  77.5753765  40.3740327 105.1110022  76.0563368  37.7929742
 105.0323653  75.7223232  38.6865500 105.9319689  76.5485136  37.7921214
 107.8088213  68.9225107  51.0006060 107.7764533  67.9841108  51.1865744
 108.4188837  69.0009144  50.2671885  99.6471544  67.7921160  37.0433264
 100.5930649  67.6627368  37.1121682  99.2685789  67.0535822  37.5202693
 107.9582702  65.7136151  51.0464344 107.4421750  64.9294607  50.8594272
 108.8422650  65.3854867  51.2110863 113.6264763  69.9841114  50.1412097
 114.3568151  69.7226402  50.7019801 113.0171708  69.2469836  50.1814165
 111.7080060  68.1248977  50.7386548 110.9813224  67.9904942  50.1303040
 111.2927347  68.4325805  51.5443266  99.5310237  71.8438906  58.5033921
 100.4513246  72.0217505  58.6973968  99.4959820  70.8994952  58.3513621
  97.4000174  65.3273147  60.5359452  97.2996901  66.2767504  60.4671543
  97.1821716  64.9991386  59.6635522  97.2631444  68.7570286  59.3524513
  96.7798526  69.5570646  59.5588402  97.3492384  68.7678231  58.3991957
 106.8885296  63.6333210  47.0346039 107.6645687  64.1229662  47.3070656
 106.1633431  64.0591264  47.4917909 109.3257855  64.3460829  48.0919980
 109.9202346  64.1056565  47.3813288 109.3984439  63.6267959  48.7193516
  91.5455011  78.1894440  48.4063145  91.4109479  77.4294841  47.8401143
  91.1287073  78.9135340  47.9391934 102.6813974  73.3731363  37.4139720
 103.3849824  73.5781366  38.0297376 101.9576623  73.9408125  37.6788804
 103.5111784  69.1241225  43.5341990 103.4546985  69.5809776  42.6949623
 104.0640126  68.3631909  43.3564833 107.3216590  64.9130957  44.3592110
 107.0653524  64.5127592  45.1900317 106.6969458  65.6274750  44.2342249
 111.6328928  67.6527030  46.8663401 111.0728486  67.7220219  47.6394963
 111.0272431  67.4768014  46.1462897  94.7024137  79.0863757  48.6181587
  94.5856521  80.0309189  48.5160278  93.8816583  78.7837318  49.0067387
 104.5900671  73.8113893  39.4638180 105.4246275  73.3795091  39.2815655
 104.4285014  73.6395906  40.3915075 104.2446563  70.3146006  40.8294519
 104.1895367  70.1490277  39.8882964 103.6192619  71.0222039  40.9856709
 101.5592471  72.6194918  60.1548082 102.4283630  72.7935570  59.7934717
 101.0799222  73.4389335  60.0323812  95.7278651  79.7392019  51.8337516
  96.6305897  79.7715629  52.1504011  95.5016021  78.8092470  51.8483852
  97.4832253  78.4923005  48.4947595  96.5327884  78.4924867  48.3811967
  97.7864739  77.7455740  47.9783629  93.3736569  62.6981687  58.7530956
  94.2368031  62.3418492  58.9634280  92.8001980  62.3595582  59.4406360
 113.2184946  84.3283544  49.5593357 113.8563356  84.2090291  48.8556697
 113.1005789  85.2764388  49.6181309 110.0274653  84.2810972  49.4954882
 109.6893164  84.1652037  48.6075416 110.8964421  83.8802137  49.4755888
 105.8861468  86.1346448  45.4851773 105.3226333  86.0436385  44.7168060
 105.7713863  85.3146353  45.9654265 110.5094436  85.4345824  55.4541087
 110.4983076  85.0398622  54.5821591 110.6715075  84.7011896  56.0474859
 103.4325900  87.6297640  48.3235993 104.2247192  87.2888464  47.9082292
 103.6722550  87.7392615  49.2438146 111.4661027  89.8017416  40.7966237
 110.8149007  90.3871496  40.4100251 112.2605390  90.3323611  40.8561275
 105.3916654  86.8906553  41.1953372 106.1647530  86.3435540  41.0566248
 105.7442053  87.7550802  41.4067833 107.2301697  88.2182935  54.4020271
 106.9391563  89.1228566  54.2866937 107.8658681  88.2599463  55.1164341
 108.1557904  85.5959784  50.9921631 108.7521476  85.3715806  50.2778594
 108.2132875  84.8544529  51.5947079 107.7282932  83.0499219  38.8271822
 107.9808453  82.5280740  38.0655285 106.7907491  82.8865365  38.9298505
 112.7726215  82.0534998  46.6346565 113.5589304  81.6354421  46.2836982
 113.0364919  82.9581090  46.8028213 112.9436292  87.4907848  41.3335222
 112.3082125  87.5642474  42.0456126 112.6133698  88.0801447  40.6554301
 118.1734642  81.9910231  47.5379543 118.9059814  81.4209448  47.7717373
 117.4173998  81.6031831  47.9786049 107.4479221  84.9527325  41.0296197
 107.3315479  84.2772229  41.6977281 107.5581481  84.4659699  40.2128350
 109.7910762  84.4137472  44.7342886 109.4268969  83.8868093  45.4455807
 110.6477877  84.0235941  44.5609371 115.6960062  75.7031805  51.9974152
 115.3643387  76.5727216  51.7735367 115.1005676  75.3868089  52.6768182
 109.4316249  79.4427372  39.7304234 109.5990651  80.3107608  40.0974705
 109.2413418  79.6054654  38.8065524 112.1891582  87.9044351  51.3970065
 111.8892305  88.8069390  51.2885872 111.8442641  87.6376534  52.2491218
 105.6404063  84.3558148  47.4306769 104.7154560  84.2234362  47.6384461
 105.8888476  85.1352367  47.9276712 115.5888726  80.4226891  49.0767502
 114.6805603  80.3542299  48.7826263 115.5376321  80.8998836  49.9049328
 109.4105469  81.8985029  40.7150901 109.2905095  82.3442080  41.5536382
 108.7158058  82.2470347  40.1564439 103.0012874  83.9991421  48.2650558
 103.1305255  84.2525900  49.1789970 102.3210326  84.5919129  47.9455213
 107.1712362  94.6688671  44.3641032 107.0936391  95.6196496  44.4429513
 106.5674005  94.3234544  45.0215959 109.6629591  81.8416537  57.0202399
 108.8862925  82.4010457  57.0105264 110.3020154  82.3273320  57.5417270
 117.4550372  78.6243329  50.8545376 116.8124752  78.9175863  50.2085171
 116.9505300  78.5096250  51.6598573 115.1090536  82.3706503  41.5431235
 116.0208392  82.6033889  41.3678933 114.6000183  82.9543547  40.9806314
 107.9175964  84.6501990  56.5820366 108.6590648  85.1887034  56.3055190
 107.2112949  85.2768279  56.7391918 113.3931303  86.7931130  55.1792528
 113.8014659  86.3513541  54.4347160 112.6708565  86.2183758  55.4326721
 109.7462373  81.7303737  52.5526085 110.5923569  82.1543151  52.6960734
 109.6861011  81.0737362  53.2464648 113.7160118  87.3532321  48.9344817
 113.0868980  87.5178035  48.2320885 113.3285780  87.7673931  49.7055781
 117.5949350  88.2886759  46.2889181 116.9100388  88.6685660  45.7386214
 117.6793199  88.8982086  47.0221128 112.8961819  79.3908106  54.2107258
 112.6522751  80.1450166  53.6741534 113.1721749  79.7693453  55.0454506
 114.8500281  85.9346718  52.8884524 115.0617177  86.5778478  52.2118905
 114.8030030  85.1009035  52.4206454 112.4526510  78.5464539  49.7921096
 111.5910989  78.8445792  50.0837834 112.4788945  78.7634938  48.8602129
 109.2688080  87.0906729  46.1994902 109.7326425  87.3694432  45.4099524
 109.0044878  86.1890174  46.0167993 106.1612161  86.6378211  49.1374665
 106.7313518  87.0665479  48.4992150 106.7520273  86.3560795  49.8358851
 108.2056966  83.2129882  43.0084467 108.9081009  83.6650925  43.4758393
 107.8737594  82.5713700  43.6364360 106.6537327  81.8041638  57.3835676
 106.0235988  82.4857919  57.6171073 106.5473415  81.6924720  56.4388815
 101.9482300  81.4713434  48.3101601 101.1581354  81.7270963  47.8341711
 102.4393547  82.2861772  48.4153641 115.9646109  88.8118673  51.0606881
 116.7863553  88.4098861  50.7789563 115.9608512  88.7086908  52.0122997
 103.8997045  81.8358013  45.2685077 103.1028208  81.9476708  45.7868573
 103.6722637  82.1744666  44.4025968 109.7302713  88.3602717  53.2167592
 109.7947145  88.8223124  54.0525764 109.0213637  87.7300082  53.3449902
 100.2320003  81.7243925  50.7416591 100.4828041  82.6090935  51.0074167
 100.7679551  81.5448526  49.9691683 109.4450730  90.0270824  43.0846572
 109.3096405  90.8722360  43.5131420 109.9860543  90.2290102  42.3212506
 105.9318070  76.1062404  59.7460927 105.5385016  75.5528603  60.4208572
 106.7484210  76.4172982  60.1367445 102.8980128  87.5446262  43.6574497
 103.4104648  88.3389512  43.8080062 103.5502841  86.8472553  43.5908099
 104.7075013  90.6612018  45.7397250 104.8841641  91.5829983  45.5518234
 105.5031846  90.3470438  46.1691630 108.8486031  77.5220283  57.3381184
 109.5895744  78.1227436  57.2585646 109.0803954  76.7797921  56.7799227
 103.9927369  82.7076650  55.6159414 103.8780884  81.8061908  55.9166513
 103.1371887  82.9540347  55.2644230 111.0719207  90.6494391  57.2146914
 110.6283061  89.8630769  56.8967819 111.7336420  90.8373541  56.5490805
 105.8306328  92.1790192  51.7407593 106.3813753  92.0507256  50.9684587
 104.9917804  92.4785081  51.3902486 113.1700445  90.9297191  55.2428316
 113.1518920  91.7506072  54.7508585 114.0920365  90.8051266  55.4678457
 109.6273499  88.4441320  56.0851824 110.1601836  87.6829608  55.8551132
 109.0987580  88.1514972  56.8275978 112.7943194  73.5501386  51.6145466
 112.4507463  74.4403028  51.5384576 113.1622157  73.3603044  50.7515051
 100.8629045  85.8734917  44.4334068 101.7004267  86.2831925  44.2167776
 101.0407312  84.9334359  44.4034262 112.7593477  83.5409997  40.1217901
 112.2440100  84.3114602  40.3606288 112.4870785  82.8675133  40.7450962
 110.3440588  78.3859698  45.1803139 109.4882184  77.9966548  45.0008778
 110.7567540  78.4651659  44.3202925 111.8739734  75.9206041  49.5794699
 111.3704530  75.8836176  48.7662504 112.1670341  76.8298784  49.6391356
 108.1182620  76.0044771  48.5860881 108.9835617  75.8087580  48.2266770
 108.1860129  75.7755123  49.5130237 117.7327751  86.2942352  42.0571074
 116.9557194  85.9553511  41.6126236 118.4119232  86.2994975  41.3826039
 112.5479780  81.4137089  41.9477682 112.2429915  81.7283238  42.7987825
 113.5010222  81.4918509  41.9905015 110.9926212  87.5727313  43.5970636
 110.4647573  86.8380072  43.2843873 110.4913714  88.3501989  43.3510604
 115.9719058  85.7676333  48.7137682 115.3142732  86.4575594  48.8017811
 116.7759457  86.1572765  49.0571669 105.7244939  78.2346979  45.9577247
 106.2988691  78.0122160  45.2250440 106.3115922  78.3035673  46.7105849
 114.7824517  84.1220706  46.7641624 115.2956398  84.7550698  47.2663334
 115.4325740  83.5221901  46.3984984 106.0514526  80.2651440  39.9773133
 105.2151839  80.6026126  40.2982407 105.9119296  80.1300420  39.0400270
 108.0267607  75.1088228  44.6852317 107.3732019  74.7937245  44.0608932
 107.9848081  74.4863968  45.4112140 109.1378812  85.3907523  36.6005609
 108.2305874  85.1596776  36.7996758 109.6349844  84.5945142  36.7879591
 112.0446891  94.1005030  39.5202295 111.3708590  94.4036727  40.1287253
 112.4312713  94.9034110  39.1707752 111.2605347  81.5970161  49.0099965
 110.3427909  81.8185108  48.8521653 111.6765491  81.6716472  48.1511672
 112.0440395  82.9961577  44.1402645 112.7912214  83.5082974  43.8309767
 112.3131985  82.6745630  45.0007038 110.3167045  85.4920118  41.1229599
 109.4078265  85.2079151  41.2202069 110.3462129  85.9119196  40.2632906
 115.5486313  89.1026707  44.8920767 115.0948640  88.2617617  44.9485957
 114.9180280  89.7388106  45.2295547 114.4919232  80.0318693  46.1221434
 113.7541989  79.5196079  46.4531677 114.7446006  79.5919075  45.3104711
 113.9919252  90.9403204  45.8270585 114.2842226  91.5008261  45.1082950
 114.5017873  91.2331765  46.5823744 114.5930860  72.8094945  46.7163203
 114.8989736  71.9492309  46.4289118 115.3183464  73.4012565  46.5162197
 100.8855216  83.2125632  45.1044801 100.6879616  82.6194993  44.3795868
 100.3301880  82.9077842  45.8220740 108.8651939  83.1048738  47.2239394
 108.9200549  82.1522575  47.1481871 108.0543141  83.2608177  47.7080693
 110.0143133  87.0328861  38.4617678 109.5762563  86.3164720  38.0023315
 110.7553574  87.2604976  37.9002769 106.8044299  81.7225798  44.9829773
 105.9912165  82.0219969  45.3894965 107.3003294  81.3281487  45.7004256
 108.9552877  91.7183555  46.9164038 108.9129056  91.9444401  45.9872570
 109.8715576  91.4846930  47.0649839 112.4018511  82.1867623  53.8144667
 112.7567899  82.4139096  54.6739133 113.0490642  82.5185999  53.1921922
 118.1316248  85.3086058  44.5193996 117.9934147  85.4987654  43.5915185
 117.7752467  86.0705441  44.9762047 106.2958374  79.2944154  50.5991008
 106.9357753  79.1532913  49.9013972 105.4635905  79.0078667  50.2229610
 118.1585628  87.3762585  49.5305268 118.5922134  87.2837875  50.3788322
 118.8717208  87.3520086  48.8925284 107.0718678  88.5946584  46.7126001
 107.8659277  88.0996904  46.5108576 106.3610370  88.0664447  46.3493706
 111.8913522  90.9764680  51.0638368 111.9450545  91.5455616  51.8316084
 111.0228304  91.1466565  50.6992405 103.3801441  82.7389666  42.7885753
 102.4499030  82.6774121  43.0055716 103.4758913  82.2165618  41.9922395
 103.2986991  79.2644479  45.3763995 103.5593808  80.1789812  45.2673156
 104.1204163  78.7968921  45.5260608 104.7711916  80.6782236  52.5462820
 105.4434969  80.4699598  51.8975469 103.9441702  80.4804322  52.1068052
 119.0201177  87.4186286  52.0638153 119.2137067  88.3232097  52.3097428
 118.9201795  86.9593705  52.8976738 110.6737488  77.3044177  54.5628480
 110.0265403  78.0034126  54.4692957 111.4438503  77.7380321  54.9304729
 114.0816286  87.5693029  57.6379034 113.9301792  87.3403581  56.7209117
 114.0720965  88.5263630  57.6510379 110.8501622  85.1424942  52.6225300
 111.7793682  85.2936101  52.4494268 110.4292652  85.2308962  51.7673947
 109.6489954  89.1675606  50.3923838 109.5101040  88.7994390  51.2649776
 108.8604550  89.6823245  50.2207796 110.2438106  94.2684702  41.7349374
 110.4189862  93.7972746  42.5494997 109.5570894  94.8950469  41.9630635
 111.1995169  88.5457209  47.7812676 110.8645002  88.5057979  48.6770325
 110.6999115  87.8801925  47.3083086 105.1739413  83.9524839  53.3065257
 105.0359211  83.2205078  53.9076796 106.0844337  83.8633739  53.0249445
 114.1354361  85.8913243  38.0549735 113.5183531  85.1660071  37.9582788
 113.6670849  86.6522603  37.7116810 107.8021714  83.6644798  52.7948936
 108.5121332  83.0237990  52.7535555 107.7591022  83.9157693  53.7175117
 115.7908492  90.6012151  55.7155516 115.7321039  89.9171371  55.0486099
 116.1928011  91.3431141  55.2636142 106.5150648  80.6510016  54.6144576
 105.9788005  80.2000754  55.2666172 105.9267356  80.7855925  53.8715040
 104.8099191  97.4174065  48.5089235 105.0495789  98.0492589  49.1868253
 103.9668388  97.0662105  48.7954594 105.9252907  80.1098667  37.1771040
 105.0482373  79.9887468  36.8133286 106.4010660  79.3184746  36.9249928
 115.7925900  88.5651735  53.9469495 114.9052678  88.2277657  54.0695894
 116.3624451  87.8334767  54.1838261  97.4455047  84.8975827  47.2712547
  98.1326087  84.5837557  46.6833562  97.2903176  85.8017192  46.9979798
 102.2489769  79.7866024  51.6997570 102.1647958  79.1791693  50.9647980
 101.4272475  80.2775042  51.7007067 109.3227053  93.2253188  50.9130739
 109.2497225  94.0308159  51.4250043 108.8804446  93.4245153  50.0878760
 109.1116833  92.4624958  44.4233560 108.3284355  93.0046638  44.5171785
 109.8109578  92.9798937  44.8227801 112.4213483  78.2719587  47.0667765
 112.9182182  77.5189549  46.7468836 111.6500464  78.3083904  46.5010975
 120.2743240  83.9759953  48.7086057 120.2633117  84.8584668  48.3379990
 119.4060620  83.6231504  48.5140594 111.7825737  93.1240022  53.0688897
 112.4953709  93.7587487  52.9964799 111.2915765  93.2203888  52.2528899
 113.5043264  87.0291274  44.6406189 112.5699542  87.1492737  44.4710893
 113.6819932  86.1263741  44.3766199 109.0048452  80.4136970  46.7939450
 108.6346239  79.8608011  47.4820356 109.5007544  79.8095104  46.2414450
 116.8915815  82.8708594  45.1756223 117.3576267  83.7036585  45.1016526
 117.3423315  82.4053575  45.8801481 106.8337650  90.8734465  53.8894468
 107.5347110  91.5070948  54.0423862 106.3632765  91.2149197  53.1290107
 114.9592046  89.2152415  42.1742375 115.2351890  89.1009010  43.0836249
 114.0896545  88.8169900  42.1354548 114.8632478  75.2389181  49.2147124
 113.9495557  75.4693407  49.3829331 115.2925579  75.3227625  50.0661157
 114.6338936  83.4279073  51.7147018 113.9810386  83.6754980  51.0599471
 115.0119316  82.6143211  51.3809496 111.5946110  93.4638766  45.8175189
 111.7768505  92.6460422  46.2802941 112.4179096  93.6806458  45.3800079
 111.9288276  92.3906951  43.0790237 112.4576042  91.8799405  42.4660399
 112.1916495  92.0749481  43.9435770 110.6826509  84.1698884  58.2013055
 110.0067146  84.0693013  58.8715431 111.5054143  84.0138097  58.6649053
 102.4305368  90.4070820  50.8225571 103.0158805  89.6614508  50.9553475
 102.2330207  90.7174777  51.7062235 105.2844023  93.4422068  45.8388013
 104.6154399  93.9268195  45.3552053 105.1456893  93.6891288  46.7531392
  97.0223023  82.9776420  49.5430014  97.0607122  82.4440011  50.3367132
  96.5163316  82.4511626  48.9240991 109.4249292  95.4765811  52.4370671
 109.9767600  95.6397433  53.2019757 109.7655486  96.0670249  51.7650696
 104.4013785  77.8240961  53.0392556 104.4655112  78.6855792  52.6269954
 104.3380906  77.2114963  52.3064915 103.8766058  79.8964093  56.6865590
 104.5038097  79.5141171  57.3003115 103.0193977  79.6778295  57.0521283
 114.2760166  90.3027069  58.2919326 114.8200070  90.9157027  57.7974281
 113.6947011  90.8606647  58.8086339 100.6531601  81.7040523  42.6183945
 100.9485042  80.7951201  42.5650999  99.7519636  81.6828262  42.2964948
 112.5617679  93.4247787  49.4234354 112.4368819  92.6237526  48.9145299
 113.2196770  93.9193980  48.9348324 104.1825848  79.7796519  48.6011494
 103.4612433  80.3932487  48.4618967 104.9719103  80.3154284  48.5228140
 114.6252588  91.2256807  51.0513904 113.6782923  91.1062158  50.9792230
 114.9735361  90.3379305  51.1340165 106.9852161  77.1150946  54.8752146
 107.5086563  77.3613242  55.6378455 106.7664494  77.9470980  54.4555283
 102.3819442  79.3854620  42.7423270 102.0532148  78.5051999  42.5598376
 102.7358813  79.3302289  43.6299660 111.6299021  91.0209523  47.2518256
 111.4823983  90.0926230  47.4325826 112.4552515  91.0429614  46.7675331
 105.4961265  79.6727590  43.1098748 105.8357338  80.2013511  42.3877356
 105.9433386  80.0107996  43.8857315 115.2333143  91.8438082  48.3383129
 116.1579690  91.6380943  48.2007580 115.0648446  91.5954483  49.2472470
 108.1904706  78.0564641  52.5601816 107.8501526  77.2572454  52.9622496
 107.4843712  78.3566352  51.9878649 108.8421178  75.1413953  51.0129139
 109.6647247  74.6674431  50.8908029 109.0859241  75.9204437  51.5127825
 107.4829412  78.1702212  41.3092041 108.2037775  78.5483464  40.8055758
 106.8594717  78.8891088  41.4127019 111.6260535  78.8747361  42.2450373
 111.8424150  79.7571998  41.9439201 111.1454602  78.4833574  41.5156015
 106.3659757  81.8333074  48.8221118 106.2204337  82.1473377  49.7145399
 105.8884960  82.4517974  48.2692016 108.2256140  78.8235622  48.8702007
 108.2117708  77.9276715  48.5334305 108.9428568  78.8306286  49.5040293
 110.0782270  79.2572962  50.9155135 109.8200048  80.1790033  50.9139465
 109.5467311  78.8603397  51.6055599 115.0228459  92.3623749  43.6945220
 115.1965337  91.7970172  42.9419073 115.5157350  93.1624644  43.5124710
 100.8405419  84.3738418  51.7608779 100.2958887  85.1498226  51.8929053
 101.7184769  84.7209223  51.6027900 107.6293036  77.7050002  44.1389577
 107.7508947  76.7766648  44.3380465 107.3395078  77.7188688  43.2267893
 110.4984226  75.3904913  47.2756297 110.5205923  75.4544246  46.3208277
 110.9152285  74.5509421  47.4696803 120.8767850  85.1260172  45.3135520
 121.3198996  84.3767497  44.9154643 119.9994361  85.1170308  44.9309252
 116.0103632  91.6790514  40.7942118 116.7054536  92.2997206  41.0129433
 116.3526782  90.8285865  41.0694496 101.6271441  83.5008314  54.6538936
 100.8853177  83.6490950  55.2403566 101.3064185  83.7616580  53.7905685
 117.9095055  89.1290219  42.3229449 118.4346379  89.4677492  41.5978769
 117.8217407  88.1937234  42.1392584 109.5715103  93.0424293  54.4519326
 109.8802230  92.7973439  55.3242025 110.3690585  93.2470931  53.9638196
 109.5935715  95.1962202  46.6824702 109.1540706  94.7038581  47.3757559
 110.3443832  94.6535170  46.4416778 102.0728054  91.3873743  46.6849330
 102.8986074  91.0877515  46.3047974 101.7222106  90.6181366  47.1339119
 107.0409588  90.7400211  48.7547004 106.4189597  90.0770916  48.4549232
 107.7114454  90.7661343  48.0720652 100.2736659  89.3060070  47.6438264
  99.4368568  88.8782244  47.4622265 100.2460305  89.4992513  48.5809055
 107.1134115  79.2181999  58.3479510 107.1622271  80.0944122  57.9657280
 107.6556629  78.6759392  57.7751153 117.5988961  89.7623123  57.6280647
 116.8084504  89.7447262  57.0885147 117.3622315  90.3011416  58.3829684
 117.7186836  86.6115589  54.9413376 117.7684841  86.4465597  55.8828898
 117.6100759  85.7442848  54.5511256 106.6023094  89.2904135  42.2305465
 106.7511215  89.9739599  41.5772137 107.4089538  89.2709225  42.7454920
 115.0090598  82.5946517  56.2572682 115.9100461  82.4552982  55.9656680
 115.0838573  82.7600972  57.1970860 109.3433403  79.9713372  55.1025869
 108.4736713  80.2646938  54.8308457 109.5792884  80.5553817  55.8233132
 119.2205033  89.0312531  55.1855397 118.9289841  89.3942511  56.0218858
 118.6077164  88.3179539  55.0068729 120.4200715  86.5965410  47.7057967
 121.2547606  87.0355214  47.8695528 120.5559844  86.1204064  46.8866213
 117.4692221  84.1545145  53.6535455 117.9446342  84.3472792  52.8454307
 116.5457786  84.2104331  53.4078839 104.3575727  85.3169312  43.2366533
 104.1121769  84.4131642  43.4346744 104.5271642  85.3186463  42.2946011
 112.0472437  76.1892989  52.6191289 112.5654381  76.9254016  52.2937778
 111.6927570  76.4956982  53.4538048 103.6271375  81.0497670  40.7352695
 102.9340620  81.1242025  40.0792731 103.3823127  80.2858014  41.2574212
 112.2985031  72.6093271  48.1392186 112.5786785  71.9416460  48.7652612
 113.0835638  72.8022367  47.6266849 110.1018500  91.7852265  39.7017212
 109.5292467  92.4042452  39.2487684 110.6751294  92.3351627  40.2357134
 116.1693890  81.0310905  51.8863761 117.1211313  81.1309003  51.9075985
 115.9997340  80.2389174  52.3961845 114.1908269  78.1166489  52.0723162
 113.5958201  78.3971501  51.3769650 113.9057966  78.6060389  52.8439903
 113.3215760  92.0689415  40.8325794 114.2546433  92.0034977  41.0358670
 113.2338973  92.9045682  40.3740327 115.9503776  91.3855286  37.7929742
 115.8717408  91.0515149  38.6865500 116.7713443  91.8777054  37.7921214
 118.6481968  84.2517025  51.0006060 118.6158288  83.3133026  51.1865744
 119.2582591  84.3301062  50.2671885 110.4865298  83.1213078  37.0433264
 111.4324403  82.9919286  37.1121682 110.1079543  82.3827740  37.5202693
 118.7976456  81.0428068  51.0464344 118.2815505  80.2586525  50.8594272
 119.6816405  80.7146785  51.2110863 116.4587183  74.7869084  47.0060156
 116.2612004  74.4784172  47.8903488 117.0686889  75.5130723  47.1358086
 110.3703991  87.1730824  58.5033921 111.2907000  87.3509423  58.6973968
 110.3353574  86.2286869  58.3513621 108.6708216  81.0463054  36.9788150
 107.7639671  80.7496167  37.0550863 108.9484197  80.7492872  36.1122436
  99.5886156  82.3669418  47.4287196  99.2688940  81.5134726  47.1361570
  99.0419584  82.5817996  48.1845163 103.3666064  85.0831859  51.1456703
 103.5852073  86.0148967  51.1644736 103.7791837  84.7239833  51.9311506
 110.2870281  75.5899944  43.1332391 109.4771010  75.2447029  43.5087637
 110.9754698  75.2807488  43.7220003 112.2160830  74.6677991  44.7556688
 112.7691868  75.0873444  45.4146711 112.4530916  73.7413739  44.7979644
 108.2393929  80.6565065  60.5359452 108.1390656  81.6059421  60.4671543
 108.0215471  80.3283303  59.6635522 107.4407000  77.9049990  37.1200129
 108.3026164  78.2304888  37.3795946 107.6257344  77.1181485  36.6073195
  99.4574416  85.9872329  49.3980318  98.7637887  85.5726282  48.8850272
 100.2047407  86.0292866  48.8013737 115.5939637  76.7778516  44.2635352
 115.0138306  77.4363320  43.8813404 115.3275569  75.9555861  43.8522769
 114.0443203  76.1783574  46.4656672 114.5442981  76.2900108  45.6570991
 114.6878811  75.8744627  47.1057481 108.1025199  84.0862203  59.3524513
 107.6192281  84.8862563  59.5588402 108.1886138  84.0970148  58.3991957
 101.3711159  85.9190583  47.2746333 101.3481847  86.0178270  46.3228216
 101.6811795  86.7655734  47.5963499 104.0298536  87.9766738  51.3892947
 104.9841790  87.9450680  51.3222879 103.8311060  87.5157362  52.2043173
 104.6197919  86.5467854  53.9563745 105.4390808  87.0411933  53.9798582
 104.8934726  85.6299822  53.9281312 114.3764515  78.9378606  43.3191700
 113.4890370  79.2228257  43.1011895 114.7918504  78.7772370  42.4718977
 117.7279051  78.9625127  47.0346039 118.5039441  79.4521580  47.3070656
 117.0027185  79.3883182  47.4917909 120.1651610  79.6752747  48.0919980
 120.7596100  79.4348483  47.3813288 120.2378193  78.9559877  48.7193516
 102.3848765  93.5186358  48.4063145 102.2503233  92.7586758  47.8401143
 101.9680827  94.2427257  47.9391934 113.5207728  88.7023281  37.4139720
 114.2243578  88.9073284  38.0297376 112.7970377  89.2700043  37.6788804
 114.3505539  84.4533142  43.5341990 114.2940740  84.9101694  42.6949623
 114.9033881  83.6923827  43.3564833 118.1610344  80.2422874  44.3592110
 117.9047279  79.8419510  45.1900317 117.5363212  80.9566668  44.2342249
 122.4722682  82.9818947  46.8663401 121.9122240  83.0512137  47.6394963
 121.8666186  82.8059932  46.1462897 105.5417891  94.4155675  48.6181587
 105.4250275  95.3601107  48.5160278 104.7210337  94.1129236  49.0067387
 115.4294426  89.1405810  39.4638180 116.2640030  88.7087009  39.2815655
 115.2678769  88.9687824  40.3915075 115.0840318  85.6437924  40.8294519
 115.0289122  85.4782195  39.8882964 114.4586373  86.3513956  40.9856709
  99.8732833  80.8805988  54.6555942 100.5191696  80.3704942  55.1443167
  99.6649984  81.6174670  55.2299367 112.3986225  87.9486835  60.1548082
 113.2677385  88.1227488  59.7934717 111.9192976  88.7681252  60.0323812
 108.3936443  75.1446033  40.4079838 108.3815113  76.0887873  40.5648109
 109.2859865  74.9616178  40.1139299 106.5672405  95.0683936  51.8337516
 107.4699652  95.1007547  52.1504011 106.3409775  94.1384387  51.8483852
 108.3226007  93.8214923  48.4947595 107.3721638  93.8216785  48.3811967
 108.6258493  93.0747658  47.9783629 112.2088563  71.7388809  44.6625775
 111.4420959  71.1847296  44.8082457 112.6199268  71.8110678  45.5239926
 104.2130324  78.0273605  58.7530956 105.0761785  77.6710410  58.9634280
 103.6395734  77.6887500  59.4406360 120.8668407  99.6102889  49.4954882
 120.5286919  99.4943954  48.6075416 121.7358175  99.2094055  49.4755888
 116.7255223 101.4638366  45.4851773 116.1620088 101.3728303  44.7168060
 116.6107618 100.6438270  45.9654265 121.3488190 100.7637741  55.4541087
 121.3376831 100.3690539  54.5821591 121.5108829 100.0303814  56.0474859
 114.2719655 102.9589558  48.3235993 115.0640947 102.6180382  47.9082292
 114.5116305 103.0684533  49.2438146 116.2310409 102.2198471  41.1953372
 117.0041285 101.6727458  41.0566248 116.5835807 103.0842720  41.4067833
 118.0695451 103.5474853  54.4020271 117.7785317 104.4520484  54.2866937
 118.7052436 103.5891381  55.1164341 118.9951658 100.9251702  50.9921631
 119.5915230 100.7007724  50.2778594 119.0526630 100.1836447  51.5947079
 118.5676686  98.3791137  38.8271822 118.8202207  97.8572658  38.0655285
 117.6301245  98.2157282  38.9298505 118.2872975 100.2819243  41.0296197
 118.1709233  99.6064146  41.6977281 118.3975235  99.7951617  40.2128350
 120.6304516  99.7429390  44.7342886 120.2662723  99.2160011  45.4455807
 121.4871632  99.3527859  44.5609371 120.2710003  94.7719290  39.7304234
 120.4384405  95.6399526  40.0974705 120.0807172  94.9346571  38.8065524
 116.4797818  99.6850065  47.4306769 115.5548314  99.5526279  47.6384461
 116.7282231 100.4644285  47.9276712 120.2499224  97.2276947  40.7150901
 120.1298849  97.6733998  41.5536382 119.5551812  97.5762265  40.1564439
 113.8406629  99.3283339  48.2650558 113.9699010  99.5817818  49.1789970
 113.1604080  99.9211047  47.9455213 120.5023346  97.1708454  57.0202399
 119.7256680  97.7302374  57.0105264 121.1413909  97.6565237  57.5417270
 118.7569718  99.9793908  56.5820366 119.4984402 100.5178952  56.3055190
 118.0506704 100.6060196  56.7391918 120.5856128  97.0595655  52.5526085
 121.4317323  97.4835068  52.6960734 120.5254765  96.4029279  53.2464648
 120.1081834 102.4198647  46.1994902 120.5720180 102.6986350  45.4099524
 119.8438632 101.5182091  46.0167993 117.0005915 101.9670128  49.1374665
 117.5707272 102.3957397  48.4992150 117.5914027 101.6852713  49.8358851
 119.0450720  98.5421799  43.0084467 119.7474764  98.9942843  43.4758393
 118.7131349  97.9005618  43.6364360 117.4931082  97.1333556  57.3835676
 116.8629742  97.8149837  57.6171073 117.3867170  97.0216637  56.4388815
 112.7876054  96.8005352  48.3101601 111.9975108  97.0562880  47.8341711
 113.2787302  97.6153690  48.4153641 114.7390800  97.1649931  45.2685077
 113.9421963  97.2768625  45.7868573 114.5116392  97.5036583  44.4025968
 120.5696467 103.6894634  53.2167592 120.6340900 104.1515042  54.0525764
 119.8607391 103.0591999  53.3449902 111.0713757  97.0535842  50.7416591
 111.3221796  97.9382852  51.0074167 111.6073306  96.8740444  49.9691683
 120.2844485 105.3562742  43.0846572 120.1490160 106.2014278  43.5131420
 120.8254297 105.5582019  42.3212506 116.7711825  91.4354322  59.7460927
 116.3778770  90.8820520  60.4208572 117.5877965  91.7464900  60.1367445
 113.7373882 102.8738180  43.6574497 114.2498403 103.6681430  43.8080062
 114.3896595 102.1764470  43.5908099 115.5468767 105.9903936  45.7397250
 115.7235395 106.9121901  45.5518234 116.3425601 105.6762355  46.1691630
 119.6879786  92.8512201  57.3381184 120.4289499  93.4519354  57.2585646
 119.9197708  92.1089839  56.7799227 114.8321124  98.0368568  55.6159414
 114.7174639  97.1353825  55.9166513 113.9765641  98.2832265  55.2644230
 116.6700083 107.5082110  51.7407593 117.2207508 107.3799173  50.9684587
 115.8311558 107.8076999  51.3902486 120.4667254 103.7733238  56.0851824
 120.9995590 103.0121526  55.8551132 119.9381335 103.4806890  56.8275978
 111.7022799 101.2026834  44.4334068 112.5398021 101.6123843  44.2167776
 111.8801067 100.2626276  44.4034262 121.1834342  93.7151616  45.1803139
 120.3275939  93.3258466  45.0008778 121.5961294  93.7943576  44.3202925
 118.9576375  91.3336689  48.5860881 119.8229372  91.1379497  48.2266770
 119.0253884  91.1047040  49.5130237 121.8319966 102.9019230  43.5970636
 121.3041328 102.1671990  43.2843873 121.3307469 103.6793907  43.3510604
 116.5638694  93.5638897  45.9577247 117.1382446  93.3414078  45.2250440
 117.1509676  93.6327591  46.7105849 116.8908281  95.5943358  39.9773133
 116.0545593  95.9318044  40.2982407 116.7513051  95.4592337  39.0400270
 118.8661362  90.4380145  44.6852317 118.2125774  90.1229163  44.0608932
 118.8241836  89.8155886  45.4112140 119.9772566 100.7199441  36.6005609
 119.0699628 100.4888694  36.7996758 120.4743598  99.9237060  36.7879591
 121.1560800 100.8212035  41.1229599 120.2472019 100.5371068  41.2202069
 121.1855884 101.2411114  40.2632906 111.7248970  98.5417549  45.1044801
 111.5273370  97.9486910  44.3795868 111.1695634  98.2369760  45.8220740
 119.7045694  98.4340656  47.2239394 119.7594304  97.4814492  47.1481871
 118.8936896  98.5900095  47.7080693 120.8536888 102.3620779  38.4617678
 120.4156318 101.6456638  38.0023315 121.5947329 102.5896894  37.9002769
 117.6438054  97.0517716  44.9829773 116.8305919  97.3511886  45.3894965
 118.1397048  96.6573404  45.7004256 117.1352129  94.6236071  50.5991008
 117.7751508  94.4824830  49.9013972 116.3029659  94.3370585  50.2229610
 117.9112432 103.9238502  46.7126001 118.7053031 103.4288822  46.5108576
 117.2004125 103.3956365  46.3493706 114.2195196  98.0681583  42.7885753
 113.2892784  98.0066039  43.0055716 114.3152668  97.5457536  41.9922395
 114.1380745  94.5936396  45.3763995 114.3987562  95.5081729  45.2673156
 114.9597917  94.1260839  45.5260608 115.6105670  96.0074153  52.5462820
 116.2828724  95.7991516  51.8975469 114.7835457  95.8096239  52.1068052
 121.5131242  92.6336094  54.5628480 120.8659157  93.3326044  54.4692957
 122.2832258  93.0672238  54.9304729 120.4883708 104.4967524  50.3923838
 120.3494794 104.1286308  51.2649776 119.6998305 105.0115163  50.2207796
 122.0388924 103.8749126  47.7812676 121.7038756 103.8349896  48.6770325
 121.5392869 103.2093842  47.3083086 116.0133168  99.2816756  53.3065257
 115.8752966  98.5496995  53.9076796 116.9238091  99.1925656  53.0249445
 118.6415468  98.9936716  52.7948936 119.3515087  98.3529908  52.7535555
 118.5984776  99.2449611  53.7175117 117.3544402  95.9801934  54.6144576
 116.8181759  95.5292672  55.2666172 116.7661111  96.1147842  53.8715040
 116.7646661  95.4390585  37.1771040 115.8876128  95.3179386  36.8133286
 117.2404414  94.6476663  36.9249928 108.2848801 100.2267745  47.2712547
 108.9719841  99.9129475  46.6833562 108.1296930 101.1309109  46.9979798
 113.0883523  95.1157941  51.6997570 113.0041712  94.5083611  50.9647980
 112.2666230  95.6066960  51.7007067 119.8442206  95.7428888  46.7939450
 119.4739994  95.1899928  47.4820356 120.3401299  95.1387021  46.2414450
 117.6731405 106.2026383  53.8894468 118.3740864 106.8362866  54.0423862
 117.2026520 106.5441114  53.1290107 121.5220264  99.4990801  58.2013055
 120.8460901  99.3984931  58.8715431 122.3447898  99.3430015  58.6649053
 113.2699123 105.7362738  50.8225571 113.8552560 104.9906426  50.9553475
 113.0723961 106.0466695  51.7062235 116.1237778 108.7713985  45.8388013
 115.4548153 109.2560113  45.3552053 115.9850648 109.0183206  46.7531392
 107.8616777  98.3068338  49.5430014 107.9000877  97.7731929  50.3367132
 107.3557070  97.7803544  48.9240991 115.2407540  93.1532879  53.0392556
 115.3048866  94.0147709  52.6269954 115.1774660  92.5406880  52.3064915
 114.7159812  95.2256011  56.6865590 115.3431851  94.8433088  57.3003115
 113.8587731  95.0070213  57.0521283 111.4925355  97.0332440  42.6183945
 111.7878796  96.1243119  42.5650999 110.5913391  97.0120180  42.2964948
 115.0219602  95.1088437  48.6011494 114.3006188  95.7224405  48.4618967
 115.8112858  95.6446202  48.5228140 117.8245916  92.4442863  54.8752146
 118.3480317  92.6905160  55.6378455 117.6058249  93.2762898  54.4555283
 113.2213197  94.7146538  42.7423270 112.8925903  93.8343917  42.5598376
 113.5752567  94.6594207  43.6299660 116.3355020  95.0019508  43.1098748
 116.6751092  95.5305429  42.3877356 116.7827140  95.3399914  43.8857315
 119.0298461  93.3856558  52.5601816 118.6895281  92.5864371  52.9622496
 118.3237467  93.6858269  51.9878649 119.6814932  90.4705871  51.0129139
 120.5041002  89.9966349  50.8908029 119.9252996  91.2496355  51.5127825
 118.3223167  93.4994129  41.3092041 119.0431529  93.8775382  40.8055758
 117.6988471  94.2183006  41.4127019 117.2053511  97.1624991  48.8221118
 117.0598092  97.4765295  49.7145399 116.7278715  97.7809892  48.2692016
 119.0649894  94.1527539  48.8702007 119.0511463  93.2568633  48.5334305
 119.7822322  94.1598203  49.5040293 120.9176025  94.5864880  50.9155135
 120.6593803  95.5081950  50.9139465 120.3861065  94.1895314  51.6055599
 111.6799173  99.7030336  51.7608779 111.1352641 100.4790144  51.8929053
 112.5578523 100.0501140  51.6027900 118.4686790  93.0341920  44.1389577
 118.5902701  92.1058566  44.3380465 118.1788832  93.0480606  43.2267893
 121.3377980  90.7196830  47.2756297 121.3599677  90.7836163  46.3208277
 121.7546039  89.8801339  47.4696803 112.4665195  98.8300232  54.6538936
 111.7246931  98.9782867  55.2403566 112.1457939  99.0908498  53.7905685
 112.9121809 106.7165661  46.6849330 113.7379829 106.4169433  46.3047974
 112.5615861 105.9473283  47.1339119 117.8803342 106.0692129  48.7547004
 117.2583351 105.4062834  48.4549232 118.5508209 106.0953261  48.0720652
 111.1130414 104.6351987  47.6438264 110.2762322 104.2074162  47.4622265
 111.0854059 104.8284431  48.5809055 117.9527870  94.5473917  58.3479510
 118.0016025  95.4236040  57.9657280 118.4950384  94.0051310  57.7751153
 117.4416849 104.6196052  42.2305465 117.5904969 105.3031517  41.5772137
 118.2483292 104.6001142  42.7454920 120.1827158  95.3005290  55.1025869
 119.3130467  95.5938856  54.8308457 120.4186638  95.8845735  55.8233132
 115.1969482 100.6461230  43.2366533 114.9515524  99.7423560  43.4346744
 115.3665396 100.6478381  42.2946011 114.4665129  96.3789588  40.7352695
 113.7734374  96.4533943  40.0792731 114.2216881  95.6149931  41.2574212
 121.3259053  98.4504996  37.0433264 122.2718158  98.3211204  37.1121682
 120.9473298  97.7119658  37.5202693 121.2097746 102.5022742  58.5033921
 122.1300755 102.6801341  58.6973968 121.1747329 101.5578787  58.3513621
 119.5101970  96.3754972  36.9788150 118.6033426  96.0788085  37.0550863
 119.7877951  96.0784790  36.1122436 110.4279911  97.6961335  47.4287196
 110.1082695  96.8426644  47.1361570 109.8813339  97.9109914  48.1845163
 114.2059818 100.4123776  51.1456703 114.4245828 101.3440884  51.1644736
 114.6185592 100.0531751  51.9311506 121.1264036  90.9191862  43.1332391
 120.3164764  90.5738947  43.5087637 121.8148453  90.6099405  43.7220003
 119.0787683  95.9856982  60.5359452 118.9784410  96.9351339  60.4671543
 118.8609225  95.6575221  59.6635522 118.2800755  93.2341907  37.1200129
 119.1419919  93.5596806  37.3795946 118.4651099  92.4473403  36.6073195
 110.2968171 101.3164247  49.3980318 109.6031642 100.9018200  48.8850272
 111.0441162 101.3584783  48.8013737 118.9418953  99.4154121  59.3524513
 118.4586035 100.2154481  59.5588402 119.0279892  99.4262066  58.3991957
 112.2104913 101.2482501  47.2746333 112.1875601 101.3470188  46.3228216
 112.5205550 102.0947651  47.5963499 114.8692291 103.3058656  51.3892947
 115.8235544 103.2742598  51.3222879 114.6704815 102.8449279  52.2043173
 115.4591673 101.8759772  53.9563745 116.2784562 102.3703850  53.9798582
 115.7328481 100.9591740  53.9281312 113.2242520 108.8478275  48.4063145
 113.0896988 108.0878676  47.8401143 112.8074582 109.5719175  47.9391934
 110.7126587  96.2097906  54.6555942 111.3585451  95.6996860  55.1443167
 110.5043738  96.9466587  55.2299367 119.2330198  90.4737950  40.4079838
 119.2208868  91.4179790  40.5648109 120.1253620  90.2908096  40.1139299
 115.0524078  93.3565523  58.7530956 115.9155540  93.0002328  58.9634280
 114.4789489  93.0179418  59.4406360  52.9743590  -4.9708795  31.0886339
  52.8967620  -4.0200969  31.1674820  52.3705234  -5.3162922  31.7461265
  50.6130420  -2.2223401  35.2334541  50.8527018  -1.5904876  35.9113560
  49.7699617  -2.5735361  35.5199900  51.0875252  -6.1975398  32.5633320
  50.4185628  -5.7129271  32.0797360  50.9488122  -5.9506178  33.4776698
  55.2280521  -4.1631655  39.1615978  55.7798829  -4.0000033  39.9265063
  55.5686714  -3.5727217  38.4896003  55.3966944  -4.4435263  33.4070009
  54.9571935  -4.9358885  34.1002866  56.1475061  -4.9862296  33.1662084
  48.1879994  -6.1211108  35.1308451  48.0534462  -6.8810707  34.5646450
  47.7712056  -5.3970208  34.6637240  51.3449120  -5.2241791  35.3426894
  51.2281504  -4.2796359  35.2405584  50.5241566  -5.5268230  35.7312693
  52.3703634  -4.5713529  38.5582823  53.2730881  -4.5389919  38.8749317
  52.1441004  -5.5013078  38.5729158  66.6699636  -0.0294576  36.2200188
  66.3318147  -0.1453512  35.3320723  67.5389404  -0.4303411  36.2001194
  62.5286452   1.8240900  32.2097079  61.9651317   1.7330837  31.4413367
  62.4138847   1.0040805  32.6899572  67.1519419   1.1240275  42.1786394
  67.1408060   0.7293074  41.3066897  67.3140058   0.3906348  42.7720165
  60.0750883   3.3192092  35.0481300  60.8672175   2.9782916  34.6327599
  60.3147534   3.4287067  35.9683453  68.1086010   5.4911868  27.5211544
  67.4573990   6.0765948  27.1345558  68.9030373   6.0218063  27.5806582
  62.0341637   2.5801005  27.9198678  62.8072513   2.0329992  27.7811554
  62.3867036   3.4445254  28.1313140  63.8726680   3.9077387  41.1265578
  63.5816546   4.8123018  41.0112244  64.5083664   3.9493915  41.8409647
  64.7982887   1.2854236  37.7166937  65.3946459   1.0610258  37.0023900
  64.8557858   0.5438981  38.3192385  64.3707915  -1.2606329  25.5517128
  64.6233436  -1.7824808  24.7900591  63.4332474  -1.4240183  25.6543812
  69.5861275   3.1802300  28.0580528  68.9507108   3.2536926  28.7701433
  69.2558682   3.7695899  27.3799608  64.0904204   0.6421777  27.7541503
  63.9740462  -0.0333320  28.4222588  64.2006464   0.1554151  26.9373656
  66.4335745   0.1031924  31.4588193  66.0693952  -0.4237455  32.1701114
  67.2902861  -0.2869607  31.2854678  68.8316565   3.5938803  38.1215371
  68.5317288   4.4963842  38.0131179  68.4867625   3.3270986  38.9736524
  62.2829047   0.0452600  34.1552076  61.3579543  -0.0871186  34.3629768
  62.5313460   0.8246819  34.6522018  59.6437858  -0.3114127  34.9895865
  59.7730239  -0.0579648  35.9035277  58.9635309   0.2813581  34.6700520
  63.8137345  10.3583123  31.0886339  63.7361375  11.3090948  31.1674820
  63.2098988  10.0128996  31.7461265  64.5600947   0.3396442  43.3065673
  65.3015631   0.8781486  43.0300497  63.8537932   0.9662731  43.4637225
  70.0356287   2.4825582  41.9037835  70.4439643   2.0407993  41.1592467
  69.3133548   1.9078210  42.1572027  70.3585101   3.0426773  35.6590123
  69.7293964   3.2072487  34.9566191  69.9710763   3.4568383  36.4301087
  74.2374333   3.9781211  33.0134487  73.5525371   4.3580112  32.4631520
  74.3218182   4.5876537  33.7466435  71.4925265   1.6241170  39.6129831
  71.7042160   2.2672930  38.9364212  71.4455013   0.7903486  39.1451761
  65.9113063   2.7801181  32.9240209  66.3751409   3.0588884  32.1344831
  65.6469861   1.8784626  32.7413299  62.8037144   2.3272663  35.8619972
  63.3738501   2.7559931  35.2237456  63.3945256   2.0455247  36.5604157
  64.8481949  -1.0975667  29.7329774  65.5505992  -0.6454623  30.2003700
  64.5162578  -1.7391848  30.3609667  63.2962311  -2.5063910  44.1080983
  62.6660971  -1.8247629  44.3416380  63.1898399  -2.6180828  43.1634121
  58.5907283  -2.8392114  35.0346907  57.8006337  -2.5834585  34.5587018
  59.0818530  -2.0243776  35.1398948  72.6071093   4.5013125  37.7852188
  73.4288536   4.0993313  37.5034870  72.6033496   4.3981359  38.7368304
  60.5422028  -2.4747535  31.9930384  59.7453192  -2.3628840  32.5113880
  60.3147621  -2.1360882  31.1271274  66.3727696   4.0497169  39.9412899
  66.4372129   4.5117576  40.7771070  65.6638620   3.4194533  40.0695208
  56.8744986  -2.5861623  37.4661898  57.1253024  -1.7014614  37.7319474
  57.4104534  -2.7657022  36.6936990  66.0875714   5.7165276  29.8091879
  65.9521389   6.5616812  30.2376727  66.6285526   5.9184554  29.0457813
  59.5405111   3.2340714  30.3819804  60.0529632   4.0283964  30.5325369
  60.1927824   2.5367005  30.3153405  61.3499996   6.3506470  32.4642557
  61.5266624   7.2724435  32.2763541  62.1456829   6.0364890  32.8936937
  60.6352352  -1.6028898  42.3404720  60.5205868  -2.5043641  42.6411819
  59.7796870  -1.3565201  41.9889537  67.7144190   6.3388843  43.9392221
  67.2708044   5.5525221  43.6213125  68.3761404   6.5267993  43.2736112
  62.4731311   7.8684644  38.4652899  63.0238736   7.7401708  37.6929893
  61.6342787   8.1679533  38.1147792  69.8125428   6.6191642  41.9673622
  69.7943904   7.4400524  41.4753891  70.7345348   6.4945718  42.1923763
  66.2698482   4.1335772  42.8097131  66.8026819   3.3724060  42.5796439
  65.7412563   3.8409424  43.5521285  57.5054028   1.5629368  31.1579374
  58.3429250   1.9726377  30.9413082  57.6832296   0.6228811  31.1279568
  74.3752734   1.9836804  28.7816381  73.5982177   1.6447963  28.3371543
  75.0544215   1.9889427  28.1071346  67.6351195   3.2621764  30.3215943
  67.1072557   2.5274524  30.0089180  67.1338698   4.0396441  30.0755911
  72.6144041   1.4570785  35.4382989  71.9567716   2.1470046  35.5263118
  73.4184440   1.8467217  35.7816975  65.7803795   1.0801975  23.3250916
  64.8730857   0.8491228  23.5242065  66.2774827   0.2839594  23.5124897
  68.6871874   9.7899482  26.2447602  68.0133573  10.0931179  26.8532560
  69.0737696  10.5928562  25.8953059  66.9592029   1.1814570  27.8474906
  66.0503248   0.8973602  27.9447375  66.9887112   1.6013648  26.9878213
  72.1911296   4.7921159  31.6166073  71.7373623   3.9512069  31.6731264
  71.5605263   5.4282557  31.9540853  70.6344235   6.6297656  32.5515891
  70.9267210   7.1902713  31.8328257  71.1442856   6.9226217  33.3069051
  57.5280199  -1.0979916  31.8290108  57.3304599  -1.6910556  31.1041175
  56.9726863  -1.4027706  32.5466047  66.6568116   2.7223313  25.1862984
  66.2187546   2.0059172  24.7268622  67.3978557   2.9499428  24.6248076
  65.5977861   7.4078007  33.6409345  65.5554039   7.6338853  32.7117877
  66.5140559   7.1741381  33.7895146  74.8010611   3.0657037  36.2550574
  75.2347118   2.9732326  37.1033628  75.5142192   3.0414538  35.6170590
  63.7143661   4.2841036  33.4371307  64.5084260   3.7891356  33.2353882
  63.0035354   3.7558899  33.0739013  68.5338506   6.6659131  37.7883675
  68.5875528   7.2350068  38.5561391  67.6653287   6.8361016  37.4237712
  60.0226425  -1.5715882  29.5131060  59.0924013  -1.6331427  29.7301022
  60.1183897  -2.0939930  28.7167701  75.6626160   3.1080738  38.7883460
  75.8562051   4.0126548  39.0342735  75.5626779   2.6488157  39.6222045
  70.7241269   3.2587481  44.3624340  70.5726776   3.0298032  43.4454424
  70.7145949   4.2158082  44.3755685  67.4926606   0.8319393  39.3470607
  68.4218666   0.9830553  39.1739574  67.0717636   0.9203414  38.4919253
  66.2914937   4.8570058  37.1169144  66.1526023   4.4888842  37.9895083
  65.5029534   5.3717697  36.9453102  66.8863089   9.9579154  28.4594681
  67.0614845   9.4867198  29.2740304  66.1995877  10.5844921  28.6875942
  67.8420152   4.2351661  34.5057982  67.5069985   4.1952431  35.4015632
  67.3424098   3.5696376  34.0328392  61.8164396  -0.3580709  40.0310563
  61.6784194  -1.0900471  40.6322102  62.7269320  -0.4471809  39.7494751
  70.7779344   1.5807695  24.7795042  70.1608515   0.8554523  24.6828095
  70.3095833   2.3417055  24.4362116  64.4446697  -0.6460750  39.5194243
  65.1546316  -1.2867558  39.4780861  64.4016005  -0.3947855  40.4420424
  72.4333476   6.2906603  42.4400822  72.3746022   5.6065823  41.7731405
  72.8352994   7.0325593  41.9881448  61.4524175  13.1068517  35.2334541
  61.6920773  13.7387041  35.9113560  60.6093371  12.7556557  35.5199900
  72.4350883   4.2546187  40.6714802  71.5477662   3.9172109  40.7941201
  73.0049434   3.5229218  40.9083567  54.0880030   0.5870279  33.9957853
  54.7751070   0.2732009  33.4078869  53.9328159   1.4911644  33.7225105
  65.9652036   8.9147640  37.6376045  65.8922208   9.7202611  38.1495350
  65.5229430   9.1139605  36.8124067  65.7541816   8.1519410  31.1478867
  64.9709338   8.6941090  31.2417091  66.4534561   8.6693389  31.5473108
  68.4250720   8.8134474  39.7934204  69.1378692   9.4481938  39.7210105
  67.9340749   8.9098340  38.9774206  70.1468247   2.7185726  31.3651495
  69.2124526   2.8387189  31.1956200  70.3244915   1.8158193  31.1011505
  63.4762633   6.5628917  40.6139775  64.1772093   7.1965400  40.7669169
  63.0057748   6.9043649  39.8535414  71.6017029   4.9046867  28.8987682
  71.8776873   4.7903461  29.8081556  70.7321528   4.5064352  28.8599855
  68.2371093   9.1533218  32.5420495  68.4193488   8.3354874  33.0048248
  69.0604079   9.3700910  32.1045385  68.5713259   8.0801403  29.8035544
  69.1001025   7.5693857  29.1905706  68.8341478   7.7643933  30.6681077
  67.3251492  -0.1406664  44.9258362  66.6492129  -0.2412535  45.5960737
  68.1479126  -0.2967451  45.3894359  59.0730352   6.0965272  37.5470877
  59.6583788   5.3508960  37.6798781  58.8755190   6.4069229  38.4307541
  61.9269007   9.1316519  32.5633320  61.2579382   9.6162647  32.0797360
  61.7881876   9.3785740  33.4776698  53.6648006  -1.3329128  36.2675320
  53.7032106  -1.8665537  37.0612439  53.1588299  -1.8593922  35.6486298
  66.0674275  11.1660263  39.1615978  66.6192583  11.3291884  39.9265063
  66.4080469  11.7564701  38.4896003  70.9185150   5.9921521  45.0164632
  71.4625054   6.6051479  44.5219587  70.3371995   6.5501099  45.5331645
  57.2956584  -2.6065026  29.3429252  57.5910025  -3.5154347  29.2896306
  56.3944620  -2.6277286  29.0210254  69.2042663   9.1142239  36.1479660
  69.0793802   8.3131978  35.6390606  69.8621754   9.6088432  35.6593630
  71.2677571   6.9151259  37.7759210  70.3207907   6.7956610  37.7037537
  71.6160344   6.0273757  37.8585472  68.2724004   6.7103975  33.9763563
  68.1248967   5.7820682  34.1571133  69.0977498   6.7324066  33.4920638
  71.8758126   7.5332534  35.0628435  72.8004674   7.3275395  34.9252886
  71.7073430   7.2848935  35.9717777  63.0084740  -2.4772474  35.5466424
  62.8629321  -2.1632171  36.4390706  62.5309944  -1.8587574  34.9937323
  71.6653442   8.0518201  30.4190527  71.8390320   7.4864623  29.6664379
  72.1582334   8.8519096  30.2370017  57.4830402   0.0632870  38.4854086
  56.9383870   0.8392678  38.6174360  58.3609752   0.4103675  38.3273207
  72.6528615   7.3684965  27.5187425  73.3479519   7.9891658  27.7374740
  72.9951765   6.5180317  27.7939803  58.2696424  -0.8097234  41.3784242
  57.5278160  -0.6614598  41.9648873  57.9489168  -0.5488968  40.5150992
  74.5520038   4.8184671  29.0474756  75.0771362   5.1571944  28.3224076
  74.4642391   3.8831686  28.8637890  66.2140087   8.7318745  41.1764632
  66.5227213   8.4867891  42.0487332  67.0115569   8.9365383  40.6883503
  66.2360699  10.8856654  33.4070009  65.7965689  10.3933033  34.1002866
  66.9868816  10.3429622  33.1662084  58.7153038   7.0768195  33.4094637
  59.5411058   6.7771967  33.0293281  58.3647090   6.3075818  33.8584426
  63.6834571   6.4294663  35.4792311  63.0614580   5.7665368  35.1794538
  64.3539438   6.4555795  34.7965958  56.9161643   4.9954522  34.3683571
  56.0793551   4.5676696  34.1867572  56.8885288   5.1886965  35.3054362
  74.2413944   5.4517575  44.3525954  73.4509488   5.4341713  43.8130453
  74.0047299   5.9905868  45.1074990  74.3611819   2.3010041  41.6658682
  74.4109824   2.1360048  42.6074205  74.2525742   1.4337300  41.2756563
  63.2448078   4.9798587  28.9550771  63.3936198   5.6634051  28.3017444
  64.0514521   4.9603677  29.4700227  75.8630016   4.7206982  41.9100704
  75.5714824   5.0836963  42.7464165  75.2502147   4.0073991  41.7314036
  61.0000711   1.0063764  29.9611840  60.7546753   0.1026094  30.1592050
  61.1696625   1.0080915  29.0191318  66.7443483   7.4746717  26.4262519
  66.1717450   8.0936904  25.9732990  67.3176277   8.0246079  26.9602441
  69.9640743   7.7583867  27.5571101  70.8971416   7.6929429  27.7603976
  69.8763956   8.5940134  27.0985634  72.5928760   7.0749738  24.5175048
  72.5142391   6.7409601  25.4110806  73.4138427   7.5671505  24.5166521
  67.0128974   2.8625276  45.2279228  67.9331984   3.0403875  45.4219275
  66.9778557   1.9181321  45.0758927  56.2311139  -1.9436130  34.1532503
  55.9113924  -2.7970822  33.8606877  55.6844568  -1.7287552  34.9090470
  60.0091047   0.7726311  37.8702009  60.2277057   1.7043418  37.8890043
  60.4216821   0.4134285  38.6556813  56.0999399   1.6766781  36.1225624
  55.4062871   1.2620734  35.6095579  56.8472390   1.7187318  35.5259043
  64.7450182  -0.2243345  46.0769820  64.2617264   0.5757015  46.2833709
  64.8311121  -0.2135400  45.1237264  58.0136142   1.6085035  33.9991639
  57.9906830   1.7072722  33.0473522  58.3236778   2.4550186  34.3208805
  60.6723520   3.6661190  38.1138254  61.6266773   3.6345132  38.0468185
  60.4736043   3.2051814  38.9288480  61.2622902   2.2362306  40.6809051
  62.0815791   2.7306385  40.7043889  61.5359710   1.3194274  40.6526619
  59.0273749   9.2080809  35.1308451  58.8928216   8.4481210  34.5646450
  58.6105811   9.9321709  34.6637240  70.1632712   4.3917733  24.1385027
  70.8668562   4.5967735  24.7542682  69.4395360   4.9594495  24.4034110
  62.1842874  10.1050126  35.3426894  62.0675259  11.0495559  35.2405584
  61.3635321   9.8023688  35.7312693  72.0719409   4.8300262  26.1883487
  72.9065013   4.3981461  26.0060962  71.9103752   4.6582276  27.1160381
  71.7265301   1.3332375  27.5539826  71.6714105   1.1676647  26.6128270
  71.1011356   2.0408408  27.7102016  56.5157816  -3.4299560  41.3801248
  57.1616680  -3.9400606  41.8688473  56.3074967  -2.6930879  41.9544674
  69.0411208   3.6381287  46.8793389  69.9102368   3.8121940  46.5180024
  68.5617960   4.4575704  46.7569118  63.2097389  10.7578388  38.5582823
  64.1124635  10.7901999  38.8749317  62.9834759   9.8278839  38.5729158
  64.9650991   9.5109375  35.2192901  64.0146622   9.5111236  35.1057273
  65.2683477   8.7642109  34.7028936  80.7003684  15.3469913  36.2838664
  81.3382094  15.2276661  35.5802004  80.5824527  16.2950757  36.3426616
  77.5093390  15.2997341  36.2200188  77.1711902  15.1838406  35.3320723
  78.3783159  14.8988506  36.2001194  73.3680206  17.1532818  32.2097079
  72.8045071  17.0622755  31.4413367  73.2532601  16.3332722  32.6899572
  77.9913173  16.4532193  42.1786394  77.9801814  16.0584991  41.3066897
  78.1533813  15.7198266  42.7720165  70.9144638  18.6484009  35.0481300
  71.7065930  18.3074834  34.6327599  71.1541288  18.7578984  35.9683453
  78.9479765  20.8203785  27.5211544  78.2967744  21.4057866  27.1345558
  79.7424128  21.3509980  27.5806582  72.8735392  17.9092923  27.9198678
  73.6466268  17.3621910  27.7811554  73.2260791  18.7737172  28.1313140
  74.7120434  19.2369305  41.1265578  74.4210300  20.1414936  41.0112244
  75.3477419  19.2785833  41.8409647  75.6376641  16.6146153  37.7166937
  76.2340214  16.3902176  37.0023900  75.6951613  15.8730899  38.3192385
  75.2101670  14.0685589  25.5517128  75.4627190  13.5467110  24.7900591
  74.2726229  13.9051734  25.6543812  80.2544953  13.0721367  33.3591872
  81.0408042  12.6540790  33.0082289  80.5183657  13.9767459  33.5273520
  80.4255030  18.5094217  28.0580528  79.7900863  18.5828844  28.7701433
  80.0952436  19.0987816  27.3799608  85.6553380  13.0096600  34.2624850
  86.3878552  12.4395817  34.4962680  84.8992735  12.6218201  34.7031356
  74.9297958  15.9713695  27.7541503  74.8134217  15.2958598  28.4222588
  75.0400218  15.4846069  26.9373656  77.2729499  15.4323842  31.4588193
  76.9087707  14.9054463  32.1701114  78.1296615  15.0422311  31.2854678
  83.1778800   6.7218174  38.7219459  82.8462125   7.5913585  38.4980674
  82.5824413   6.4054458  39.4013489  76.9134986  10.4613742  26.4549541
  77.0809389  11.3293978  26.8220012  76.7232155  10.6241023  25.5310830
  79.6710320  18.9230720  38.1215371  79.3711043  19.8255759  38.0131179
  79.3261379  18.6562904  38.9736524  73.1222801  15.3744517  34.1552076
  72.1973297  15.2420731  34.3629768  73.3707214  16.1538737  34.6522018
  83.0707463  11.4413261  35.8012809  82.1624341  11.3728669  35.5071570
  83.0195059  11.9185206  36.6294634  76.8924207  12.9171399  27.4396208
  76.7723832  13.3628450  28.2781688  76.1976796  13.2656717  26.8809746
  70.4831612  15.0177791  34.9895865  70.6123993  15.2712270  35.9035277
  69.8029063  15.6105499  34.6700520  74.6531099  25.6875041  31.0886339
  74.5755129  26.6382866  31.1674820  74.0492743  25.3420913  31.7461265
  77.1448329  12.8602906  43.7447706  76.3681663  13.4196826  43.7350571
  77.7838892  13.3459689  44.2662576  84.9369110   9.6429699  37.5790683
  84.2943490   9.9362232  36.9330477  84.4324038   9.5282619  38.3843879
  82.5909273  13.3892872  28.2676542  83.5027129  13.6220259  28.0924239
  82.0818920  13.9729916  27.7051621  75.3994701  15.6688360  43.3065673
  76.1409386  16.2073404  43.0300497  74.6931687  16.2954648  43.4637225
  80.8750041  17.8117500  41.9037835  81.2833397  17.3699911  41.1592467
  80.1527303  17.2370128  42.1572027  77.2281111  12.7490107  39.2771391
  78.0742306  13.1729520  39.4206040  77.1679749  12.0923731  39.9709955
  81.1978856  18.3718691  35.6590123  80.5687718  18.5364405  34.9566191
  80.8104518  18.7860300  36.4301087  85.0768088  19.3073129  33.0134487
  84.3919126  19.6872030  32.4631520  85.1611937  19.9168455  33.7466435
  80.3780556  10.4094475  40.9352565  80.1341488  11.1636536  40.3986841
  80.6540487  10.7879823  41.7699812  82.3319019  16.9533088  39.6129831
  82.5435914  17.5964847  38.9364212  82.2848767  16.1195404  39.1451761
  79.9345248   9.5650908  36.5166403  79.0729727   9.8632162  36.8083140
  79.9607683   9.7821307  35.5847435  76.7506818  18.1093099  32.9240209
  77.2145163  18.3880802  32.1344831  76.4863616  17.2076543  32.7413299
  73.6430899  17.6564580  35.8619972  74.2132256  18.0851849  35.2237456
  74.2339010  17.3747165  36.5604157  75.6875704  14.2316251  29.7329774
  76.3899747  14.6837295  30.2003700  75.3556332  13.5900070  30.3609667
  74.1356065  12.8228008  44.1080983  73.5054726  13.5044289  44.3416380
  74.0292153  12.7111089  43.1634121  69.4301038  12.4899804  35.0346907
  68.6400092  12.7457332  34.5587018  69.9212285  13.3048142  35.1398948
  83.4464847  19.8305043  37.7852188  84.2682291  19.4285230  37.5034870
  83.4427250  19.7273277  38.7368304  71.3815783  12.8544383  31.9930384
  70.5846946  12.9663077  32.5113880  71.1541375  13.1931035  31.1271274
  77.2121451  19.3789086  39.9412899  77.2765883  19.8409493  40.7771070
  76.5032374  18.7486451  40.0695208  67.7138741  12.7430294  37.4661898
  67.9646779  13.6277304  37.7319474  68.2498289  12.5634896  36.6936990
  91.5370840  16.1743791  34.1337160  90.7834549  15.6051190  33.9781164
  91.6718381  16.1406456  35.0807794  76.9269468  21.0457194  29.8091879
  76.7915143  21.8908729  30.2376727  77.4679281  21.2476471  29.0457813
  73.4136808   7.1248774  46.4706234  73.0203753   6.5714972  47.1453878
  74.2302948   7.4359352  46.8612752  70.3798866  18.5632632  30.3819804
  70.8923386  19.3575882  30.5325369  71.0321578  17.8658922  30.3153405
  72.1893750  21.6798388  32.4642557  72.3660379  22.6016353  32.2763541
  72.9850584  21.3656807  32.8936937  76.3304769   8.5406653  44.0626491
  77.0714482   9.1413806  43.9830953  76.5622692   7.7984290  43.5044533
  71.4746107  13.7263020  42.3404720  71.3599622  12.8248277  42.6411819
  70.6190625  13.9726717  41.9889537  78.5537945  21.6680760  43.9392221
  78.1101799  20.8817139  43.6213125  79.2155158  21.8559911  43.2736112
  73.3125066  23.1976562  38.4652899  73.8632491  23.0693625  37.6929893
  72.4736542  23.4971451  38.1147792  80.6519183  21.9483560  41.9673622
  80.6337658  22.7692441  41.4753891  81.5739103  21.8237635  42.1923763
  77.1092237  19.4627690  42.8097131  77.6420574  18.7015978  42.5796439
  76.5806318  19.1701341  43.5521285  80.2761932   4.5687756  38.3390772
  79.9326201   5.4589397  38.2629883  80.6440894   4.3789413  37.4760357
  68.3447782  16.8921286  31.1579374  69.1823004  17.3018294  30.9413082
  68.5226050  15.9520728  31.1279568  80.2412215  14.5596367  26.8463207
  79.7258838  15.3300971  27.0851595  79.9689523  13.8861503  27.4696269
  77.8259326   9.4046068  31.9048446  76.9700922   9.0152918  31.7254085
  78.2386277   9.4838028  31.0448231  79.3558472   6.9392411  36.3040006
  78.8523268   6.9022546  35.4907811  79.6489079   7.8485153  36.3636662
  75.6001358   7.0231140  35.3106187  76.4654355   6.8273949  34.9512077
  75.6678867   6.7941492  36.2375544  85.2146489  17.3128721  28.7816381
  84.4375931  16.9739881  28.3371543  85.8937970  17.3181345  28.1071346
  80.0298518  12.4323459  28.6722989  79.7248653  12.7469608  29.5233132
  80.9828960  12.5104879  28.7150322  78.4744950  18.5913682  30.3215943
  77.9466311  17.8566442  30.0089180  77.9732452  19.3688358  30.0755911
  83.4537796  16.7862703  35.4382989  82.7961470  17.4761964  35.5263118
  84.2578195  17.1759135  35.7816975  73.2063677   9.2533348  32.6822554
  73.7807429   9.0308530  31.9495747  73.7934660   9.3222043  33.4351155
  82.2643254  15.1407075  33.4886931  82.7775136  15.7737067  33.9908640
  82.9144478  14.5408271  33.1230291  73.5333264  11.2837809  26.7018439
  72.6970577  11.6212496  27.0227714  73.3938034  11.1486789  25.7645576
  75.5086345   6.1274597  31.4097624  74.8550757   5.8123614  30.7854238
  75.4666819   5.5050338  32.1357446  76.6197550  16.4093892  23.3250916
  75.7124611  16.1783146  23.5242065  77.1168582  15.6131512  23.5124897
  79.5265629  25.1191400  26.2447602  78.8527327  25.4223096  26.8532560
  79.9131451  25.9220480  25.8953059  78.7424085  12.6156531  35.7345271
  77.8246647  12.8371478  35.5766959  79.1584229  12.6902841  34.8756979
  79.5259133  14.0147947  30.8647951  80.2730952  14.5269344  30.5555073
  79.7950723  13.6931999  31.7252345  77.7985783  16.5106487  27.8474906
  76.8897002  16.2265520  27.9447375  77.8280867  16.9305566  26.9878213
  83.0305051  20.1213077  31.6166073  82.5767378  19.2803987  31.6731264
  82.3999017  20.7574475  31.9540853  81.9737970  11.0505063  32.8466741
  81.2360727  10.5382449  33.1776983  82.2264744  10.6105444  32.0350018
  81.4737990  21.9589573  32.5515891  81.7660964  22.5194631  31.8328257
  81.9836610  22.2518134  33.3069051  68.3673954  14.2312001  31.8290108
  68.1698353  13.6381362  31.1041175  67.8120618  13.9264212  32.5466047
  76.3470677  14.1235108  33.9484701  76.4019287  13.1708944  33.8727178
  75.5361879  14.2794547  34.4325999  77.4961871  18.0515231  25.1862984
  77.0581301  17.3351090  24.7268622  78.2372312  18.2791346  24.6248076
  74.2863037  12.7412168  31.7075080  73.4730903  13.0406338  32.1140272
  74.7822031  12.3467856  32.4249562  76.4371615  22.7369925  33.6409345
  76.3947794  22.9630771  32.7117877  77.3534314  22.5033299  33.7895146
  79.8837249  13.2053992  40.5389974  80.2386637  13.4325465  41.3984440
  80.5309380  13.5372369  39.9167229  85.6134986  16.3272428  31.2439303
  85.4752884  16.5174024  30.3160492  85.2571205  17.0891811  31.7007354
  73.7777112  10.3130523  37.3236315  74.4176491  10.1719282  36.6259278
  72.9454642  10.0265037  36.9474917  85.6404365  18.3948955  36.2550574
  86.0740872  18.3024244  37.1033628  86.3535946  18.3706455  35.6170590
  74.5537416  19.6132954  33.4371307  75.3478014  19.1183274  33.2353882
  73.8429108  19.0850817  33.0739013  79.3732260  21.9951049  37.7883675
  79.4269283  22.5641985  38.5561391  78.5047042  22.1652934  37.4237712
  70.8620179  13.7576035  29.5131060  69.9317767  13.6960491  29.7301022
  70.9577651  13.2351988  28.7167701  70.7805728  10.2830848  32.1009302
  71.0412546  11.1976181  31.9918462  71.6022901   9.8155291  32.2505915
  72.2530654  11.6968605  39.2708126  72.9253707  11.4885967  38.6220775
  71.4260440  11.4990691  38.8313359  86.5019915  18.4372656  38.7883460
  86.6955805  19.3418466  39.0342735  86.4020533  17.9780075  39.6222045
  78.1556226   8.3230546  41.2873787  77.5084141   9.0220496  41.1938264
  78.9257241   8.7566690  41.6550035  81.5635024  18.5879398  44.3624340
  81.4120530  18.3589950  43.4454424  81.5539703  19.5450000  44.3755685
  78.3320360  16.1611311  39.3470607  79.2612420  16.3122471  39.1739574
  77.9111390  16.2495332  38.4919253  77.1308692  20.1861976  37.1169144
  76.9919777  19.8180760  37.9895083  76.3423288  20.7009615  36.9453102
  77.7256844  25.2871072  28.4594681  77.9008599  24.8159115  29.2740304
  77.0389632  25.9136838  28.6875942  78.6813907  19.5643578  34.5057982
  78.3463740  19.5244348  35.4015632  78.1817853  18.8988294  34.0328392
  72.6558151  14.9711208  40.0310563  72.5177949  14.2391447  40.6322102
  73.5663074  14.8820108  39.7494751  81.6173099  16.9099613  24.7795042
  81.0002269  16.1846441  24.6828095  81.1489587  17.6708973  24.4362116
  75.2840452  14.6831168  39.5194243  75.9940070  14.0424360  39.4780861
  75.2409760  14.9344062  40.4420424  83.2727230  21.6198521  42.4400822
  83.2139776  20.9357741  41.7731405  83.6746749  22.3617511  41.9881448
  73.9969386  11.6696385  41.3389883  73.4606743  11.2187124  41.9911479
  73.4086094  11.8042294  40.5960347  73.4071644  11.1285037  23.9016346
  72.5301111  11.0073838  23.5378593  73.8829398  10.3371115  23.6495235
  83.2744638  19.5838105  40.6714802  82.3871416  19.2464027  40.7941201
  83.8443189  18.8521136  40.9083567  64.9273785  15.9162197  33.9957853
  65.6144824  15.6023927  33.4078869  64.7721913  16.8203561  33.7225105
  69.7308507  10.8052393  38.4242877  69.6466696  10.1978063  37.6893287
  68.9091213  11.2961411  38.4252373  76.8045791  24.2439557  37.6376045
  76.7315962  25.0494529  38.1495350  76.3623184  24.4431523  36.8124067
  76.5935571  23.4811327  31.1478867  75.8103092  24.0233007  31.2417091
  77.2928316  23.9985307  31.5473108  79.9032221   9.2905957  33.7913072
  80.4000920   8.5375919  33.4714142  79.1319202   9.3270273  33.2256281
  87.7561978  14.9946322  35.4331364  87.7451854  15.8771038  35.0625297
  86.8879357  14.6417873  35.2385901  80.9862001  18.0477644  31.3651495
  80.0518280  18.1679106  31.1956200  81.1638670  17.1450111  31.1011505
  76.4867189  11.4323340  33.5184757  76.1164977  10.8794380  34.2065662
  76.9826282  10.8281473  32.9659757  84.3734553  13.8894963  31.9001530
  84.8395005  14.7222955  31.8261832  84.8242053  13.4239945  32.6046788
  74.3156388  21.8920835  40.6139775  75.0165847  22.5257318  40.7669169
  73.8451503  22.2335566  39.8535414  82.4410784  20.2338784  28.8987682
  82.7170628  20.1195379  29.8081556  81.5715283  19.8356269  28.8599855
  82.3451215   6.2575550  35.9392431  81.4314295   6.4879777  36.1074638
  82.7744317   6.3413994  36.7906463  82.1157674  14.4465442  38.4392325
  81.4629124  14.6941350  37.7844778  82.4938054  13.6329580  38.1054802
  79.0764848  24.4825135  32.5420495  79.2587242  23.6646791  33.0048248
  79.8997834  24.6992828  32.1045385  79.4107013  23.4093320  29.8035544
  79.9394780  22.8985775  29.1905706  79.6735233  23.0935851  30.6681077
  78.1645247  15.1885253  44.9258362  77.4885884  15.0879383  45.5960737
  78.9872881  15.0324467  45.3894359  69.9124106  21.4257190  37.5470877
  70.4977543  20.6800878  37.6798781  69.7148944  21.7361146  38.4307541
  72.7662761  24.4608437  32.5633320  72.0973137  24.9454565  32.0797360
  72.6275631  24.7077658  33.4776698  64.5041761  13.9962790  36.2675320
  64.5425860  13.4626381  37.0612439  63.9982054  13.4697995  35.6486298
  76.9068030  26.4952181  39.1615978  77.4586338  26.6583802  39.9265063
  77.2474223  27.0856618  38.4896003  71.8832523   8.8427330  39.7637863
  71.9473850   9.7042161  39.3515260  71.8199643   8.2301332  39.0310221
  71.3584796  10.9150463  43.4110897  71.9856834  10.5327540  44.0248421
  70.5012714  10.6964665  43.7766590  81.7578904  21.3213438  45.0164632
  82.3018808  21.9343396  44.5219587  81.1765749  21.8793017  45.5331645
  68.1350338  12.7226892  29.3429252  68.4303779  11.8137571  29.2896306
  67.2338374  12.7014632  29.0210254  80.0436417  24.4434156  36.1479660
  79.9187557  23.6423896  35.6390606  80.7015508  24.9380350  35.6593630
  71.6644585  10.7982889  35.3256800  70.9431171  11.4118856  35.1864274
  72.4537841  11.3340654  35.2473446  82.1071325  22.2443176  37.7759210
  81.1601661  22.1248527  37.7037537  82.4554099  21.3565674  37.8585472
  74.4670899   8.1337315  41.5997452  74.9905301   8.3799612  42.3623761
  74.2483232   8.9657350  41.1800590  69.8638180  10.4040990  29.4668577
  69.5350886   9.5238369  29.2843683  70.2177551  10.3488658  30.3544966
  79.1117759  22.0395893  33.9763563  78.9642721  21.1112600  34.1571133
  79.9371252  22.0615983  33.4920638  72.9780003  10.6913960  29.8344055
  73.3176076  11.2199881  29.1122663  73.4252124  11.0294366  30.6102621
  82.7151881  22.8624451  35.0628435  83.6398428  22.6567313  34.9252886
  82.5467184  22.6140852  35.9717777  75.6723444   9.0751010  39.2847123
  75.3320264   8.2758823  39.6867803  74.9662450   9.3752721  38.7123956
  76.3239916   6.1600323  37.7374446  77.1465985   5.6860801  37.6153336
  76.5677979   6.9390806  38.2373132  74.9648150   9.1888581  28.0337347
  75.6856513   9.5669834  27.5301064  74.3413454   9.9077458  28.1372325
  79.1079273   9.8933730  28.9695680  79.3242887  10.7758368  28.6684508
  78.6273340   9.5019944  28.2401322  73.8478494  12.8519443  35.5466424
  73.7023075  13.1659746  36.4390706  73.3703698  13.4704344  34.9937323
  75.7074877   9.8421991  35.5947314  75.6936446   8.9463085  35.2579612
  76.4247305   9.8492655  36.2285600  77.5601008  10.2759332  37.6400441
  77.3018786  11.1976402  37.6384772  77.0286048   9.8789766  38.3300905
  82.5047197  23.3810119  30.4190527  82.6784074  22.8156541  29.6664379
  82.9976088  24.1811014  30.2370017  68.3224157  15.3924788  38.4854086
  67.7777625  16.1684596  38.6174360  69.2003507  15.7395592  38.3273207
  75.1111773   8.7236372  30.8634884  75.2327684   7.7953018  31.0625772
  74.8213816   8.7375058  29.9513199  77.9802964   6.4091282  34.0001604
  78.0024661   6.4730615  33.0453583  78.3971023   5.5695791  34.1942110
  88.3586588  16.1446542  32.0380826  88.8017734  15.3953867  31.6399950
  87.4813098  16.1356678  31.6554558  83.4922369  22.6976883  27.5187425
  84.1873274  23.3183576  27.7374740  83.8345519  21.8472234  27.7939803
  69.1090179  14.5194684  41.3784242  68.3671915  14.6677319  41.9648873
  68.7882923  14.7802950  40.5150992  85.3913792  20.1476589  29.0474756
  85.9165117  20.4863861  28.3224076  85.3036145  19.2123604  28.8637890
  77.0533841  24.0610662  41.1764632  77.3620968  23.8159809  42.0487332
  77.8509323  24.2657301  40.6883503  77.0754453  26.2148572  33.4070009
  76.6359443  25.7224951  34.1002866  77.8262570  25.6721540  33.1662084
  69.5546792  22.4060113  33.4094637  70.3804812  22.1063885  33.0293281
  69.2040844  21.6367735  33.8584426  74.5228325  21.7586581  35.4792311
  73.9008335  21.0957286  35.1794538  75.1933192  21.7847713  34.7965958
  67.7555397  20.3246439  34.3683571  66.9187306  19.8968614  34.1867572
  67.7279043  20.5178883  35.3054362  74.5952853  10.2368369  45.0724817
  74.6441008  11.1130492  44.6902586  75.1375367   9.6945762  44.4996460
  85.0807699  20.7809492  44.3525954  84.2903242  20.7633631  43.8130453
  84.8441053  21.3197786  45.1074990  85.2005574  17.6301959  41.6658682
  85.2503578  17.4651966  42.6074205  85.0919497  16.7629218  41.2756563
  74.0841832  20.3090504  28.9550771  74.2329953  20.9925969  28.3017444
  74.8908276  20.2895594  29.4700227  82.4909336  13.6132887  42.9817989
  83.3919199  13.4739352  42.6901987  82.5657310  13.7787341  43.9216166
  76.8252141  10.9899741  41.8271175  75.9555451  11.2833307  41.5553764
  77.0611622  11.5740186  42.5478439  86.7023770  20.0498900  41.9100704
  86.4108579  20.4128881  42.7464165  86.0895902  19.3365908  41.7314036
  87.9019453  17.6151780  34.4303274  88.7366344  18.0541584  34.5940834
  88.0378582  17.1390433  33.6111520  84.9510959  15.1731515  40.3780762
  85.4265080  15.3659161  39.5699613  84.0276524  15.2290701  40.1324145
  71.8394465  16.3355682  29.9611840  71.5940507  15.4318012  30.1592050
  72.0090380  16.3372832  29.0191318  79.5291175   7.2079358  39.3436596
  80.0473119   7.9440385  39.0183084  79.1746308   7.5143352  40.1783355
  71.1090113  12.0684040  27.4598002  70.4159358  12.1428395  26.8038038
  70.8641865  11.3044383  27.9819518  77.5837238  22.8038635  26.4262519
  77.0111205  23.4228822  25.9732990  78.1570031  23.3537996  26.9602441
  83.6512628  12.0497275  38.6109067  84.6030051  12.1495373  38.6321291
  83.4816078  11.2575543  39.1207152  81.6727007   9.1352858  38.7968468
  81.0776939   9.4157871  38.1014957  81.3876704   9.6246759  39.5685209
  80.8034498  23.0875785  27.5571101  81.7365171  23.0221347  27.7603976
  80.7157710  23.9232052  27.0985634  83.4322514  22.4041655  24.5175048
  83.3536146  22.0701519  25.4110806  84.2532181  22.8963423  24.5166521
  86.1300705  15.2703395  37.7251367  86.0977026  14.3319395  37.9111051
  86.7401329  15.3487431  36.9917192  77.9684036  14.1399448  23.7678571
  78.9143141  14.0105656  23.8366989  77.5898281  13.4014109  24.2447999
  86.2795194  12.0614438  37.7709650  85.7634243  11.2772895  37.5839579
  87.1635142  11.7333155  37.9356170  83.9405921   5.8055454  33.7305463
  83.7430742   5.4970542  34.6148795  84.5505626   6.5317092  33.8603393
  91.9477255  16.3319401  36.8657404  92.6780644  16.0704690  37.4265107
  91.3384201  15.5948123  36.9059472  90.0292552  14.4727264  37.4631855
  89.3025716  14.3383229  36.8548347  89.6139839  14.7804093  38.2688573
  77.8522729  18.1917194  45.2279228  78.7725738  18.3695793  45.4219275
  77.8172312  17.2473239  45.0758927  76.1526953  12.0649424  23.7033456
  75.2458409  11.7682537  23.7796170  76.4302934  11.7679242  22.8367743
  67.0704894  13.3855787  34.1532503  66.7507678  12.5321096  33.8606877
  66.5238322  13.6004365  34.9090470  70.8484801  16.1018228  37.8702009
  71.0670811  17.0335336  37.8890043  71.2610575  15.7426203  38.6556813
  77.7689019   6.6086314  29.8577698  76.9589747   6.2633399  30.2332944
  78.4573436   6.2993857  30.4465309  79.6979567   5.6864360  31.4801994
  80.2510606   6.1059814  32.1392017  79.9349654   4.7600109  31.5224950
  75.7212667  11.6751434  47.2604758  75.6209394  12.6245791  47.1916849
  75.5034209  11.3469673  46.3880828  74.9225738   8.9236359  23.8445436
  75.7844902   9.2491257  24.1041253  75.1076082   8.1367855  23.3318501
  66.9393154  17.0058699  36.1225624  66.2456625  16.5912652  35.6095579
  67.6866145  17.0479235  35.5259043  83.0758375   7.7964886  30.9880659
  82.4957044   8.4549690  30.6058711  82.8094307   6.9742230  30.5768076
  81.5261941   7.1969943  33.1901979  82.0261719   7.3086478  32.3816298
  82.1697549   6.8930996  33.8302787  75.5843937  15.1048573  46.0769820
  75.1011018  15.9048933  46.2833709  75.6704876  15.1156518  45.1237264
  68.8529896  16.9376953  33.9991639  68.8300584  17.0364640  33.0473522
  69.1630533  17.7842103  34.3208805  71.5117274  18.9953108  38.1138254
  72.4660528  18.9637050  38.0468185  71.3129798  18.5343731  38.9288480
  72.1016656  17.5654224  40.6809051  72.9209545  18.0598302  40.7043889
  72.3753464  16.6486192  40.6526619  81.8583253   9.9564976  30.0437007
  80.9709108  10.2414627  29.8257202  82.2737242   9.7958739  29.1964284
  85.2097789   9.9811497  33.7591346  85.9858179  10.4707949  34.0315963
  84.4845923  10.4069551  34.2163216  87.6470347  10.6939116  34.8165287
  88.2414838  10.4534852  34.1058595  87.7196931   9.9746247  35.4438823
  69.8667503  24.5372727  35.1308451  69.7321971  23.7773128  34.5646450
  69.4499565  25.2613627  34.6637240  81.0026466  19.7209651  24.1385027
  81.7062316  19.9259653  24.7542682  80.2789115  20.2886413  24.4034110
  81.8324276  15.4719512  30.2587297  81.7759478  15.9288063  29.4194929
  82.3852619  14.7110197  30.0810140  85.6429082  11.2609244  31.0837416
  85.3866016  10.8605879  31.9145624  85.0181950  11.9753038  30.9587556
  89.9541420  14.0005317  33.5908708  89.3940978  14.0698506  34.3640270
  89.3484923  13.8246302  32.8708204  73.0236629  25.4342044  35.3426894
  72.9069013  26.3787477  35.2405584  72.2029075  25.1315606  35.7312693
  82.9113163  20.1592180  26.1883487  83.7458767  19.7273378  26.0060962
  82.7497506  19.9874194  27.1160381  82.5659056  16.6624293  27.5539826
  82.5107859  16.4968565  26.6128270  81.9405111  17.3700326  27.7102016
  67.3551571  11.8992358  41.3801248  68.0010434  11.3891312  41.8688473
  67.1468722  12.6361039  41.9544674  79.8804963  18.9673205  46.8793389
  80.7496122  19.1413857  46.5180024  79.4011714  19.7867622  46.7569118
  75.8755181   6.1632402  27.1325145  75.8633851   7.1074242  27.2893415
  76.7678603   5.9802548  26.8384606  74.0491143  26.0870306  38.5582823
  74.9518390  26.1193916  38.8749317  73.8228513  25.1570757  38.5729158
  75.8044745  24.8401293  35.2192901  74.8540376  24.8403154  35.1057273
  76.1077231  24.0934027  34.7028936  71.6949062   9.0459975  45.4776263
  72.5580523   8.6896779  45.6879587  71.1214472   8.7073869  46.1651667
  91.5397439  30.6761831  36.2838664  92.1775848  30.5568578  35.5802004
  91.4218281  31.6242675  36.3426616  88.3487145  30.6289259  36.2200188
  88.0105656  30.5130324  35.3320723  89.2176913  30.2280424  36.2001194
  86.0495424  29.3977506  25.5517128  86.3020945  28.8759028  24.7900591
  85.1119983  29.2343652  25.6543812  91.0938707  28.4013285  33.3591872
  91.8801796  27.9832708  33.0082289  91.3577411  29.3059377  33.5273520
  96.4947134  28.3388518  34.2624850  97.2272306  27.7687735  34.4962680
  95.7386490  27.9510118  34.7031356  85.7691713  31.3005612  27.7541503
  85.6527971  30.6250516  28.4222588  85.8793973  30.8137986  26.9373656
  88.1123254  30.7615760  31.4588193  87.7481461  30.2346380  32.1701114
  88.9690370  30.3714229  31.2854678  94.0172554  22.0510092  38.7219459
  93.6855879  22.9205503  38.4980674  93.4218168  21.7346376  39.4013489
  87.7528741  25.7905659  26.4549541  87.9203143  26.6585896  26.8220012
  87.5625910  25.9532941  25.5310830  93.9101218  26.7705178  35.8012809
  93.0018095  26.7020587  35.5071570  93.8588814  27.2477123  36.6294634
  87.7317962  28.2463317  27.4396208  87.6117587  28.6920367  28.2781688
  87.0370550  28.5948634  26.8809746  87.9842084  28.1894824  43.7447706
  87.2075418  28.7488744  43.7350571  88.6232647  28.6751607  44.2662576
  95.7762864  24.9721617  37.5790683  95.1337244  25.2654150  36.9330477
  95.2717793  24.8574537  38.3843879  93.4303028  28.7184790  28.2676542
  94.3420884  28.9512177  28.0924239  92.9212675  29.3021834  27.7051621
  88.0674866  28.0782024  39.2771391  88.9136061  28.5021438  39.4206040
  88.0073503  27.4215649  39.9709955  92.0372610  33.7010608  35.6590123
  91.4081473  33.8656322  34.9566191  91.6498272  34.1152218  36.4301087
  95.9161842  34.6365046  33.0134487  95.2312880  35.0163948  32.4631520
  96.0005691  35.2460373  33.7466435  91.2174311  25.7386393  40.9352565
  90.9735243  26.4928453  40.3986841  91.4934241  26.1171740  41.7699812
  90.7739003  24.8942826  36.5166403  89.9123482  25.1924079  36.8083140
  90.8001437  25.1113225  35.5847435  86.5269458  29.5608169  29.7329774
  87.2293501  30.0129212  30.2003700  86.1950087  28.9191988  30.3609667
  80.2694792  27.8191721  35.0346907  79.4793846  28.0749250  34.5587018
  80.7606039  28.6340059  35.1398948  82.2209537  28.1836301  31.9930384
  81.4240701  28.2954995  32.5113880  81.9935130  28.5222953  31.1271274
  78.5532495  28.0722212  37.4661898  78.8040533  28.9569222  37.7319474
  79.0892043  27.8926813  36.6936990 102.3764595  31.5035709  34.1337160
 101.6228303  30.9343107  33.9781164 102.5112136  31.4698374  35.0807794
  84.2530562  22.4540691  46.4706234  83.8597508  21.9006890  47.1453878
  85.0696703  22.7651270  46.8612752  87.1698523  23.8698570  44.0626491
  87.9108237  24.4705723  43.9830953  87.4016446  23.1276208  43.5044533
  91.1155686  19.8979673  38.3390772  90.7719956  20.7881315  38.2629883
  91.4834649  19.7081331  37.4760357  91.0805969  29.8888284  26.8463207
  90.5652592  30.6592889  27.0851595  90.8083277  29.2153421  27.4696269
  88.6653080  24.7337985  31.9048446  87.8094676  24.3444836  31.7254085
  89.0780032  24.8129946  31.0448231  90.1952227  22.2684328  36.3040006
  89.6917022  22.2314464  35.4907811  90.4882834  23.1777071  36.3636662
  86.4395113  22.3523058  35.3106187  87.3048109  22.1565867  34.9512077
  86.5072621  22.1233410  36.2375544  96.0540243  32.6420639  28.7816381
  95.2769686  32.3031799  28.3371543  96.7331724  32.6473262  28.1071346
  90.8692272  27.7615376  28.6722989  90.5642408  28.0761526  29.5233132
  91.8222714  27.8396796  28.7150322  94.2931550  32.1154620  35.4382989
  93.6355224  32.8053882  35.5263118  95.0971949  32.5051052  35.7816975
  84.0457432  24.5825266  32.6822554  84.6201184  24.3600448  31.9495747
  84.6328414  24.6513961  33.4351155  93.1037009  30.4698993  33.4886931
  93.6168891  31.1028985  33.9908640  93.7538233  29.8700188  33.1230291
  84.3727019  26.6129727  26.7018439  83.5364331  26.9504414  27.0227714
  84.2331788  26.4778707  25.7645576  86.3480099  21.4566515  31.4097624
  85.6944512  21.1415532  30.7854238  86.3060574  20.8342255  32.1357446
  87.4591304  31.7385810  23.3250916  86.5518366  31.5075064  23.5242065
  87.9562336  30.9423429  23.5124897  89.5817840  27.9448449  35.7345271
  88.6640401  28.1663396  35.5766959  89.9977983  28.0194759  34.8756979
  90.3652887  29.3439864  30.8647951  91.1124706  29.8561261  30.5555073
  90.6344477  29.0223917  31.7252345  93.8698805  35.4504994  31.6166073
  93.4161132  34.6095904  31.6731264  93.2392772  36.0866393  31.9540853
  92.8131725  26.3796980  32.8466741  92.0754481  25.8674367  33.1776983
  93.0658498  25.9397362  32.0350018  92.3131744  37.2881491  32.5515891
  92.6054719  37.8486548  31.8328257  92.8230365  37.5810052  33.3069051
  92.9143352  19.1573232  33.4408510  93.2202229  18.2970596  33.1534425
  93.6395957  19.7490853  33.2407504  87.1864432  29.4527026  33.9484701
  87.2413041  28.5000862  33.8727178  86.3755634  29.6086465  34.4325999
  85.1256792  28.0704085  31.7075080  84.3124657  28.3698256  32.1140272
  85.6215786  27.6759774  32.4249562  90.7231003  28.5345910  40.5389974
  91.0780391  28.7617383  41.3984440  91.3703135  28.8664287  39.9167229
  96.4528740  31.6564346  31.2439303  96.3146639  31.8465942  30.3160492
  96.0964959  32.4183728  31.7007354  84.6170866  25.6422441  37.3236315
  85.2570246  25.5011200  36.6259278  83.7848397  25.3556954  36.9474917
  96.4798120  33.7240873  36.2550574  96.9134627  33.6316162  37.1033628
  97.1929701  33.6998373  35.6170590  81.7013934  29.0867953  29.5131060
  80.7711522  29.0252408  29.7301022  81.7971406  28.5643906  28.7167701
  81.6199483  25.6122766  32.1009302  81.8806300  26.5268099  31.9918462
  82.4416655  25.1447208  32.2505915  83.0924408  27.0260523  39.2708126
  83.7647462  26.8177885  38.6220775  82.2654195  26.8282609  38.8313359
  97.3413669  33.7664573  38.7883460  97.5349559  34.6710384  39.0342735
  97.2414288  33.3071992  39.6222045  88.9949980  23.6522464  41.2873787
  88.3477895  24.3512414  41.1938264  89.7650996  24.0858608  41.6550035
  92.4566853  32.2391530  24.7795042  91.8396024  31.5138358  24.6828095
  91.9883342  33.0000891  24.4362116  84.8363140  26.9988303  41.3389883
  84.3000497  26.5479042  41.9911479  84.2479848  27.1334212  40.5960347
  84.2465399  26.4576955  23.9016346  83.3694865  26.3365755  23.5378593
  84.7223152  25.6663033  23.6495235  80.5702261  26.1344311  38.4242877
  80.4860450  25.5269980  37.6893287  79.7484968  26.6253329  38.4252373
  90.7425975  24.6197874  33.7913072  91.2394675  23.8667837  33.4714142
  89.9712957  24.6562191  33.2256281  98.5955733  30.3238240  35.4331364
  98.5845609  31.2062955  35.0625297  97.7273112  29.9709791  35.2385901
  91.8255756  33.3769562  31.3651495  90.8912035  33.4971024  31.1956200
  92.0032424  32.4742028  31.1011505  87.3260944  26.7615257  33.5184757
  86.9558731  26.2086298  34.2065662  87.8220036  26.1573391  32.9659757
  95.2128307  29.2186881  31.9001530  95.6788759  30.0514872  31.8261832
  95.6635808  28.7531862  32.6046788  93.2804538  35.5630702  28.8987682
  93.5564382  35.4487297  29.8081556  92.4109037  35.1648187  28.8599855
  93.1844970  21.5867468  35.9392431  92.2708050  21.8171695  36.1074638
  93.6138071  21.6705912  36.7906463  92.9551428  29.7757360  38.4392325
  92.3022879  30.0233267  37.7844778  93.3331808  28.9621498  38.1054802
  89.9158602  39.8117053  32.5420495  90.0980997  38.9938709  33.0048248
  90.7391588  40.0284745  32.1045385  90.2500768  38.7385238  29.8035544
  90.7788534  38.2277693  29.1905706  90.5128987  38.4227768  30.6681077
  82.7226278  24.1719248  39.7637863  82.7867604  25.0334079  39.3515260
  82.6593398  23.5593250  39.0310221  78.9744093  28.0518810  29.3429252
  79.2697534  27.1429488  29.2896306  78.0732129  28.0306549  29.0210254
  82.5038340  26.1274806  35.3256800  81.7824926  26.7410774  35.1864274
  83.2931596  26.6632571  35.2473446  85.3064653  23.4629233  41.5997452
  85.8299055  23.7091529  42.3623761  85.0876987  24.2949268  41.1800590
  80.7031934  25.7332907  29.4668577  80.3744641  24.8530286  29.2843683
  81.0571305  25.6780576  30.3544966  83.8173758  26.0205877  29.8344055
  84.1569830  26.5491799  29.1122663  84.2645878  26.3586283  30.6102621
  86.5117198  24.4042928  39.2847123  86.1714019  23.6050741  39.6867803
  85.8056205  24.7044639  38.7123956  87.1633670  21.4892240  37.7374446
  87.9859740  21.0152719  37.6153336  87.4071734  22.2682724  38.2373132
  85.8041905  24.5180499  28.0337347  86.5250267  24.8961752  27.5301064
  85.1807209  25.2369376  28.1372325  89.9473028  25.2225648  28.9695680
  90.1636642  26.1050286  28.6684508  89.4667095  24.8311861  28.2401322
  84.6872249  28.1811361  35.5466424  84.5416830  28.4951664  36.4390706
  84.2097453  28.7996261  34.9937323  86.5468632  25.1713909  35.5947314
  86.5330201  24.2755002  35.2579612  87.2641060  25.1784573  36.2285600
  88.3994763  25.6051249  37.6400441  88.1412540  26.5268320  37.6384772
  87.8679803  25.2081684  38.3300905  93.3440951  38.7102036  30.4190527
  93.5177829  38.1448459  29.6664379  93.8369843  39.5102931  30.2370017
  85.9505528  24.0528289  30.8634884  86.0721439  23.1244935  31.0625772
  85.6607570  24.0666975  29.9513199  88.8196718  21.7383200  34.0001604
  88.8418415  21.8022533  33.0453583  89.2364777  20.8987708  34.1942110
  99.1980343  31.4738459  32.0380826  99.6411489  30.7245785  31.6399950
  98.3206853  31.4648596  31.6554558  94.3316124  38.0268801  27.5187425
  95.0267028  38.6475493  27.7374740  94.6739274  37.1764152  27.7939803
  96.2307547  35.4768506  29.0474756  96.7558871  35.8155779  28.3224076
  96.1429900  34.5415522  28.8637890  95.9201453  36.1101410  44.3525954
  95.1296997  36.0925549  43.8130453  95.6834808  36.6489704  45.1074990
  96.0399328  32.9593876  41.6658682  96.0897333  32.7943884  42.6074205
  95.9313251  32.0921135  41.2756563  93.3303090  28.9424804  42.9817989
  94.2312953  28.8031269  42.6901987  93.4051065  29.1079259  43.9216166
  87.6645896  26.3191659  41.8271175  86.7949205  26.6125225  41.5553764
  87.9005376  26.9032104  42.5478439  97.5417525  35.3790818  41.9100704
  97.2502333  35.7420798  42.7464165  96.9289656  34.6657826  41.7314036
  98.7413207  32.9443698  34.4303274  99.5760099  33.3833502  34.5940834
  98.8772336  32.4682351  33.6111520  95.7904713  30.5023432  40.3780762
  96.2658835  30.6951079  39.5699613  94.8670279  30.5582618  40.1324145
  90.3684930  22.5371276  39.3436596  90.8866873  23.2732303  39.0183084
  90.0140062  22.8435269  40.1783355  81.9483867  27.3975957  27.4598002
  81.2553112  27.4720312  26.8038038  81.7035619  26.6336301  27.9819518
  90.6197524  18.9571559  34.8637492  90.8999278  18.2894748  35.4897919
  91.4048131  19.1500654  34.3512156  94.4906382  27.3789193  38.6109067
  95.4423805  27.4787290  38.6321291  94.3209833  26.5867461  39.1207152
  92.5120762  24.4644776  38.7968468  91.9170694  24.7449788  38.1014957
  92.2270458  24.9538677  39.5685209  91.6428252  38.4167703  27.5571101
  92.5758925  38.3513264  27.7603976  91.5551465  39.2523969  27.0985634
  94.2716269  37.7333573  24.5175048  94.1929900  37.3993437  25.4110806
  95.0925936  38.2255341  24.5166521  96.9694460  30.5995312  37.7251367
  96.9370780  29.6611313  37.9111051  97.5795084  30.6779349  36.9917192
  88.8077791  29.4691365  23.7678571  89.7536896  29.3397573  23.8366989
  88.4292036  28.7306027  24.2447999  97.1188948  27.3906356  37.7709650
  96.6027997  26.6064812  37.5839579  98.0028897  27.0625072  37.9356170
  94.7799675  21.1347371  33.7305463  94.5824496  20.8262459  34.6148795
  95.3899381  21.8609010  33.8603393 102.7871010  31.6611319  36.8657404
 103.5174398  31.3996607  37.4265107 102.1777955  30.9240041  36.9059472
 100.8686307  29.8019182  37.4631855 100.1419470  29.6675147  36.8548347
 100.4533594  30.1096010  38.2688573  86.9920708  27.3941342  23.7033456
  86.0852163  27.0974454  23.7796170  87.2696689  27.0971160  22.8367743
  88.6082774  21.9378231  29.8577698  87.7983502  21.5925316  30.2332944
  89.2967191  21.6285775  30.4465309  90.5373322  21.0156278  31.4801994
  91.0904361  21.4351732  32.1392017  90.7743408  20.0892026  31.5224950
  86.5606421  27.0043352  47.2604758  86.4603148  27.9537709  47.1916849
  86.3427963  26.6761591  46.3880828  85.7619493  24.2528277  23.8445436
  86.6238657  24.5783175  24.1041253  85.9469837  23.4659773  23.3318501
  93.9152129  23.1256803  30.9880659  93.3350798  23.7841607  30.6058711
  93.6488062  22.3034148  30.5768076  92.3655695  22.5261861  33.1901979
  92.8655474  22.6378396  32.3816298  93.0091303  22.2222914  33.8302787
  92.6977007  25.2856894  30.0437007  91.8102862  25.5706544  29.8257202
  93.1130996  25.1250657  29.1964284  96.0491543  25.3103415  33.7591346
  96.8251933  25.7999867  34.0315963  95.3239677  25.7361469  34.2163216
  98.4864102  26.0231034  34.8165287  99.0808593  25.7826770  34.1058595
  98.5590686  25.3038164  35.4438823  91.8420221  35.0501568  24.1385027
  92.5456071  35.2551571  24.7542682  91.1182869  35.6178330  24.4034110
  92.6718031  30.8011430  30.2587297  92.6153232  31.2579981  29.4194929
  93.2246373  30.0402114  30.0810140  96.4822837  26.5901161  31.0837416
  96.2259771  26.1897797  31.9145624  95.8575705  27.3044955  30.9587556
 100.7935175  29.3297235  33.5908708 100.2334733  29.3990424  34.3640270
 100.1878678  29.1538219  32.8708204  93.7506918  35.4884098  26.1883487
  94.5852522  35.0565296  26.0060962  93.5891261  35.3166111  27.1160381
  93.4052810  31.9916211  27.5539826  93.3501614  31.8260482  26.6128270
  92.7798865  32.6992244  27.7102016  86.7148936  21.4924320  27.1325145
  86.7027605  22.4366160  27.2893415  87.6072357  21.3094465  26.8384606
  90.5301055  18.0867096  31.3871081  89.7633451  17.5325583  31.5327764
  90.9411760  18.1588965  32.2485233 102.3791193  46.0053749  36.2838664
 103.0169603  45.8860496  35.5802004 102.2612036  46.9534593  36.3426616
  99.1880899  45.9581177  36.2200188  98.8499411  45.8422241  35.3320723
 100.0570667  45.5572342  36.2001194  99.6700682  47.1116028  42.1786394
  99.6589323  46.7168827  41.3066897  99.8321322  46.3782101  42.7720165
 100.6267274  51.4787621  27.5211544  99.9755253  52.0641701  27.1345558
 101.4211637  52.0093816  27.5806582  94.5522901  48.5676758  27.9198678
  95.3253777  48.0205745  27.7811554  94.9048300  49.4321007  28.1313140
  96.3907943  49.8953140  41.1265578  96.0997809  50.7998771  41.0112244
  97.0264928  49.9369668  41.8409647  96.8889179  44.7269424  25.5517128
  97.1414699  44.2050945  24.7900591  95.9513738  44.5635570  25.6543812
 101.9332461  43.7305202  33.3591872 102.7195551  43.3124626  33.0082289
 102.1971166  44.6351295  33.5273520 102.1042539  49.1678053  28.0580528
 101.4688372  49.2412679  28.7701433 101.7739945  49.7571652  27.3799608
 107.3340889  43.6680436  34.2624850 108.0666061  43.0979652  34.4962680
 106.5780244  43.2802036  34.7031356  96.6085467  46.6297530  27.7541503
  96.4921726  45.9542433  28.4222588  96.7187727  46.1429904  26.9373656
  98.9517008  46.0907677  31.4588193  98.5875216  45.5638298  32.1701114
  99.8084124  45.7006146  31.2854678 104.8566309  37.3802010  38.7219459
 104.5249634  38.2497421  38.4980674 104.2611922  37.0638294  39.4013489
  98.5922495  41.1197577  26.4549541  98.7596898  41.9877813  26.8220012
  98.4019664  41.2824859  25.5310830 101.3497829  49.5814556  38.1215371
 101.0498552  50.4839595  38.0131179 101.0048888  49.3146739  38.9736524
 104.7494972  42.0997096  35.8012809 103.8411850  42.0312504  35.5071570
 104.6982568  42.5769041  36.6294634  98.5711716  43.5755234  27.4396208
  98.4511341  44.0212285  28.2781688  97.8764305  43.9240552  26.8809746
  98.8235838  43.5186742  43.7447706  98.0469172  44.0780662  43.7350571
  99.4626401  44.0043525  44.2662576 106.6156619  40.3013534  37.5790683
 105.9730999  40.5946068  36.9330477 106.1111547  40.1866455  38.3843879
 104.2696782  44.0476708  28.2676542 105.1814638  44.2804094  28.0924239
 103.7606429  44.6313752  27.7051621  97.0782210  46.3272195  43.3065673
  97.8196895  46.8657239  43.0300497  96.3719196  46.9538484  43.4637225
 102.5537550  48.4701335  41.9037835 102.9620906  48.0283746  41.1592467
 101.8314812  47.8953963  42.1572027  98.9068620  43.4073942  39.2771391
  99.7529815  43.8313356  39.4206040  98.8467258  42.7507566  39.9709955
 102.8766365  49.0302526  35.6590123 102.2475227  49.1948240  34.9566191
 102.4892027  49.4444136  36.4301087 106.7555597  49.9656964  33.0134487
 106.0706635  50.3455865  32.4631520 106.8399446  50.5752291  33.7466435
 102.0568065  41.0678311  40.9352565 101.8128997  41.8220371  40.3986841
 102.3327996  41.4463658  41.7699812 104.0106528  47.6116923  39.6129831
 104.2223423  48.2548683  38.9364212 103.9636276  46.7779239  39.1451761
 101.6132757  40.2234744  36.5166403 100.7517236  40.5215997  36.8083140
 101.6395192  40.4405142  35.5847435  97.3663213  44.8900086  29.7329774
  98.0687256  45.3421130  30.2003700  97.0343841  44.2483905  30.3609667
  95.8143574  43.4811843  44.1080983  95.1842235  44.1628124  44.3416380
  95.7079662  43.3694925  43.1634121  91.1088547  43.1483639  35.0346907
  90.3187601  43.4041168  34.5587018  91.5999794  43.9631977  35.1398948
 105.1252356  50.4888878  37.7852188 105.9469800  50.0869066  37.5034870
 105.1214759  50.3857112  38.7368304  93.0603292  43.5128218  31.9930384
  92.2634455  43.6246913  32.5113880  92.8328884  43.8514871  31.1271274
  89.3926250  43.4014130  37.4661898  89.6434288  44.2861139  37.7319474
  89.9285798  43.2218731  36.6936990 113.2158349  46.8327627  34.1337160
 112.4622058  46.2635025  33.9781164 113.3505890  46.7990291  35.0807794
  98.6056977  51.7041029  29.8091879  98.4702652  52.5492565  30.2376727
  99.1466790  51.9060307  29.0457813  98.0092278  39.1990488  44.0626491
  98.7501991  39.7997641  43.9830953  98.2410201  38.4568126  43.5044533
  93.1533616  44.3846855  42.3404720  93.0387131  43.4832113  42.6411819
  92.2978134  44.6310552  41.9889537 100.2325454  52.3264596  43.9392221
  99.7889308  51.5400974  43.6213125 100.8942667  52.5143746  43.2736112
 102.3306692  52.6067396  41.9673622 102.3125167  53.4276277  41.4753891
 103.2526612  52.4821471  42.1923763  98.7879746  50.1211525  42.8097131
  99.3208083  49.3599813  42.5796439  98.2593827  49.8285177  43.5521285
 101.9549441  35.2271591  38.3390772 101.6113710  36.1173233  38.2629883
 102.3228403  35.0373249  37.4760357 101.9199724  45.2180202  26.8463207
 101.4046347  45.9884807  27.0851595 101.6477032  44.5445338  27.4696269
  99.5046835  40.0629903  31.9048446  98.6488431  39.6736753  31.7254085
  99.9173786  40.1421864  31.0448231 101.0345981  37.5976246  36.3040006
 100.5310777  37.5606381  35.4907811 101.3276588  38.5068989  36.3636662
  97.2788867  37.6814976  35.3106187  98.1441864  37.4857785  34.9512077
  97.3466376  37.4525328  36.2375544 106.8933998  47.9712557  28.7816381
 106.1163440  47.6323716  28.3371543 107.5725479  47.9765180  28.1071346
 101.7086027  43.0907294  28.6722989 101.4036162  43.4053443  29.5233132
 102.6616469  43.1688714  28.7150322 100.1532459  49.2497517  30.3215943
  99.6253820  48.5150277  30.0089180  99.6519961  50.0272194  30.0755911
 105.1325305  47.4446538  35.4382989 104.4748979  48.1345799  35.5263118
 105.9365704  47.8342970  35.7816975  94.8851186  39.9117184  32.6822554
  95.4594938  39.6892365  31.9495747  95.4722169  39.9805878  33.4351155
 103.9430763  45.7990911  33.4886931 104.4562645  46.4320903  33.9908640
 104.5931987  45.1992106  33.1230291  95.2120773  41.9421645  26.7018439
  94.3758086  42.2796331  27.0227714  95.0725543  41.8070625  25.7645576
  97.1873854  36.7858433  31.4097624  96.5338266  36.4707450  30.7854238
  97.1454328  36.1634173  32.1357446  98.2985059  47.0677728  23.3250916
  97.3912120  46.8366981  23.5242065  98.7956091  46.2715347  23.5124897
 101.2053138  55.7775235  26.2447602 100.5314836  56.0806932  26.8532560
 101.5918960  56.5804315  25.8953059 100.4211594  43.2740366  35.7345271
  99.5034156  43.4955313  35.5766959 100.8371738  43.3486677  34.8756979
 101.2046642  44.6731782  30.8647951 101.9518461  45.1853179  30.5555073
 101.4738232  44.3515835  31.7252345  99.4773292  47.1690323  27.8474906
  98.5684511  46.8849355  27.9447375  99.5068376  47.5889401  26.9878213
 104.7092560  50.7796912  31.6166073 104.2554887  49.9387822  31.6731264
 104.0786526  51.4158310  31.9540853 103.6525479  41.7088898  32.8466741
 102.9148236  41.1966284  33.1776983 103.9052253  41.2689280  32.0350018
 103.1525499  52.6173409  32.5515891 103.4448473  53.1778466  31.8328257
 103.6624119  52.9101970  33.3069051 103.7537106  34.4865150  33.4408510
 104.0595983  33.6262514  33.1534425 104.4789711  35.0782770  33.2407504
  90.0461463  44.8895837  31.8290108  89.8485862  44.2965197  31.1041175
  89.4908127  44.5848047  32.5466047  98.0258186  44.7818943  33.9484701
  98.0806796  43.8292780  33.8727178  97.2149388  44.9378382  34.4325999
  99.1749380  48.7099066  25.1862984  98.7368810  47.9934925  24.7268622
  99.9159821  48.9375181  24.6248076  95.9650546  43.3996003  31.7075080
  95.1518412  43.6990174  32.1140272  96.4609540  43.0051692  32.4249562
 101.5624758  43.8637827  40.5389974 101.9174146  44.0909301  41.3984440
 102.2096889  44.1956204  39.9167229 107.2922495  46.9856263  31.2439303
 107.1540393  47.1757859  30.3160492 106.9358714  47.7475646  31.7007354
 107.3191874  49.0532790  36.2550574 107.7528381  48.9608079  37.1033628
 108.0323455  49.0290291  35.6170590  92.5407688  44.4159871  29.5131060
  91.6105276  44.3544326  29.7301022  92.6365160  43.8935823  28.7167701
  92.4593237  40.9414683  32.1009302  92.7200055  41.8560017  31.9918462
  93.2810410  40.4739126  32.2505915 108.1807424  49.0956491  38.7883460
 108.3743314  50.0002301  39.0342735 108.0808042  48.6363910  39.6222045
  99.8343735  38.9814382  41.2873787  99.1871650  39.6804331  41.1938264
 100.6044750  39.4150525  41.6550035 103.2422533  49.2463234  44.3624340
 103.0908039  49.0173785  43.4454424 103.2327212  50.2033835  44.3755685
 100.0107869  46.8195146  39.3470607 100.9399929  46.9706306  39.1739574
  99.5898899  46.9079167  38.4919253  99.4044353  55.9454907  28.4594681
  99.5796108  55.4742951  29.2740304  98.7177141  56.5720674  28.6875942
 100.3601416  50.2227414  34.5057982 100.0251249  50.1828184  35.4015632
  99.8605362  49.5572130  34.0328392  94.3345660  45.6295044  40.0310563
  94.1965458  44.8975282  40.6322102  95.2450583  45.5403944  39.7494751
 103.2960608  47.5683448  24.7795042 102.6789778  46.8430276  24.6828095
 102.8277096  48.3292808  24.4362116  96.9627961  45.3415003  39.5194243
  97.6727579  44.7008195  39.4780861  96.9197269  45.5927898  40.4420424
 104.9514739  52.2782356  42.4400822 104.8927285  51.5941576  41.7731405
 105.3534258  53.0201346  41.9881448  95.6756895  42.3280221  41.3389883
  95.1394252  41.8770959  41.9911479  95.0873603  42.4626130  40.5960347
  95.0859153  41.7868872  23.9016346  94.2088620  41.6657673  23.5378593
  95.5616907  40.9954951  23.6495235 104.9532146  50.2421940  40.6714802
 104.0658925  49.9047862  40.7941201 105.5230698  49.5104971  40.9083567
 101.5819730  39.9489792  33.7913072 102.0788429  39.1959754  33.4714142
 100.8106711  39.9854109  33.2256281 109.4349487  45.6530158  35.4331364
 109.4239363  46.5354873  35.0625297 108.5666866  45.3001708  35.2385901
 102.6649510  48.7061479  31.3651495 101.7305789  48.8262942  31.1956200
 102.8426179  47.8033946  31.1011505  98.1654698  42.0907175  33.5184757
  97.7952486  41.5378215  34.2065662  98.6613791  41.4865309  32.9659757
 106.0522062  44.5478799  31.9001530 106.5182514  45.3806790  31.8261832
 106.5029562  44.0823780  32.6046788 104.1198293  50.8922620  28.8987682
 104.3958137  50.7779214  29.8081556 103.2502792  50.4940105  28.8599855
 104.0238724  36.9159386  35.9392431 103.1101804  37.1463612  36.1074638
 104.4531826  36.9997830  36.7906463 103.7945183  45.1049278  38.4392325
 103.1416633  45.3525185  37.7844778 104.1725563  44.2913416  38.1054802
 100.7552357  55.1408971  32.5420495 100.9374751  54.3230627  33.0048248
 101.5785343  55.3576663  32.1045385 101.0894522  54.0677156  29.8035544
 101.6182289  53.5569610  29.1905706 101.3522742  53.7519686  30.6681077
  99.8432756  45.8469089  44.9258362  99.1673393  45.7463218  45.5960737
 100.6660390  45.6908302  45.3894359  93.0372305  41.5734298  43.4110897
  93.6644343  41.1911376  44.0248421  92.1800223  41.3548500  43.7766590
 103.4366413  51.9797274  45.0164632 103.9806317  52.5927232  44.5219587
 102.8553258  52.5376852  45.5331645  89.8137847  43.3810727  29.3429252
  90.1091288  42.4721406  29.2896306  88.9125883  43.3598467  29.0210254
 101.7223926  55.1017992  36.1479660 101.5975066  54.3007731  35.6390606
 102.3803017  55.5964185  35.6593630 103.7858834  52.9027012  37.7759210
 102.8389170  52.7832363  37.7037537 104.1341608  52.0149510  37.8585472
  91.5425689  41.0624825  29.4668577  91.2138395  40.1822204  29.2843683
  91.8965060  41.0072494  30.3544966 100.7905268  52.6979728  33.9763563
 100.6430230  51.7696435  34.1571133 101.6158761  52.7199819  33.4920638
  94.6567512  41.3497795  29.8344055  94.9963585  41.8783716  29.1122663
  95.1039633  41.6878201  30.6102621 104.3939390  53.5208287  35.0628435
 105.3185937  53.3151148  34.9252886 104.2254693  53.2724688  35.9717777
  98.0027425  36.8184158  37.7374446  98.8253494  36.3444636  37.6153336
  98.2465488  37.5974642  38.2373132  96.6435659  39.8472417  28.0337347
  97.3644022  40.2253669  27.5301064  96.0200963  40.5661293  28.1372325
 100.7866782  40.5517566  28.9695680 101.0030396  41.4342203  28.6684508
 100.3060849  40.1603779  28.2401322  95.5266003  43.5103279  35.5466424
  95.3810584  43.8243582  36.4390706  95.0491207  44.1288179  34.9937323
  97.3862386  40.5005827  35.5947314  97.3723955  39.6046920  35.2579612
  98.1034814  40.5076490  36.2285600  99.2388517  40.9343167  37.6400441
  98.9806295  41.8560238  37.6384772  98.7073557  40.5373601  38.3300905
 104.1834706  54.0393954  30.4190527 104.3571583  53.4740377  29.6664379
 104.6763597  54.8394849  30.2370017  96.7899282  39.3820207  30.8634884
  96.9115193  38.4536853  31.0625772  96.5001325  39.3958893  29.9513199
  99.6590473  37.0675117  34.0001604  99.6812169  37.1314451  33.0453583
 100.0758532  36.2279626  34.1942110 110.0374097  46.8030377  32.0380826
 110.4805243  46.0537702  31.6399950 109.1600607  46.7940513  31.6554558
 105.1709878  53.3560718  27.5187425 105.8660783  53.9767411  27.7374740
 105.5133028  52.5056070  27.7939803  90.7877687  45.1778519  41.3784242
  90.0459424  45.3261155  41.9648873  90.4670432  45.4386785  40.5150992
 107.0701301  50.8060424  29.0474756 107.5952626  51.1447697  28.3224076
 106.9823654  49.8707439  28.8637890  96.2740362  40.8952204  45.0724817
  96.3228517  41.7714327  44.6902586  96.8162876  40.3529597  44.4996460
 106.7595208  51.4393328  44.3525954 105.9690751  51.4217466  43.8130453
 106.5228562  51.9781621  45.1074990 106.8793083  48.2885794  41.6658682
 106.9291087  48.1235801  42.6074205 106.7707006  47.4213053  41.2756563
  95.7629341  50.9674340  28.9550771  95.9117462  51.6509804  28.3017444
  96.5695785  50.9479430  29.4700227 104.1696845  44.2716722  42.9817989
 105.0706708  44.1323187  42.6901987 104.2444819  44.4371177  43.9216166
  98.5039650  41.6483577  41.8271175  97.6342960  41.9417143  41.5553764
  98.7399131  42.2324022  42.5478439 108.3811279  50.7082735  41.9100704
 108.0896088  51.0712716  42.7464165 107.7683411  49.9949744  41.7314036
 109.5806962  48.2735615  34.4303274 110.4153853  48.7125419  34.5940834
 109.7166090  47.7974268  33.6111520 106.6298468  45.8315350  40.3780762
 107.1052589  46.0242996  39.5699613 105.7064033  45.8874536  40.1324145
  93.5181974  46.9939517  29.9611840  93.2728016  46.0901847  30.1592050
  93.6877889  46.9956668  29.0191318 101.2078684  37.8663194  39.3436596
 101.7260628  38.6024221  39.0183084 100.8533817  38.1727187  40.1783355
  92.7877622  42.7267875  27.4598002  92.0946867  42.8012230  26.8038038
  92.5429374  41.9628219  27.9819518 101.4591278  34.2863476  34.8637492
 101.7393032  33.6186665  35.4897919 102.2441885  34.4792572  34.3512156
  99.2624747  53.4622470  26.4262519  98.6898714  54.0812657  25.9732990
  99.8357540  54.0121832  26.9602441 105.3300137  42.7081110  38.6109067
 106.2817560  42.8079208  38.6321291 105.1603587  41.9159379  39.1207152
 103.3514516  39.7936693  38.7968468 102.7564448  40.0741706  38.1014957
 103.0664213  40.2830594  39.5685209 102.4822007  53.7459620  27.5571101
 103.4152680  53.6805182  27.7603976 102.3945219  54.5815887  27.0985634
 105.1110023  53.0625491  24.5175048 105.0323655  52.7285354  25.4110806
 105.9319690  53.5547259  24.5166521 107.8088214  45.9287230  37.7251367
 107.7764535  44.9903231  37.9111051 108.4188838  46.0071267  36.9917192
  99.6471545  44.7983283  23.7678571 100.5930650  44.6689491  23.8366989
  99.2685790  44.0597945  24.2447999 107.9582703  42.7198273  37.7709650
 107.4421752  41.9356730  37.5839579 108.8422651  42.3916990  37.9356170
 105.6193430  36.4639289  33.7305463 105.4218251  36.1554377  34.6148795
 106.2293135  37.1900928  33.8603393 113.6264764  46.9903237  36.8657404
 114.3568153  46.7288525  37.4265107 113.0171710  46.2531959  36.9059472
 111.7080061  45.1311099  37.4631855 110.9813225  44.9967064  36.8548347
 111.2927348  45.4387928  38.2688573  99.5310238  48.8501029  45.2279228
 100.4513247  49.0279628  45.4219275  99.4959821  47.9057074  45.0758927
  97.8314462  42.7233259  23.7033456  96.9245918  42.4266372  23.7796170
  98.1090443  42.4263077  22.8367743  88.7492403  44.0439623  34.1532503
  88.4295187  43.1904931  33.8606877  88.2025831  44.2588201  34.9090470
  99.4476528  37.2670149  29.8577698  98.6377256  36.9217234  30.2332944
 100.1360945  36.9577693  30.4465309 101.3767076  36.3448196  31.4801994
 101.9298115  36.7643649  32.1392017 101.6137163  35.4183944  31.5224950
  97.4000176  42.3335269  47.2604758  97.2996903  43.2829626  47.1916849
  97.1821718  42.0053508  46.3880828  96.6013247  39.5820194  23.8445436
  97.4632411  39.9075093  24.1041253  96.7863591  38.7951690  23.3318501
 104.7545884  38.4548721  30.9880659 104.1744553  39.1133525  30.6058711
 104.4881816  37.6326066  30.5768076 103.2049450  37.8553779  33.1901979
 103.7049228  37.9670313  32.3816298 103.8485058  37.5514831  33.8302787
  97.2631446  45.7632408  46.0769820  96.7798527  46.5632768  46.2833709
  97.3492385  45.7740353  45.1237264 103.5370762  40.6148811  30.0437007
 102.6496617  40.8998462  29.8257202 103.9524751  40.4542575  29.1964284
 106.8885298  40.6395332  33.7591346 107.6645688  41.1291785  34.0315963
 106.1633432  41.0653387  34.2163216 109.3257856  41.3522952  34.8165287
 109.9202347  41.1118687  34.1058595 109.3984440  40.6330082  35.4438823
 102.6813975  50.3793486  24.1385027 103.3849825  50.5843488  24.7542682
 101.9576624  50.9470248  24.4034110 103.5111785  46.1303347  30.2587297
 103.4546987  46.5871899  29.4194929 104.0640128  45.3694032  30.0810140
 107.3216591  41.9193079  31.0837416 107.0653525  41.5189715  31.9145624
 106.6969459  42.6336873  30.9587556 111.6328929  44.6589152  33.5908708
 111.0728487  44.7282342  34.3640270 111.0272432  44.4830137  32.8708204
 104.5900672  50.8176015  26.1883487 105.4246276  50.3857214  26.0060962
 104.4285015  50.6458029  27.1160381 104.2446565  47.3208129  27.5539826
 104.1895368  47.1552400  26.6128270 103.6192620  48.0284161  27.7102016
 101.5592472  49.6257040  46.8793389 102.4283631  49.7997693  46.5180024
 101.0799223  50.4451457  46.7569118  97.5542690  36.8216238  27.1325145
  97.5421360  37.7658077  27.2893415  98.4466112  36.6386383  26.8384606
 101.3694810  33.4159014  31.3871081 100.6027205  32.8617501  31.5327764
 101.7805514  33.4880883  32.2485233  93.3736571  39.7043810  45.4776263
  94.2368032  39.3480615  45.6879587  92.8001981  39.3657705  46.1651667
 113.2184947  61.3345666  36.2838664 113.8563357  61.2152414  35.5802004
 113.1005790  62.2826510  36.3426616 110.0274654  61.2873094  36.2200188
 109.6893165  61.1714159  35.3320723 110.8964422  60.8864260  36.2001194
 105.8861469  63.1408571  32.2097079 105.3226335  63.0498508  31.4413367
 105.7713865  62.3208475  32.6899572 110.5094437  62.4407946  42.1786394
 110.4983078  62.0460744  41.3066897 110.6715076  61.7074019  42.7720165
 103.4325901  64.6359762  35.0481300 104.2247193  64.2950587  34.6327599
 103.6722552  64.7454737  35.9683453 111.4661028  66.8079539  27.5211544
 110.8149008  67.3933619  27.1345558 112.2605391  67.3385733  27.5806582
 105.3916655  63.8968676  27.9198678 106.1647531  63.3497663  27.7811554
 105.7442054  64.7612925  28.1313140 107.2301698  65.2245058  41.1265578
 106.9391564  66.1290689  41.0112244 107.8658682  65.2661586  41.8409647
 108.1557905  62.6021906  37.7166937 108.7521477  62.3777929  37.0023900
 108.2132876  61.8606652  38.3192385 107.7282933  60.0561342  25.5517128
 107.9808454  59.5342863  24.7900591 106.7907492  59.8927487  25.6543812
 112.7726216  59.0597120  33.3591872 113.5589305  58.6416543  33.0082289
 113.0364920  59.9643212  33.5273520 112.9436293  64.4969970  28.0580528
 112.3082126  64.5704597  28.7701433 112.6133700  65.0863569  27.3799608
 118.1734643  58.9972353  34.2624850 118.9059815  58.4271570  34.4962680
 117.4173999  58.6093954  34.7031356 107.4479222  61.9589448  27.7541503
 107.3315480  61.2834351  28.4222588 107.5581482  61.4721822  26.9373656
 109.7910763  61.4199595  31.4588193 109.4268970  60.8930216  32.1701114
 110.6477879  61.0298064  31.2854678 115.6960063  52.7093927  38.7219459
 115.3643388  53.5789338  38.4980674 115.1005677  52.3930211  39.4013489
 109.4316250  56.4489495  26.4549541 109.5990652  57.3169731  26.8220012
 109.2413419  56.6116776  25.5310830 112.1891583  64.9106473  38.1215371
 111.8892306  65.8131512  38.0131179 111.8442643  64.6438657  38.9736524
 105.6404064  61.3620270  34.1552076 104.7154561  61.2296484  34.3629768
 105.8888478  62.1414490  34.6522018 115.5888727  57.4289014  35.8012809
 114.6805604  57.3604422  35.5071570 115.5376323  57.9060959  36.6294634
 109.4105471  58.9047152  27.4396208 109.2905096  59.3504203  28.2781688
 108.7158059  59.2532470  26.8809746 103.0012876  61.0053544  34.9895865
 103.1305257  61.2588023  35.9035277 102.3210327  61.5981252  34.6700520
 107.1712363  71.6750794  31.0886339 107.0936392  72.6258619  31.1674820
 106.5674006  71.3296666  31.7461265 109.6629593  58.8478659  43.7447706
 108.8862927  59.4072579  43.7350571 110.3020156  59.3335442  44.2662576
 117.4550373  55.6305452  37.5790683 116.8124753  55.9237985  36.9330477
 116.9505302  55.5158372  38.3843879 115.1090537  59.3768625  28.2676542
 116.0208393  59.6096012  28.0924239 114.6000184  59.9605669  27.7051621
 107.9175965  61.6564113  43.3065673 108.6590649  62.1949157  43.0300497
 107.2112950  62.2830401  43.4637225 113.3931305  63.7993253  41.9037835
 113.8014661  63.3575664  41.1592467 112.6708566  63.2245881  42.1572027
 109.7462375  58.7365860  39.2771391 110.5923570  59.1605273  39.4206040
 109.6861012  58.0799484  39.9709955 113.7160119  64.3594444  35.6590123
 113.0868982  64.5240158  34.9566191 113.3285781  64.7736053  36.4301087
 117.5949351  65.2948882  33.0134487 116.9100389  65.6747783  32.4631520
 117.6793200  65.9044208  33.7466435 112.8961820  56.3970228  40.9352565
 112.6522752  57.1512289  40.3986841 113.1721750  56.7755576  41.7699812
 114.8500283  62.9408841  39.6129831 115.0617178  63.5840600  38.9364212
 114.8030031  62.1071157  39.1451761 112.4526512  55.5526661  36.5166403
 111.5910991  55.8507915  36.8083140 112.4788946  55.7697060  35.5847435
 109.2688081  64.0968852  32.9240209 109.7326427  64.3756555  32.1344831
 109.0044879  63.1952296  32.7413299 106.1612162  63.6440333  35.8619972
 106.7313519  64.0727602  35.2237456 106.7520274  63.3622918  36.5604157
 108.2056967  60.2192004  29.7329774 108.9081010  60.6713048  30.2003700
 107.8737596  59.5775823  30.3609667 106.6537329  58.8103761  44.1080983
 106.0235989  59.4920042  44.3416380 106.5473417  58.6986842  43.1634121
 101.9482301  58.4775557  35.0346907 101.1581355  58.7333085  34.5587018
 102.4393548  59.2923895  35.1398948 115.9646111  65.8180796  37.7852188
 116.7863554  65.4160983  37.5034870 115.9608513  65.7149030  38.7368304
 103.8997046  58.8420136  31.9930384 103.1028210  58.9538830  32.5113880
 103.6722639  59.1806788  31.1271274 109.7302714  65.3664839  39.9412899
 109.7947147  65.8285247  40.7771070 109.0213638  64.7362204  40.0695208
 109.4450732  67.0332947  29.8091879 109.3096406  67.8784482  30.2376727
 109.9860544  67.2352224  29.0457813 105.9318071  53.1124527  46.4706234
 105.5385017  52.5590725  47.1453878 106.7484212  53.4235105  46.8612752
 102.8980129  64.5508385  30.3819804 103.4104650  65.3451635  30.5325369
 103.5502842  63.8534675  30.3153405 104.7075014  67.6674141  32.4642557
 104.8841642  68.5892106  32.2763541 105.5031847  67.3532560  32.8936937
 108.8486032  54.5282406  44.0626491 109.5895746  55.1289559  43.9830953
 109.0803955  53.7860043  43.5044533 111.0719208  67.6556513  43.9392221
 110.6283062  66.8692892  43.6213125 111.7336422  67.8435664  43.2736112
 105.8306329  69.1852315  38.4652899 106.3813754  69.0569378  37.6929893
 104.9917805  69.4847204  38.1147792 113.1700446  67.9359313  41.9673622
 113.1518922  68.7568194  41.4753891 114.0920366  67.8113388  42.1923763
 109.6273500  65.4503443  42.8097131 110.1601837  64.6891731  42.5796439
 109.0987581  65.1577094  43.5521285 112.7943195  50.5563509  38.3390772
 112.4507465  51.4465150  38.2629883 113.1622158  50.3665166  37.4760357
 112.7593478  60.5472120  26.8463207 112.2440101  61.3176724  27.0851595
 112.4870786  59.8737256  27.4696269 110.3440589  55.3921821  31.9048446
 109.4882185  55.0028671  31.7254085 110.7567541  55.4713781  31.0448231
 111.8739736  52.9268164  36.3040006 111.3704531  52.8898299  35.4907811
 112.1670343  53.8360907  36.3636662 108.1182622  53.0106894  35.3106187
 108.9835618  52.8149702  34.9512077 108.1860130  52.7817245  36.2375544
 117.7327752  63.3004474  28.7816381 116.9557195  62.9615634  28.3371543
 118.4119233  63.3057098  28.1071346 112.5479781  58.4199212  28.6722989
 112.2429917  58.7345361  29.5233132 113.5010223  58.4980632  28.7150322
 110.9926213  64.5789435  30.3215943 110.4647575  63.8442195  30.0089180
 110.4913716  65.3564112  30.0755911 115.9719059  62.7738456  35.4382989
 115.3142733  63.4637717  35.5263118 116.7759458  63.1634888  35.7816975
 105.7244941  55.2409101  32.6822554 106.2988693  55.0184283  31.9495747
 106.3115923  55.3097796  33.4351155 114.7824518  61.1282828  33.4886931
 115.2956400  61.7612820  33.9908640 115.4325742  60.5284024  33.1230291
 106.0514528  57.2713562  26.7018439 105.2151840  57.6088249  27.0227714
 105.9119297  57.1362542  25.7645576 108.0267608  52.1150350  31.4097624
 107.3732021  51.7999368  30.7854238 107.9848082  51.4926091  32.1357446
 109.1378813  62.3969645  23.3250916 108.2305875  62.1658899  23.5242065
 109.6349845  61.6007265  23.5124897 112.0446892  71.1067153  26.2447602
 111.3708591  71.4098849  26.8532560 112.4312714  71.9096233  25.8953059
 111.2605349  58.6032284  35.7345271 110.3427910  58.8247231  35.5766959
 111.6765492  58.6778594  34.8756979 112.0440396  60.0023700  30.8647951
 112.7912215  60.5145097  30.5555073 112.3131986  59.6807752  31.7252345
 110.3167047  62.4982240  27.8474906 109.4078266  62.2141273  27.9447375
 110.3462130  62.9181319  26.9878213 115.5486314  66.1088830  31.6166073
 115.0948641  65.2679740  31.6731264 114.9180281  66.7450228  31.9540853
 114.4919234  57.0380816  32.8466741 113.7541990  56.5258202  33.1776983
 114.7446007  56.5981197  32.0350018 113.9919253  67.9465326  32.5515891
 114.2842228  68.5070384  31.8328257 114.5017874  68.2393887  33.3069051
 114.5930861  49.8157068  33.4408510 114.8989738  48.9554431  33.1534425
 115.3183466  50.4074688  33.2407504 108.8651941  60.1110861  33.9484701
 108.9200550  59.1584697  33.8727178 108.0543143  60.2670300  34.4325999
 110.0143134  64.0390984  25.1862984 109.5762564  63.3226843  24.7268622
 110.7553575  64.2667099  24.6248076 106.8044301  58.7287921  31.7075080
 105.9912166  59.0282091  32.1140272 107.3003295  58.3343609  32.4249562
 108.9552878  68.7245678  33.6409345 108.9129057  68.9506524  32.7117877
 109.8715577  68.4909052  33.7895146 112.4018512  59.1929745  40.5389974
 112.7567900  59.4201218  41.3984440 113.0490644  59.5248122  39.9167229
 118.1316249  62.3148181  31.2439303 117.9934148  62.5049777  30.3160492
 117.7752468  63.0767564  31.7007354 106.2958375  56.3006276  37.3236315
 106.9357755  56.1595035  36.6259278 105.4635906  56.0140790  36.9474917
 118.1585629  64.3824708  36.2550574 118.5922135  64.2899997  37.1033628
 118.8717210  64.3582208  35.6170590 107.0718679  65.6008707  33.4371307
 107.8659278  65.1059027  33.2353882 106.3610372  65.0726570  33.0739013
 111.8913524  67.9826802  37.7883675 111.9450546  68.5517738  38.5561391
 111.0228305  68.1528687  37.4237712 103.3801443  59.7451788  29.5131060
 102.4499031  59.6836244  29.7301022 103.4758915  59.2227741  28.7167701
 103.2986992  56.2706601  32.1009302 103.5593809  57.1851934  31.9918462
 104.1204164  55.8031044  32.2505915 104.7711917  57.6844358  39.2708126
 105.4434971  57.4761720  38.6220775 103.9441704  57.4866444  38.8313359
 119.0201178  64.4248409  38.7883460 119.2137068  65.3294219  39.0342735
 118.9201797  63.9655828  39.6222045 110.6737489  54.3106299  41.2873787
 110.0265404  55.0096249  41.1938264 111.4438505  54.7442443  41.6550035
 114.0816287  64.5755151  44.3624340 113.9301793  64.3465703  43.4454424
 114.0720967  65.5325753  44.3755685 110.8501623  62.1487064  39.3470607
 111.7793683  62.2998224  39.1739574 110.4292653  62.2371085  38.4919253
 109.6489955  66.1737729  37.1169144 109.5101041  65.8056513  37.9895083
 108.8604551  66.6885368  36.9453102 110.2438107  71.2746825  28.4594681
 110.4189863  70.8034868  29.2740304 109.5570895  71.9012591  28.6875942
 111.1995170  65.5519331  34.5057982 110.8645003  65.5120101  35.4015632
 110.6999116  64.8864047  34.0328392 105.1739414  60.9586961  40.0310563
 105.0359212  60.2267200  40.6322102 106.0844338  60.8695861  39.7494751
 114.1354362  62.8975366  24.7795042 113.5183533  62.1722194  24.6828095
 113.6670851  63.6584726  24.4362116 107.8021715  60.6706921  39.5194243
 108.5121334  60.0300113  39.4780861 107.7591023  60.9219815  40.4420424
 115.7908494  67.6074274  42.4400822 115.7321040  66.9233494  41.7731405
 116.1928012  68.3493264  41.9881448 106.5150649  57.6572139  41.3389883
 105.9788006  57.2062877  41.9911479 105.9267357  57.7918047  40.5960347
 104.8099193  74.4236188  35.2334541 105.0495791  75.0554712  35.9113560
 103.9668389  74.0724228  35.5199900 105.9252908  57.1160790  23.9016346
 105.0482374  56.9949591  23.5378593 106.4010661  56.3246868  23.6495235
 115.7925901  65.5713858  40.6714802 114.9052680  65.2339780  40.7941201
 116.3624452  64.8396889  40.9083567 102.2489770  56.7928146  38.4242877
 102.1647959  56.1853816  37.6893287 101.4272477  57.2837165  38.4252373
 109.3227054  70.2315310  37.6376045 109.2497226  71.0370282  38.1495350
 108.8804447  70.4307276  36.8124067 109.1116834  69.4687080  31.1478867
 108.3284356  70.0108760  31.2417091 109.8109579  69.9861060  31.5473108
 112.4213484  55.2781710  33.7913072 112.9182184  54.5251672  33.4714142
 111.6500466  55.3146026  33.2256281 120.2743242  60.9822075  35.4331364
 120.2633118  61.8646791  35.0625297 119.4060621  60.6293626  35.2385901
 111.7825738  70.1302144  39.7934204 112.4953710  70.7649609  39.7210105
 111.2915767  70.2266010  38.9774206 113.5043265  64.0353397  31.3651495
 112.5699544  64.1554859  31.1956200 113.6819933  63.1325864  31.1011505
 109.0048453  57.4199093  33.5184757 108.6346240  56.8670133  34.2065662
 109.5007545  56.8157226  32.9659757 116.8915816  59.8770716  31.9001530
 117.3576268  60.7098708  31.8261832 117.3423317  59.4115698  32.6046788
 106.8337651  67.8796588  40.6139775 107.5347111  68.5133071  40.7669169
 106.3632766  68.2211319  39.8535414 114.9592047  66.2214538  28.8987682
 115.2351891  66.1071132  29.8081556 114.0896546  65.8232022  28.8599855
 114.8632479  52.2451303  35.9392431 113.9495559  52.4755530  36.1074638
 115.2925580  52.3289747  36.7906463 114.6338937  60.4341195  38.4392325
 113.9810388  60.6817103  37.7844778 115.0119317  59.6205333  38.1054802
 111.5946111  70.4700888  32.5420495 111.7768506  69.6522544  33.0048248
 112.4179097  70.6868581  32.1045385 111.9288277  69.3969074  29.8035544
 112.4576043  68.8861528  29.1905706 112.1916496  69.0811604  30.6681077
 110.6826510  61.1761006  44.9258362 110.0067147  61.0755136  45.5960737
 111.5054144  61.0200220  45.3894359 102.4305369  67.4132943  37.5470877
 103.0158806  66.6676631  37.6798781 102.2330208  67.7236900  38.4307541
 105.2844025  70.4484190  32.5633320 104.6154400  70.9330318  32.0797360
 105.1456894  70.6953411  33.4776698 109.4249293  72.4827934  39.1615978
 109.9767601  72.6459555  39.9265063 109.7655487  73.0732372  38.4896003
 104.4013787  54.8303084  39.7637863 104.4655113  55.6917914  39.3515260
 104.3380907  54.2177085  39.0310221 103.8766059  56.9026216  43.4110897
 104.5038098  56.5203293  44.0248421 103.0193978  56.6840418  43.7766590
 114.2760168  67.3089191  45.0164632 114.8200072  67.9219149  44.5219587
 113.6947012  67.8668770  45.5331645 112.5617681  70.4309909  36.1479660
 112.4368820  69.6299649  35.6390606 113.2196772  70.9256103  35.6593630
 104.1825849  56.7858642  35.3256800 103.4612435  57.3994609  35.1864274
 104.9719105  57.3216407  35.2473446 114.6252589  68.2318929  37.7759210
 113.6782924  68.1124280  37.7037537 114.9735362  67.3441427  37.8585472
 106.9852162  54.1213068  41.5997452 107.5086564  54.3675365  42.3623761
 106.7664496  54.9533103  41.1800590 102.3819443  56.3916743  29.4668577
 102.0532150  55.5114122  29.2843683 102.7358814  56.3364412  30.3544966
 111.6299022  68.0271646  33.9763563 111.4823985  67.0988353  34.1571133
 112.4552516  68.0491736  33.4920638 105.4961267  56.6789713  29.8344055
 105.8357339  57.2075634  29.1122663 105.9433387  57.0170119  30.6102621
 115.2333144  68.8500204  35.0628435 116.1579692  68.6443066  34.9252886
 115.0648447  68.6016605  35.9717777 108.1904707  55.0626763  39.2847123
 107.8501528  54.2634576  39.6867803 107.4843714  55.3628474  38.7123956
 108.8421179  52.1476076  37.7374446 109.6647249  51.6736554  37.6153336
 109.0859243  52.9266560  38.2373132 107.4829414  55.1764334  28.0337347
 108.2037776  55.5545587  27.5301064 106.8594718  55.8953211  28.1372325
 111.6260537  55.8809483  28.9695680 111.8424151  56.7634121  28.6684508
 111.1454604  55.4895697  28.2401322 106.3659758  58.8395196  35.5466424
 106.2204339  59.1535499  36.4390706 105.8884962  59.4580097  34.9937323
 108.2256141  55.8297744  35.5947314 108.2117710  54.9338838  35.2579612
 108.9428569  55.8368408  36.2285600 110.0782272  56.2635085  37.6400441
 109.8200049  57.1852155  37.6384772 109.5467312  55.8665519  38.3300905
 115.0228460  69.3685872  30.4190527 115.1965338  68.8032294  29.6664379
 115.5157352  70.1686767  30.2370017 100.8405420  61.3800541  38.4854086
 100.2958888  62.1560349  38.6174360 101.7184770  61.7271345  38.3273207
 107.6293037  54.7112125  30.8634884 107.7508948  53.7828771  31.0625772
 107.3395079  54.7250811  29.9513199 110.4984227  52.3967035  34.0001604
 110.5205924  52.4606368  33.0453583 110.9152286  51.5571544  34.1942110
 120.8767851  62.1322295  32.0380826 121.3198998  61.3829620  31.6399950
 119.9994362  62.1232431  31.6554558 116.0103633  68.6852636  27.5187425
 116.7054537  69.3059329  27.7374740 116.3526783  67.8347987  27.7939803
 117.9095056  66.1352342  29.0474756 118.4346380  66.4739614  28.3224076
 117.8217408  65.1999357  28.8637890 109.5715105  70.0486415  41.1764632
 109.8802231  69.8035562  42.0487332 110.3690587  70.2533054  40.6883503
 109.5935717  72.2024325  33.4070009 109.1540707  71.7100704  34.1002866
 110.3443834  71.6597293  33.1662084 102.0728056  68.3935866  33.4094637
 102.8986076  68.0939638  33.0293281 101.7222108  67.6243488  33.8584426
 107.0409589  67.7462334  35.4792311 106.4189598  67.0833039  35.1794538
 107.7114456  67.7723466  34.7965958 107.1134116  56.2244122  45.0724817
 107.1622272  57.1006245  44.6902586 107.6556631  55.6821515  44.4996460
 117.5988962  66.7685245  44.3525954 116.8084506  66.7509384  43.8130453
 117.3622317  67.3073539  45.1074990 117.7186837  63.6177712  41.6658682
 117.7684842  63.4527719  42.6074205 117.6100760  62.7504971  41.2756563
 106.6023096  66.2966257  28.9550771 106.7511216  66.9801722  28.3017444
 107.4089539  66.2771347  29.4700227 115.0090599  59.6008640  42.9817989
 115.9100462  59.4615105  42.6901987 115.0838574  59.7663095  43.9216166
 109.3433405  56.9775494  41.8271175 108.4736714  57.2709060  41.5553764
 109.5792885  57.5615939  42.5478439 119.2205034  66.0374653  41.9100704
 118.9289842  66.4004634  42.7464165 118.6077165  65.3241661  41.7314036
 120.4200716  63.6027533  34.4303274 121.2547608  64.0417337  34.5940834
 120.5559845  63.1266186  33.6111520 117.4692222  61.1607268  40.3780762
 117.9446344  61.3534914  39.5699613 116.5457787  61.2166454  40.1324145
 104.3575729  62.3231435  29.9611840 104.1121771  61.4193765  30.1592050
 104.5271643  62.3248585  29.0191318 112.0472439  53.1955111  39.3436596
 112.5654382  53.9316138  39.0183084 111.6927571  53.5019105  40.1783355
 103.6271376  58.0559793  27.4598002 102.9340621  58.1304148  26.8038038
 103.3823128  57.2920136  27.9819518 112.2985033  49.6155394  34.8637492
 112.5786787  48.9478583  35.4897919 113.0835640  49.8084490  34.3512156
 110.1018501  68.7914388  26.4262519 109.5292468  69.4104575  25.9732990
 110.6751295  69.3413749  26.9602441 116.1693891  58.0373028  38.6109067
 117.1211314  58.1371126  38.6321291 115.9997342  57.2451296  39.1207152
 114.1908271  55.1228611  38.7968468 113.5958203  55.4033624  38.1014957
 113.9057967  55.6122512  39.5685209 113.3215761  69.0751538  27.5571101
 114.2546434  69.0097100  27.7603976 113.2338974  69.9107805  27.0985634
 115.9503778  68.3917408  24.5175048 115.8717409  68.0577272  25.4110806
 116.7713445  68.8839176  24.5166521 118.6481969  61.2579148  37.7251367
 118.6158289  60.3195148  37.9111051 119.2582593  61.3363184  36.9917192
 110.4865300  60.1275201  23.7678571 111.4324404  59.9981409  23.8366989
 110.1079545  59.3889862  24.2447999 118.7976457  58.0490191  37.7709650
 118.2815506  57.2648648  37.5839579 119.6816406  57.7208908  37.9356170
 116.4587184  51.7931207  33.7305463 116.2612005  51.4846295  34.6148795
 117.0686890  52.5192845  33.8603393 110.3703992  64.1792947  45.2279228
 111.2907002  64.3571546  45.4219275 110.3353575  63.2348992  45.0758927
 108.6708217  58.0525177  23.7033456 107.7639672  57.7558290  23.7796170
 108.9484198  57.7554995  22.8367743 103.3666065  62.0893981  37.8702009
 103.5852075  63.0211089  37.8890043 103.7791839  61.7301956  38.6556813
 110.2870283  52.5962067  29.8577698 109.4771011  52.2509152  30.2332944
 110.9754700  52.2869610  30.4465309 112.2160831  51.6740113  31.4801994
 112.7691870  52.0935567  32.1392017 112.4530917  50.7475862  31.5224950
 108.2393930  57.6627187  47.2604758 108.1390657  58.6121544  47.1916849
 108.0215472  57.3345426  46.3880828 107.4407002  54.9112112  23.8445436
 108.3026166  55.2367010  24.1041253 107.6257346  54.1243608  23.3318501
 115.5939638  53.7840639  30.9880659 115.0138307  54.4425443  30.6058711
 115.3275571  52.9617983  30.5768076 114.0443204  53.1845696  33.1901979
 114.5442983  53.2962231  32.3816298 114.6878812  52.8806749  33.8302787
 108.1025200  61.0924326  46.0769820 107.6192282  61.8924686  46.2833709
 108.1886139  61.1032271  45.1237264 104.0298538  64.9828861  38.1138254
 104.9841791  64.9512803  38.0468185 103.8311061  64.5219484  38.9288480
 104.6197920  63.5529977  40.6809051 105.4390809  64.0474055  40.7043889
 104.8934728  62.6361945  40.6526619 114.3764516  55.9440729  30.0437007
 113.4890371  56.2290380  29.8257202 114.7918505  55.7834492  29.1964284
 117.7279052  55.9687250  33.7591346 118.5039442  56.4583702  34.0315963
 117.0027186  56.3945304  34.2163216 120.1651611  56.6814869  34.8165287
 120.7596102  56.4410605  34.1058595 120.2378194  55.9622000  35.4438823
 102.3848766  70.5248480  35.1308451 102.2503234  69.7648881  34.5646450
 101.9680829  71.2489380  34.6637240 113.5207729  65.7085404  24.1385027
 114.2243580  65.9135406  24.7542682 112.7970378  66.2762166  24.4034110
 114.3505540  61.4595265  30.2587297 114.2940741  61.9163816  29.4194929
 114.9033882  60.6985950  30.0810140 118.1610346  57.2484997  31.0837416
 117.9047280  56.8481632  31.9145624 117.5363214  57.9628791  30.9587556
 122.4722684  59.9881070  33.5908708 121.9122242  60.0574259  34.3640270
 121.8666187  59.8122055  32.8708204 105.5417892  71.4217797  35.3426894
 105.4250277  72.3663230  35.2405584 104.7210339  71.1191359  35.7312693
 115.4294427  66.1467933  26.1883487 116.2640031  65.7149131  26.0060962
 115.2678770  65.9749947  27.1160381 115.0840319  62.6500046  27.5539826
 115.0289123  62.4844318  26.6128270 114.4586374  63.3576079  27.7102016
 112.3986226  64.9548958  46.8793389 113.2677386  65.1289610  46.5180024
 111.9192978  65.7743375  46.7569118 108.3936445  52.1508155  27.1325145
 108.3815114  53.0949995  27.2893415 109.2859866  51.9678301  26.8384606
 106.5672406  72.0746059  38.5582823 107.4699653  72.1069669  38.8749317
 106.3409777  71.1446510  38.5729158 108.3226009  70.8277046  35.2192901
 107.3721640  70.8278907  35.1057273 108.6258495  70.0809780  34.7028936
 112.2088564  48.7450932  31.3871081 111.4420960  48.1909419  31.5327764
 112.6199269  48.8172801  32.2485233 104.2130325  55.0335728  45.4776263
 105.0761787  54.6772532  45.6879587 103.6395736  54.6949622  46.1651667
 120.8668408  76.6165012  36.2200188 120.5286920  76.5006077  35.3320723
 121.7358176  76.2156177  36.2001194 116.7255224  78.4700489  32.2097079
 116.1620089  78.3790425  31.4413367 116.6107619  77.6500393  32.6899572
 121.3488191  77.7699864  42.1786394 121.3376832  77.3752662  41.3066897
 121.5108831  77.0365936  42.7720165 114.2719656  79.9651680  35.0481300
 115.0640948  79.6242505  34.6327599 114.5116306  80.0746655  35.9683453
 116.2310410  79.2260593  27.9198678 117.0041286  78.6789580  27.7811554
 116.5835809  80.0904843  28.1313140 118.0695452  80.5536976  41.1265578
 117.7785318  81.4582606  41.0112244 118.7052437  80.5953503  41.8409647
 118.9951659  77.9313824  37.7166937 119.5915232  77.7069847  37.0023900
 119.0526631  77.1898570  38.3192385 118.5676688  75.3853259  25.5517128
 118.8202208  74.8634781  24.7900591 117.6301247  75.2219405  25.6543812
 118.2872976  77.2881365  27.7541503 118.1709234  76.6126269  28.4222588
 118.3975236  76.8013739  26.9373656 120.6304517  76.7491513  31.4588193
 120.2662725  76.2222134  32.1701114 121.4871633  76.3589982  31.2854678
 120.2710004  71.7781412  26.4549541 120.4384407  72.6461649  26.8220012
 120.0807173  71.9408694  25.5310830 116.4797819  76.6912188  34.1552076
 115.5548315  76.5588402  34.3629768 116.7282232  77.4706407  34.6522018
 120.2499225  74.2339070  27.4396208 120.1298850  74.6796120  28.2781688
 119.5551814  74.5824387  26.8809746 113.8406630  76.3345462  34.9895865
 113.9699011  76.5879940  35.9035277 113.1604081  76.9273170  34.6700520
 118.0106117  87.0042711  31.0886339 117.9330147  87.9550537  31.1674820
 117.4067761  86.6588584  31.7461265 120.5023347  74.1770577  43.7447706
 119.7256681  74.7364497  43.7350571 121.1413910  74.6627360  44.2662576
 118.7569719  76.9856030  43.3065673 119.4984404  77.5241074  43.0300497
 118.0506705  77.6122319  43.4637225 120.5856129  74.0657778  39.2771391
 121.4317324  74.4897191  39.4206040 120.5254767  73.4091402  39.9709955
 120.1081836  79.4260769  32.9240209 120.5720181  79.7048472  32.1344831
 119.8438634  78.5244214  32.7413299 117.0005917  78.9732251  35.8619972
 117.5707274  79.4019519  35.2237456 117.5914028  78.6914836  36.5604157
 119.0450722  75.5483922  29.7329774 119.7474765  76.0004965  30.2003700
 118.7131350  74.9067741  30.3609667 117.4931083  74.1395678  44.1080983
 116.8629744  74.8211959  44.3416380 117.3867171  74.0278760  43.1634121
 112.7876056  73.8067474  35.0346907 111.9975110  74.0625003  34.5587018
 113.2787303  74.6215812  35.1398948 114.7390801  74.1712054  31.9930384
 113.9421964  74.2830748  32.5113880 114.5116393  74.5098706  31.1271274
 120.5696469  80.6956757  39.9412899 120.6340901  81.1577164  40.7771070
 119.8607392  80.0654122  40.0695208 111.0713759  74.0597965  37.4661898
 111.3221797  74.9444975  37.7319474 111.6073307  73.8802566  36.6936990
 120.2844486  82.3624864  29.8091879 120.1490161  83.2076400  30.2376727
 120.8254299  82.5644142  29.0457813 116.7711826  68.4416444  46.4706234
 116.3778771  67.8882643  47.1453878 117.5877966  68.7527023  46.8612752
 113.7373884  79.8800302  30.3819804 114.2498404  80.6743553  30.5325369
 114.3896596  79.1826593  30.3153405 115.5468768  82.9966059  32.4642557
 115.7235397  83.9184023  32.2763541 116.3425602  82.6824478  32.8936937
 119.6879787  69.8574323  44.0626491 120.4289500  70.4581477  43.9830953
 119.9197710  69.1151961  43.5044533 114.8321125  75.0430691  42.3404720
 114.7174640  74.1415948  42.6411819 113.9765643  75.2894387  41.9889537
 116.6700084  84.5144233  38.4652899 117.2207509  84.3861296  37.6929893
 115.8311560  84.8139122  38.1147792 120.4667255  80.7795360  42.8097131
 120.9995592  80.0183649  42.5796439 119.9381336  80.4869012  43.5521285
 111.7022800  78.2088957  31.1579374 112.5398022  78.6185965  30.9413082
 111.8801068  77.2688399  31.1279568 121.1834344  70.7213738  31.9048446
 120.3275940  70.3320589  31.7254085 121.5961295  70.8005699  31.0448231
 118.9576376  68.3398811  35.3106187 119.8229373  68.1441620  34.9512077
 119.0253885  68.1109163  36.2375544 121.8319968  79.9081353  30.3215943
 121.3041329  79.1734112  30.0089180 121.3307470  80.6856029  30.0755911
 116.5638695  70.5701019  32.6822554 117.1382447  70.3476201  31.9495747
 117.1509678  70.6389714  33.4351155 116.8908282  72.6005480  26.7018439
 116.0545594  72.9380167  27.0227714 116.7513052  72.4654460  25.7645576
 118.8661363  67.4442268  31.4097624 118.2125775  67.1291285  30.7854238
 118.8241837  66.8218008  32.1357446 119.9772568  77.7261563  23.3250916
 119.0699629  77.4950817  23.5242065 120.4743600  76.9299182  23.5124897
 121.1560801  77.8274158  27.8474906 120.2472020  77.5433191  27.9447375
 121.1855885  78.2473237  26.9878213 111.7248972  75.5479672  31.8290108
 111.5273371  74.9549033  31.1041175 111.1695636  75.2431882  32.5466047
 119.7045695  75.4402779  33.9484701 119.7594305  74.4876615  33.8727178
 118.8936897  75.5962218  34.4325999 120.8536889  79.3682902  25.1862984
 120.4156319  78.6518761  24.7268622 121.5947330  79.5959016  24.6248076
 117.6438055  74.0579838  31.7075080 116.8305921  74.3574009  32.1140272
 118.1397049  73.6635527  32.4249562 119.7946633  84.0537595  33.6409345
 119.7522812  84.2798442  32.7117877 120.7109332  83.8200970  33.7895146
 117.1352130  71.6298194  37.3236315 117.7751509  71.4886953  36.6259278
 116.3029660  71.3432707  36.9474917 117.9112434  80.9300624  33.4371307
 118.7053032  80.4350944  33.2353882 117.2004126  80.4018487  33.0739013
 114.2195197  75.0743706  29.5131060 113.2892785  75.0128161  29.7301022
 114.3152669  74.5519659  28.7167701 114.1380746  71.5998519  32.1009302
 114.3987564  72.5143852  31.9918462 114.9597919  71.1322961  32.2505915
 115.6105672  73.0136276  39.2708126 116.2828725  72.8053638  38.6220775
 114.7835458  72.8158362  38.8313359 121.5131244  69.6398217  41.2873787
 120.8659159  70.3388167  41.1938264 122.2832259  70.0734361  41.6550035
 120.4883710  81.5029646  37.1169144 120.3494795  81.1348431  37.9895083
 119.6998306  82.0177286  36.9453102 121.0831862  86.6038743  28.4594681
 121.2583617  86.1326786  29.2740304 120.3964650  87.2304509  28.6875942
 122.0388925  80.8811249  34.5057982 121.7038758  80.8412019  35.4015632
 121.5392871  80.2155965  34.0328392 116.0133169  76.2878879  40.0310563
 115.8752967  75.5559118  40.6322102 116.9238092  76.1987779  39.7494751
 118.6415470  75.9998838  39.5194243 119.3515088  75.3592030  39.4780861
 118.5984778  76.2511733  40.4420424 117.3544404  72.9864056  41.3389883
 116.8181761  72.5354795  41.9911479 116.7661112  73.1209965  40.5960347
 115.6492947  89.7528105  35.2334541 115.8889545  90.3846630  35.9113560
 114.8062143  89.4016146  35.5199900 116.7646662  72.4452708  23.9016346
 115.8876129  72.3241508  23.5378593 117.2404416  71.6538786  23.6495235
 108.2848803  77.2329867  33.9957853 108.9719842  76.9191597  33.4078869
 108.1296931  78.1371232  33.7225105 113.0883525  72.1220064  38.4242877
 113.0041713  71.5145733  37.6893287 112.2666231  72.6129082  38.4252373
 120.1620809  85.5607228  37.6376045 120.0890980  86.3662199  38.1495350
 119.7198202  85.7599194  36.8124067 119.9510588  84.7978998  31.1478867
 119.1678110  85.3400678  31.2417091 120.6503334  85.3152978  31.5473108
 119.8442207  72.7491010  33.5184757 119.4739995  72.1962051  34.2065662
 120.3401300  72.1449144  32.9659757 117.6731406  83.2088505  40.6139775
 118.3740865  83.8424988  40.7669169 117.2026521  83.5503237  39.8535414
 121.5220265  76.5052924  44.9258362 120.8460902  76.4047053  45.5960737
 122.3447899  76.3492138  45.3894359 113.2699124  82.7424860  37.5470877
 113.8552561  81.9968548  37.6798781 113.0723962  83.0528817  38.4307541
 116.1237779  85.7776108  32.5633320 115.4548154  86.2622235  32.0797360
 115.9850649  86.0245328  33.4776698 107.8616779  75.3130461  36.2675320
 107.9000878  74.7794051  37.0612439 107.3557072  74.7865666  35.6486298
 120.2643048  87.8119851  39.1615978 120.8161356  87.9751473  39.9265063
 120.6049241  88.4024289  38.4896003 115.2407541  70.1595001  39.7637863
 115.3048868  71.0209832  39.3515260 115.1774661  69.5469003  39.0310221
 114.7159814  72.2318134  43.4110897 115.3431852  71.8495211  44.0248421
 113.8587732  72.0132336  43.7766590 111.4925356  74.0394563  29.3429252
 111.7878797  73.1305241  29.2896306 110.5913392  74.0182302  29.0210254
 115.0219603  72.1150559  35.3256800 114.3006189  72.7286527  35.1864274
 115.8112859  72.6508324  35.2473446 117.8245917  69.4504986  41.5997452
 118.3480319  69.6967282  42.3623761 117.6058250  70.2825021  41.1800590
 113.2213198  71.7208660  29.4668577 112.8925904  70.8406039  29.2843683
 113.5752569  71.6656329  30.3544966 116.3355021  72.0081630  29.8344055
 116.6751094  72.5367552  29.1122663 116.7827142  72.3462036  30.6102621
 119.0298462  70.3918681  39.2847123 118.6895282  69.5926494  39.6867803
 118.3237468  70.6920392  38.7123956 119.6814934  67.4767993  37.7374446
 120.5041003  67.0028472  37.6153336 119.9252997  68.2558477  38.2373132
 118.3223168  70.5056252  28.0337347 119.0431531  70.8837505  27.5301064
 117.6988472  71.2245129  28.1372325 117.2053512  74.1687114  35.5466424
 117.0598093  74.4827417  36.4390706 116.7278716  74.7872014  34.9937323
 119.0649895  71.1589662  35.5947314 119.0511464  70.2630755  35.2579612
 119.7822323  71.1660326  36.2285600 120.9176026  71.5927002  37.6400441
 120.6593804  72.5144073  37.6384772 120.3861066  71.1957437  38.3300905
 111.6799175  76.7092458  38.4854086 111.1352643  77.4852266  38.6174360
 112.5578524  77.0563263  38.3273207 118.4686791  70.0404042  30.8634884
 118.5902702  69.1120689  31.0625772 118.1788834  70.0542728  29.9513199
 121.3377982  67.7258953  34.0001604 121.3599678  67.7898286  33.0453583
 121.7546041  66.8863461  34.1942110 112.4665196  75.8362355  41.3784242
 111.7246933  75.9844990  41.9648873 112.1457941  76.0970620  40.5150992
 120.4108859  85.3778333  41.1764632 120.7195986  85.1327480  42.0487332
 121.2084341  85.5824971  40.6883503 120.4329471  87.5316243  33.4070009
 119.9934461  87.0392621  34.1002866 121.1837588  86.9889210  33.1662084
 112.9121810  83.7227783  33.4094637 113.7379830  83.4231555  33.0293281
 112.5615862  82.9535406  33.8584426 117.8803343  83.0754252  35.4792311
 117.2583353  82.4124957  35.1794538 118.5508210  83.1015384  34.7965958
 111.1130415  81.6414110  34.3683571 110.2762324  81.2136284  34.1867572
 111.0854061  81.8346553  35.3054362 117.9527871  71.5536040  45.0724817
 118.0016026  72.4298163  44.6902586 118.4950385  71.0113433  44.4996460
 117.4416850  81.6258175  28.9550771 117.5904971  82.3093639  28.3017444
 118.2483294  81.6063265  29.4700227 120.1827159  72.3067412  41.8271175
 119.3130469  72.6000978  41.5553764 120.4186640  72.8907857  42.5478439
 115.1969483  77.6523353  29.9611840 114.9515525  76.7485683  30.1592050
 115.3665398  77.6540503  29.0191318 114.4665131  73.3851710  27.4598002
 113.7734376  73.4596065  26.8038038 114.2216883  72.6212054  27.9819518
 120.9412256  84.1206305  26.4262519 120.3686223  84.7396493  25.9732990
 121.5145049  84.6705667  26.9602441 121.3259054  75.4567118  23.7678571
 122.2718159  75.3273326  23.8366989 120.9473299  74.7181780  24.2447999
 121.2097747  79.5084864  45.2279228 122.1300756  79.6863463  45.4219275
 121.1747330  78.5640910  45.0758927 119.5101971  73.3817095  23.7033456
 118.6033427  73.0850207  23.7796170 119.7877952  73.0846913  22.8367743
 110.4279912  74.7023458  34.1532503 110.1082696  73.8488766  33.8606877
 109.8813340  74.9172036  34.9090470 114.2059819  77.4185899  37.8702009
 114.4245829  78.3503007  37.8890043 114.6185593  77.0593873  38.6556813
 121.1264037  67.9253984  29.8577698 120.3164765  67.5801069  30.2332944
 121.8148454  67.6161528  30.4465309 119.0787685  72.9919105  47.2604758
 118.9784412  73.9413462  47.1916849 118.8609227  72.6637344  46.3880828
 118.2800756  70.2404030  23.8445436 119.1419920  70.5658928  24.1041253
 118.4651100  69.4535526  23.3318501 110.2968172  78.3226370  36.1225624
 109.6031643  77.9080322  35.6095579 111.0441163  78.3646906  35.5259043
 118.9418955  76.4216244  46.0769820 118.4586036  77.2216604  46.2833709
 119.0279894  76.4324188  45.1237264 112.2104914  78.2544623  33.9991639
 112.1875602  78.3532311  33.0473522 112.5205551  79.1009774  34.3208805
 114.8692292  80.3120778  38.1138254 115.8235546  80.2804721  38.0468185
 114.6704816  79.8511402  38.9288480 115.4591674  78.8821894  40.6809051
 116.2784563  79.3765973  40.7043889 115.7328482  77.9653863  40.6526619
 113.2242521  85.8540398  35.1308451 113.0896989  85.0940799  34.5646450
 112.8074583  86.5781298  34.6637240 116.3811647  86.7509715  35.3426894
 116.2644031  87.6955147  35.2405584 115.5604093  86.4483276  35.7312693
 110.7126589  73.2160028  41.3801248 111.3585452  72.7058982  41.8688473
 110.5043740  73.9528710  41.9544674 119.2330199  67.4800073  27.1325145
 119.2208869  68.4241913  27.2893415 120.1253621  67.2970218  26.8384606
 117.4066161  87.4037977  38.5582823 118.3093408  87.4361587  38.8749317
 117.1803531  86.4738428  38.5729158 119.1619763  86.1568963  35.2192901
 118.2115394  86.1570825  35.1057273 119.4652249  85.4101698  34.7028936
 115.0524080  70.3627645  45.4776263 115.9155541  70.0064450  45.6879587
 114.4789490  70.0241540  46.1651667 121.9107513  89.3889883  37.4661898
 122.1615551  90.2736893  37.7319474 122.4467061  89.2094484  36.6936990
 119.1242557  92.5621785  33.9957853 119.8113597  92.2483515  33.4078869
 118.9690686  93.4663150  33.7225105 118.7010533  90.6422378  36.2675320
 118.7394633  90.1085969  37.0612439 118.1950826  90.1157584  35.6486298
 121.9524170  96.9706028  34.3683571 121.1156078  96.5428202  34.1867572
 121.9247815  97.1638471  35.3054362 121.2673666  90.0315376  34.1532503
 120.9476451  89.1780684  33.8606877 120.7207094  90.2463954  34.9090470
 121.1361926  93.6518287  36.1225624 120.4425398  93.2372240  35.6095579
 121.8834917  93.6938824  35.5259043 121.5520343  88.5451946  41.3801248
 122.1979207  88.0350900  41.8688473 121.3437494  89.2820628  41.9544674
  74.6531101   2.6937163  17.8131646  74.5755130   3.6444988  17.8920126
  74.0492744   2.3483036  18.4706572  72.2917930   5.4422557  21.9579848
  72.5314529   6.0741082  22.6358866  71.4487127   5.0910597  22.2445207
  72.7662762   1.4670560  19.2878626  72.0973138   1.9516687  18.8042666
  72.6275632   1.7139780  20.2022005  76.9068031   3.5014303  25.8861285
  77.4586339   3.6645925  26.6510370  77.2474225   4.0918741  25.2141310
  77.0754454   3.2210694  20.1315316  76.6359445   2.7287073  20.8248172
  77.8262571   2.6783662  19.8907391  69.8667504   1.5434850  21.8553758
  69.7321972   0.7835251  21.2891756  69.4499567   2.2675750  21.3882547
  73.0236630   2.4404167  22.0672201  72.9069014   3.3849599  21.9650891
  72.2029076   2.1377728  22.4558000  74.0491144   3.0932429  25.2828129
  74.9518391   3.1256039  25.5994624  73.8228514   2.1632880  25.2974465
  88.3487146   7.6351382  22.9445495  88.0105658   7.5192446  22.0566030
  89.2176914   7.2342547  22.9246501  84.2073962   9.4886858  18.9342386
  83.6438827   9.3976795  18.1658674  84.0926357   8.6686763  19.4144878
  88.8306929   8.7886233  28.9031700  88.8195570   8.3939032  28.0312204
  88.9927569   8.0552306  29.4965472  81.7538394  10.9838050  21.7726606
  82.5459686  10.6428874  21.3572906  81.9935044  11.0933025  22.6928760
  89.7873520  13.1557826  14.2456851  89.1361500  13.7411906  13.8590865
  90.5817883  13.6864021  14.3051888  83.7129148  10.2446963  14.6443985
  84.4860024   9.6975950  14.5056861  84.0654546  11.1091212  14.8558446
  85.5514190  11.5723345  27.8510884  85.2604056  12.4768976  27.7357551
  86.1871175  11.6139873  28.5654954  86.4770397   8.9500194  24.4412244
  87.0733969   8.7256216  23.7269207  86.5345369   8.2084939  25.0437692
  85.7691714   8.3067735  14.4786810  85.6527972   7.6312638  15.1467894
  85.8793974   7.8200109  13.6618963  88.1123255   7.7677882  18.1833499
  87.7481462   7.2408503  18.8946421  88.9690371   7.3776351  18.0099985
  90.5104075  11.2584761  24.8460678  90.2104798  12.1609800  24.7376485
  90.1655135  10.9916944  25.6981831  83.9616557   7.7098558  20.8797382
  83.0367053   7.5774772  21.0875074  84.2100970   8.4892777  21.3767325
  81.3225368   7.3531831  21.7141172  81.4517749   7.6066310  22.6280583
  80.6422819   7.9459539  21.3945827  85.4924855  18.0229081  17.8131646
  85.4148885  18.9736906  17.8920126  84.8886499  17.6774954  18.4706572
  86.2388457   8.0042400  30.0310980  86.9803142   8.5427444  29.7545803
  85.5325443   8.6308689  30.1882531  91.7143797  10.1471540  28.6283141
  92.1227153   9.7053951  27.8837774  90.9921058   9.5724168  28.8817334
  92.0372611  10.7072731  22.3835430  91.4081474  10.8718445  21.6811498
  91.6498274  11.1214340  23.1546394  95.9161843  11.6427169  19.7379794
  95.2312881  12.0226070  19.1876827  96.0005693  12.2522495  20.4711742
  93.1712775   9.2887128  26.3375137  93.3829670   9.9318888  25.6609518
  93.1242523   8.4549444  25.8697067  87.5900573  10.4447139  19.6485515
  88.0538919  10.7234842  18.8590138  87.3257371   9.5430584  19.4658606
  84.4824654   9.9918621  22.5865278  85.0526011  10.4205889  21.9482763
  85.0732766   9.7101205  23.2849464  86.5269459   6.5670291  16.4575080
  87.2293503   7.0191335  16.9249007  86.1950088   5.9254110  17.0854973
  84.9749821   5.1582048  30.8326290  84.3448481   5.8398329  31.0661686
  84.8685909   5.0465130  29.8879428  80.2694793   4.8253844  21.7592214
  79.4793847   5.0811373  21.2832324  80.7606041   5.6402182  21.8644254
  94.2858603  12.1659083  24.5097495  95.1076047  11.7639270  24.2280176
  94.2821006  12.0627317  25.4613610  82.2209539   5.1898423  18.7175691
  81.4240702   5.3017118  19.2359186  81.9935131   5.5285076  17.8516581
  88.0515206  11.7143127  26.6658205  88.1159639  12.1763534  27.5016377
  87.3426130  11.0840491  26.7940515  78.5532496   5.0784334  24.1907205
  78.8040535   5.9631344  24.4564781  79.0892045   4.8988936  23.4182296
  87.7663224  13.3811234  16.5337185  87.6308899  14.2262770  16.9622033
  88.3073036  13.5830512  15.7703119  81.2192621  10.8986672  17.1065111
  81.7317142  11.6929922  17.2570675  81.8715334  10.2012962  17.0398712
  83.0287506  14.0152428  19.1887864  83.2054134  14.9370393  19.0008848
  83.8244340  13.7010848  19.6182244  82.3139863   6.0617060  29.0650027
  82.1993378   5.1602317  29.3657126  81.4584380   6.3080757  28.7134844
  89.3931700  14.0034801  30.6637528  88.9495555  13.2171179  30.3458432
  90.0548914  14.1913951  29.9981418  84.1518822  15.5330602  25.1898206
  84.7026247  15.4047665  24.4175200  83.3130297  15.8325491  24.8393099
  91.4912938  14.2837600  28.6918929  91.4731414  15.1046481  28.1999198
  92.4132858  14.1591676  28.9169070  87.9485993  11.7981730  29.5342437
  88.4814329  11.0370018  29.3041745  87.4200074  11.5055382  30.2766592
  79.1841538   9.2275326  17.8824681  80.0216760   9.6372335  17.6658389
  79.3619806   8.2874769  17.8524875  89.3138705  10.9267722  17.0461249
  88.7860067  10.1920482  16.7334487  88.8126208  11.7042399  16.8001218
  94.2931551   9.1216743  22.1628296  93.6355226   9.8116004  22.2508424
  95.0971951   9.5113175  22.5062282  90.3659384  17.4545440  12.9692908
  89.6921083  17.7577137  13.5777866  90.7525206  18.2574520  12.6198365
  93.8698806  12.4567117  18.3411380  93.4161133  11.6158027  18.3976570
  93.2392773  13.0928515  18.6786160  92.3131746  14.2943614  19.2761198
  92.6054720  14.8548671  18.5573564  92.8230366  14.5872175  20.0314357
  79.2067709   6.5666042  18.5535415  79.0092109   5.9735402  17.8286481
  78.6514373   6.2618252  19.2711353  87.2765371  15.0723965  20.3654651
  87.2341550  15.2984811  19.4363183  88.1928070  14.8387339  20.5140452
  96.4798121  10.7302995  22.9795881  96.9134628  10.6378284  23.8278935
  97.1929702  10.7060496  22.3415897  85.3931172  11.9486994  20.1616614
  86.1871770  11.4537314  19.9599189  84.6822864  11.4204857  19.7984320
  90.2126016  14.3305089  24.5128982  90.2663038  14.8996026  25.2806698
  89.3440797  14.5006974  24.1483019  81.7013935   6.0930076  16.2376367
  80.7711523   6.0314531  16.4546329  81.7971407   5.5706028  15.4413008
  97.3413671  10.7726696  25.5128766  97.5349561  11.6772506  25.7588041
  97.2414289  10.3134115  26.3467351  92.4028779  10.9233439  31.0869647
  92.2514286  10.6943990  30.1699731  92.3933459  11.8804040  31.1000992
  89.1714116   8.4965351  26.0715913  90.1006176   8.6476511  25.8984881
  88.7505146   8.5849372  25.2164560  87.9702448  12.5216016  23.8414451
  87.8313533  12.1534800  24.7140389  87.1817044  13.0363655  23.6698409
  88.5650600  17.6225112  15.1839988  88.7402355  17.1513155  15.9985610
  87.8783388  18.2490878  15.4121248  89.5207663  11.8997619  21.2303289
  89.1857495  11.8598388  22.1260939  89.0211608  11.2342334  20.7573699
  83.4951907   7.3065249  26.7555870  83.3571705   6.5745487  27.3567409
  84.4056830   7.2174149  26.4740058  86.1234207   7.0185208  26.2439550
  86.8333826   6.3778400  26.2026168  86.0803515   7.2698103  27.1665730
  94.1120986  13.9552561  29.1646129  94.0533532  13.2711781  28.4976712
  94.5140504  14.6971551  28.7126755  83.1311685  20.7714475  21.9579848
  83.3708283  21.4032999  22.6358866  82.2880881  20.4202515  22.2445207
  94.1138393  11.9192145  27.3960109  93.2265172  11.5818067  27.5186507
  94.6836944  11.1875176  27.6328874  75.7667540   8.2516237  20.7203160
  76.4538580   7.9377967  20.1324175  75.6115669   9.1557602  20.4470411
  87.6439547  16.5793597  24.3621352  87.5709718  17.3848569  24.8740656
  87.2016940  16.7785563  23.5369373  87.4329326  15.8165368  17.8724173
  86.6496848  16.3587048  17.9662398  88.1322071  16.3339347  18.2718414
  90.1038230  16.4780432  26.5179510  90.8166202  17.1127896  26.4455412
  89.6128259  16.5744298  25.7019512  91.8255757  10.3831684  18.0896802
  90.8912036  10.5033147  17.9201506  92.0032426   9.4804151  17.8256812
  85.1550144  14.2274875  27.3385081  85.8559603  14.8611358  27.4914475
  84.6845259  14.5689607  26.5780721  89.9158604  16.8179176  19.2665802
  90.0980998  16.0000832  19.7293554  90.7391590  17.0346868  18.8290692
  90.2500769  15.7447361  16.5280850  90.7788535  15.2339815  15.9151012
  90.5128989  15.4289891  17.3926383  89.0039003   7.5239293  31.6503669
  88.3279640   7.4233423  32.3206044  89.8266637   7.3678507  32.1139666
  80.7517862  13.7611230  24.2716184  81.3371299  13.0154918  24.4044088
  80.5542700  14.0715187  25.1552848  83.6056517  16.7962477  19.2878626
  82.9366892  17.2808605  18.8042666  83.4669387  17.0431698  20.2022005
  75.3435517   6.3316830  22.9920627  75.3819616   5.7980421  23.7857745
  74.8375809   5.8052036  22.3731604  87.7461786  18.8306221  25.8861285
  88.2980094  18.9937842  26.6510370  88.0867979  19.4210659  25.2141310
  92.5972660  13.6567478  31.7409939  93.1412564  14.2697437  31.2464894
  92.0159505  14.2147057  32.2576952  78.9744094   5.0580932  16.0674558
  79.2697535   4.1491611  16.0141612  78.0732130   5.0368672  15.7455561
  90.8830173  16.7788196  22.8724967  90.7581312  15.9777936  22.3635912
  91.5409264  17.2734390  22.3838937  92.9465081  14.5797217  24.5004517
  91.9995417  14.4602568  24.4282844  93.2947854  13.6919715  24.5830778
  89.9511515  14.3749933  20.7008869  89.8036477  13.4466640  20.8816439
  90.7765008  14.3970023  20.2165944  93.5545636  15.1978491  21.7873742
  94.4792184  14.9921353  21.6498193  93.3860940  14.9494893  22.6963083
  84.6872250   5.1873484  22.2711731  84.5416831   5.5013787  23.1636012
  84.2097454   5.8058384  21.7182630  93.3440953  15.7164159  17.1435833
  93.5177830  15.1510581  16.3909686  93.8369844  16.5165054  16.9615323
  79.1617912   7.7278828  25.2099392  78.6171380   8.5038636  25.3419666
  80.0397262   8.0749633  25.0518514  79.9483934   6.8548724  28.1029549
  79.2065670   7.0031360  28.6894179  79.6276679   7.1156990  27.2396298
  87.8927597  16.3964703  27.9009939  88.2014723  16.1513849  28.7732639
  88.6903079  16.6011341  27.4128809  87.9148209  18.5502612  20.1315316
  87.4753199  18.0578991  20.8248172  88.6656326  18.0075580  19.8907391
  80.3940548  14.7414153  20.1339944  81.2198568  14.4417925  19.7538587
  80.0434600  13.9721775  20.5829732  85.3622081  14.0940621  22.2037617
  84.7402090  13.4311326  21.9039845  86.0326948  14.1201753  21.5211265
  78.5949153  12.6600479  21.0928877  77.7581061  12.2322654  20.9112879
  78.5672798  12.8532923  22.0299668  95.9201454  13.1163533  31.0771260
  95.1296998  13.0987671  30.5375760  95.6834809  13.6551826  31.8320297
  96.0399329   9.9655999  28.3903989  96.0897334   9.8006006  29.3319512
  95.9313253   9.0983258  28.0001870  84.9235588  12.6444545  15.6796078
  85.0723708  13.3280009  15.0262751  85.7302031  12.6249635  16.1945534
  97.5417526  12.3852940  28.6346010  97.2502334  12.7482921  29.4709471
  96.9289657  11.6719949  28.4559343  82.6788221   8.6709722  16.6857147
  82.4334263   7.7672052  16.8837357  82.8484136   8.6726873  15.7436625
  88.4230994  15.1392675  13.1507825  87.8504961  15.7582862  12.6978297
  88.9963787  15.6892037  13.6847747  91.6428253  15.4229825  14.2816407
  92.5758926  15.3575387  14.4849283  91.5551466  16.2586092  13.8230940
  88.6916485  10.5271234  31.9524535  89.6119494  10.7049833  32.1464581
  88.6566068   9.5827279  31.8004234  77.9098650   5.7209828  20.8777809
  77.5901434   4.8675136  20.5852183  77.3632078   5.9358406  21.6335777
  81.6878557   8.4372269  24.5947316  81.9064567   9.3689376  24.6135350
  82.1004331   8.0780243  25.3802120  77.7786910   9.3412739  22.8470931
  77.0850381   8.9266692  22.3340885  78.5259901   9.3833276  22.2504350
  86.4237692   7.4402613  32.8015126  85.9404774   8.2402973  33.0079015
  86.5098632   7.4510558  31.8482570  79.6923652   9.2730993  20.7236946
  79.6694340   9.3718680  19.7718829  80.0024289  10.1196144  21.0454112
  82.3511030  11.3307148  24.8383560  83.3054284  11.2991090  24.7713492
  82.1523554  10.8697772  25.6533786  82.9410412   9.9008264  27.4054358
  83.7603301  10.3952343  27.4289195  83.2147220   8.9840232  27.3771925
  80.7061259  16.8726767  21.8553758  80.5715727  16.1127168  21.2891756
  80.2893321  17.5967667  21.3882547  83.8630385  17.7696084  22.0672201
  83.7462769  18.7141517  21.9650891  83.0422831  17.4669646  22.4558000
  78.1945326   4.2346398  28.1046555  78.8404190   3.7245352  28.5933780
  77.9862477   4.9715079  28.6789980  90.7198719  11.3027245  33.6038696
  91.5889878  11.4767898  33.2425330  90.2405470  12.1221662  33.4814425
  84.8884899  18.4224346  25.2828129  85.7912145  18.4547957  25.5994624
  84.6622269  17.4924797  25.2974465  86.6438501  17.1755333  21.9438208
  85.6934132  17.1757194  21.8302580  86.9470987  16.4288067  21.4274242
 102.3791194  23.0115871  23.0083970 103.0169604  22.8922619  22.3047310
 102.2612037  23.9596715  23.0671922  99.1880901  22.9643299  22.9445495
  98.8499412  22.8484364  22.0566030 100.0570669  22.5634464  22.9246501
  95.0467716  24.8178776  18.9342386  94.4832581  24.7268713  18.1658674
  94.9320111  23.9978680  19.4144878  99.6700684  24.1178151  28.9031700
  99.6589324  23.7230949  28.0312204  99.8321323  23.3844224  29.4965472
  92.5932148  26.3129967  21.7726606  93.3853440  25.9720792  21.3572906
  92.8328798  26.4224942  22.6928760 100.6267275  28.4849743  14.2456851
  99.9755255  29.0703824  13.8590865 101.4211638  29.0155938  14.3051888
  94.5522902  25.5738881  14.6443985  95.3253778  25.0267868  14.5056861
  94.9048301  26.4383130  14.8558446  96.3907945  26.9015263  27.8510884
  96.0997811  27.8060894  27.7357551  97.0264929  26.9431790  28.5654954
  97.3164152  24.2792111  24.4412244  97.9127724  24.0548134  23.7269207
  97.3739123  23.5376857  25.0437692 101.9332463  20.7367325  20.0837178
 102.7195552  20.3186748  19.7327595 102.1971167  21.6413417  20.2518827
  96.6085469  23.6359653  14.4786810  96.4921727  22.9604556  15.1467894
  96.7187729  23.1492027  13.6618963  98.9517010  23.0969800  18.1833499
  98.5875217  22.5700421  18.8946421  99.8084126  22.7068269  18.0099985
 104.8566310  14.3864132  25.4464765 104.5249635  15.2559543  25.2225980
 104.2611924  14.0700416  26.1258796 101.3497830  26.5876678  24.8460678
 101.0498553  27.4901717  24.7376485 101.0048889  26.3208862  25.6981831
  94.8010311  23.0390475  20.8797382  93.8760808  22.9066689  21.0875074
  95.0494724  23.8184694  21.3767325 104.7494974  19.1059219  22.5258115
 103.8411851  19.0374627  22.2316876 104.6982569  19.5831163  23.3539941
  92.1619122  22.6823749  21.7141172  92.2911503  22.9358228  22.6280583
  91.4816574  23.2751457  21.3945827  96.3318610  33.3520999  17.8131646
  96.2542639  34.3028824  17.8920126  95.7280253  33.0066871  18.4706572
  98.8235839  20.5248864  30.4693013  98.0469173  21.0842784  30.4595877
  99.4626402  21.0105647  30.9907883 106.6156620  17.3075657  24.3035989
 105.9731000  17.6008190  23.6575784 106.1111548  17.1928577  25.1089186
  97.0782212  23.3334318  30.0310980  97.8196896  23.8719361  29.7545803
  96.3719197  23.9600606  30.1882531 102.5537551  25.4763458  28.6283141
 102.9620907  25.0345868  27.8837774 101.8314813  24.9016085  28.8817334
  98.9068621  20.4136065  26.0016698  99.7529817  20.8375478  26.1451347
  98.8467259  19.7569689  26.6955261 102.8766366  26.0364649  22.3835430
 102.2475228  26.2010363  21.6811498 102.4892028  26.4506258  23.1546394
 106.7555598  26.9719086  19.7379794 106.0706636  27.3517988  19.1876827
 106.8399447  27.5814413  20.4711742 102.0568067  18.0740433  27.6597872
 101.8128999  18.8282494  27.1232147 102.3327997  18.4525781  28.4945119
 104.0106529  24.6179045  26.3375137 104.2223425  25.2610805  25.6609518
 103.9636278  23.7841362  25.8697067 101.6132758  17.2296866  23.2411709
 100.7517237  17.5278120  23.5328447 101.6395193  17.4467265  22.3092742
  98.4294328  25.7739057  19.6485515  98.8932673  26.0526760  18.8590138
  98.1651126  24.8722501  19.4658606  95.3218409  25.3210538  22.5865278
  95.8919766  25.7497807  21.9482763  95.9126521  25.0393123  23.2849464
  97.3663214  21.8962209  16.4575080  98.0687257  22.3483253  16.9249007
  97.0343842  21.2546028  17.0854973  95.8143575  20.4873966  30.8326290
  95.1842236  21.1690247  31.0661686  95.7079663  20.3757047  29.8879428
  91.1088548  20.1545762  21.7592214  90.3187602  20.4103290  21.2832324
  91.5999795  20.9694100  21.8644254 105.1252357  27.4951001  24.5097495
 105.9469801  27.0931188  24.2280176 105.1214760  27.3919235  25.4613610
  93.0603293  20.5190341  18.7175691  92.2634456  20.6309035  19.2359186
  92.8328885  20.8576993  17.8516581  98.8908961  27.0435044  26.6658205
  98.9553393  27.5055451  27.5016377  98.1819885  26.4132409  26.7940515
  89.3926251  20.4076252  24.1907205  89.6434289  21.2923262  24.4564781
  89.9285799  20.2280854  23.4182296  98.6056978  28.7103152  16.5337185
  98.4702653  29.5554687  16.9622033  99.1466791  28.9122429  15.7703119
  95.0924318  14.7894732  33.1951541  94.6991264  14.2360930  33.8699185
  95.9090458  15.1005310  33.5858058  92.0586376  26.2278590  17.1065111
  92.5710896  27.0221840  17.2570675  92.7109089  25.5304880  17.0398712
  93.8681261  29.3444346  19.1887864  94.0447889  30.2662311  19.0008848
  94.6638094  29.0302765  19.6182244  98.0092279  16.2052611  30.7871797
  98.7501992  16.8059764  30.7076260  98.2410202  15.4630248  30.2289840
  93.1533617  21.3908978  29.0650027  93.0387132  20.4894235  29.3657126
  92.2978135  21.6372675  28.7134844 100.2325455  29.3326718  30.6637528
  99.7889309  28.5463097  30.3458432 100.8942668  29.5205869  29.9981418
  94.9912576  30.8622520  25.1898206  95.5420001  30.7339583  24.4175200
  94.1524052  31.1617409  24.8393099 102.3306693  29.6129518  28.6918929
 102.3125168  30.4338399  28.1999198 103.2526613  29.4883593  28.9169070
  98.7879747  27.1273648  29.5342437  99.3208084  26.3661936  29.3041745
  98.2593828  26.8347299  30.2766592 101.9549442  12.2333714  25.0636079
 101.6113711  13.1235355  24.9875190 102.3228405  12.0435371  24.2005664
  90.0235293  24.5567244  17.8824681  90.8610515  24.9664252  17.6658389
  90.2013560  23.6166686  17.8524875 101.0345982  14.6038369  23.0285312
 100.5310778  14.5668504  22.2153117 101.3276589  15.5131111  23.0881969
  97.2788868  14.6877098  22.0351494  98.1441865  14.4919907  21.6757383
  97.3466377  14.4587450  22.9620851 100.1532460  26.2559640  17.0461249
  99.6253821  25.5212400  16.7334487  99.6519963  27.0334316  16.8001218
 105.1325306  24.4508661  22.1628296 104.4748980  25.1407922  22.2508424
 105.9365705  24.8405093  22.5062282  94.8851187  16.9179306  19.4067861
  95.4594939  16.6954488  18.6741054  95.4722170  16.9868001  20.1596462
 103.9430765  22.8053033  20.2132237 104.4562646  23.4383025  20.7153947
 104.5931988  22.2054229  19.8475597 101.2053139  32.7837358  12.9692908
 100.5314838  33.0869054  13.5777866 101.5918961  33.5866438  12.6198365
 100.4211595  20.2802489  22.4590578  99.5034157  20.5017436  22.3012266
 100.8371739  20.3548799  21.6002285 104.7092561  27.7859035  18.3411380
 104.2554888  26.9449945  18.3976570 104.0786528  28.4220433  18.6786160
 103.1525500  29.6235531  19.2761198 103.4448474  30.1840589  18.5573564
 103.6624121  29.9164092  20.0314357  90.0461464  21.8957959  18.5535415
  89.8485864  21.3027320  17.8286481  89.4908128  21.5910170  19.2711353
  98.0258187  21.7881066  20.6730008  98.0806797  20.8354902  20.5972484
  97.2149389  21.9440505  21.1571306  95.9650547  20.4058126  18.4320387
  95.1518413  20.7052296  18.8385579  96.4609542  20.0113814  19.1494869
  98.1159125  30.4015882  20.3654651  98.0735304  30.6276729  19.4363183
  99.0321824  30.1679257  20.5140452 101.5624759  20.8699950  27.2635280
 101.9174147  21.0971423  28.1229746 102.2096890  21.2018327  26.6412536
  95.4564622  17.9776481  24.0481622  96.0964001  17.8365240  23.3504585
  94.6242153  17.6910994  23.6720224 107.3191876  26.0594913  22.9795881
 107.7528382  25.9670202  23.8278935 108.0323456  26.0352413  22.3415897
  96.2324926  27.2778911  20.1616614  97.0265525  26.7829232  19.9599189
  95.5216618  26.7496775  19.7984320 101.0519771  29.6597007  24.5128982
 101.1056793  30.2287943  25.2806698 100.1834552  29.8298892  24.1483019
  92.5407689  21.4221993  16.2376367  91.6105278  21.3606449  16.4546329
  92.6365161  20.8997946  15.4413008  92.4593239  17.9476806  18.8254608
  92.7200056  18.8622139  18.7163769  93.2810411  17.4801249  18.9751221
  93.9318164  19.3614563  25.9953433  94.6041217  19.1531925  25.3466082
  93.1047950  19.1636649  25.5558665 108.1807425  26.1018614  25.5128766
 108.3743315  27.0064424  25.7588041 108.0808043  25.6426033  26.3467351
  99.8343736  15.9876504  28.0119094  99.1871651  16.6866454  27.9183570
 100.6044751  16.4212648  28.3795342 103.2422534  26.2525356  31.0869647
 103.0908040  26.0235908  30.1699731 103.2327213  27.2095958  31.1000992
 100.0107870  23.8257269  26.0715913 100.9399930  23.9768429  25.8984881
  99.5898900  23.9141290  25.2164560  98.8096202  27.8507933  23.8414451
  98.6707288  27.4826718  24.7140389  98.0210798  28.3655573  23.6698409
  99.4044354  32.9517030  15.1839988  99.5796110  32.4805073  15.9985610
  98.7177142  33.5782796  15.4121248 100.3601417  27.2289536  21.2303289
 100.0251250  27.1890306  22.1260939  99.8605363  26.5634252  20.7573699
  94.3345661  22.6357166  26.7555870  94.1965459  21.9037405  27.3567409
  95.2450585  22.5466066  26.4740058  96.9627962  22.3477126  26.2439550
  97.6727580  21.7070318  26.2026168  96.9197270  22.5990020  27.1665730
 104.9514740  29.2844479  29.1646129 104.8927287  28.6003699  28.4976712
 105.3534259  30.0263469  28.7126755  95.6756896  19.3342343  28.0635189
  95.1394253  18.8833082  28.7156785  95.0873604  19.4688252  27.3205653
  93.9705439  36.1006393  21.9579848  94.2102038  36.7324917  22.6358866
  93.1274636  35.7494433  22.2445207 104.9532148  27.2484063  27.3960109
 104.0658927  26.9109985  27.5186507 105.5230699  26.5167094  27.6328874
  86.6061295  23.5808155  20.7203160  87.2932335  23.2669885  20.1324175
  86.4509424  24.4849519  20.4470411  91.4096017  18.4698351  25.1488184
  91.3254206  17.8624021  24.4138594  90.5878723  18.9607369  25.1497680
  98.4833301  31.9085515  24.3621352  98.4103473  32.7140487  24.8740656
  98.0410694  32.1077481  23.5369373  98.2723081  31.1457285  17.8724173
  97.4890603  31.6878965  17.9662398  98.9715826  31.6631265  18.2718414
 100.9431985  31.8072349  26.5179510 101.6559957  32.4419814  26.4455412
 100.4522013  31.9036215  25.7019512 102.6649512  25.7123602  18.0896802
 101.7305790  25.8325064  17.9201506 102.8426180  24.8096069  17.8256812
  98.1654700  19.0969298  20.2430063  97.7952487  18.5440338  20.9310969
  98.6613792  18.4927431  19.6905063  95.9943898  29.5566793  27.3385081
  96.6953358  30.1903276  27.4914475  95.5239013  29.8981524  26.5780721
 103.7945184  22.1111400  25.1637632 103.1416634  22.3587308  24.5090084
 104.1725564  21.2975538  24.8300109 100.7552358  32.1471093  19.2665802
 100.9374753  31.3292749  19.7293554 101.5785344  32.3638786  18.8290692
 101.0894524  31.0739278  16.5280850 101.6182290  30.5631733  15.9151012
 101.3522743  30.7581809  17.3926383  99.8432757  22.8531211  31.6503669
  99.1673394  22.7525340  32.3206044 100.6660391  22.6970425  32.1139666
  91.5911616  29.0903148  24.2716184  92.1765053  28.3446836  24.4044088
  91.3936455  29.4007104  25.1552848  94.4450271  32.1254395  19.2878626
  93.7760647  32.6100523  18.8042666  94.3063141  32.3723616  20.2022005
  86.1829271  21.6608748  22.9920627  86.2213371  21.1272339  23.7857745
  85.6769564  21.1343953  22.3731604  98.5855540  34.1598139  25.8861285
  99.1373848  34.3229760  26.6510370  98.9261734  34.7502576  25.2141310
  93.5620033  16.5073288  26.4883169  93.6261360  17.3688119  26.0760567
  93.4987154  15.8947290  25.7555528  93.0372306  18.5796421  30.1356204
  93.6644345  18.1973498  30.7493728  92.1800225  18.3610623  30.5011896
 103.4366414  28.9859396  31.7409939 103.9806318  29.5989354  31.2464894
 102.8553259  29.5438975  32.2576952  89.8137849  20.3872850  16.0674558
  90.1091290  19.4783528  16.0141612  88.9125884  20.3660590  15.7455561
 101.7223927  32.1080114  22.8724967 101.5975067  31.3069854  22.3635912
 102.3803018  32.6026308  22.3838937  93.3432096  18.4628847  22.0502107
  92.6218681  19.0764814  21.9109580  94.1325351  18.9986611  21.9718753
 103.7858836  29.9089134  24.5004517 102.8389171  29.7894485  24.4282844
 104.1341609  29.0211632  24.5830778  96.1458409  15.7983273  28.3242759
  96.6692811  16.0445570  29.0869068  95.9270742  16.6303308  27.9045896
  91.5425690  18.0686948  16.1913884  91.2138396  17.1884327  16.0088990
  91.8965061  18.0134616  17.0790273 100.7905269  29.7041850  20.7008869
 100.6430231  28.7758558  20.8816439 101.6158763  29.7261941  20.2165944
  94.6567513  18.3559918  16.5589361  94.9963586  18.8845839  15.8367970
  95.1039634  18.6940324  17.3347928 104.3939391  30.5270409  21.7873742
 105.3185938  30.3213271  21.6498193 104.2254694  30.2786810  22.6963083
  97.3510954  16.7396968  26.0092429  97.0107775  15.9404781  26.4113109
  96.6449960  17.0398679  25.4369263  98.0027426  13.8246281  24.4619752
  98.8253495  13.3506759  24.3398643  98.2465489  14.6036764  24.9618439
  95.5266005  20.5165401  22.2711731  95.3810585  20.8305704  23.1636012
  95.0491208  21.1350302  21.7182630  97.3862388  17.5067949  22.3192621
  97.3723956  16.6109043  21.9824918  98.1034816  17.5138613  22.9530907
  99.2388518  17.9405290  24.3645748  98.9806296  18.8622360  24.3630078
  98.7073559  17.5435724  25.0546212 104.1834707  31.0456077  17.1435833
 104.3571585  30.4802499  16.3909686 104.6763598  31.8456972  16.9615323
  90.0011667  23.0570746  25.2099392  89.4565135  23.8330554  25.3419666
  90.8791017  23.4041550  25.0518514  96.7899284  16.3882330  17.5880191
  96.9115195  15.4598976  17.7871078  96.5001326  16.4021016  16.6758506
  90.7877689  22.1840642  28.1029549  90.0459425  22.3323277  28.6894179
  90.4670433  22.4448908  27.2396298  98.7321351  31.7256620  27.9009939
  99.0408478  31.4805767  28.7732639  99.5296833  31.9303259  27.4128809
  98.7541963  33.8794530  20.1315316  98.3146954  33.3870909  20.8248172
  99.5050080  33.3367498  19.8907391  91.2334302  30.0706071  20.1339944
  92.0592322  29.7709843  19.7538587  90.8828354  29.3013693  20.5829732
  96.2015836  29.4232539  22.2037617  95.5795845  28.7603244  21.9039845
  96.8720702  29.4493671  21.5211265  89.4342907  27.9892397  21.0928877
  88.5974816  27.5614572  20.9112879  89.4066553  28.1824841  22.0299668
  96.2740363  17.9014327  31.7970123  96.3228519  18.7776450  31.4147893
  96.8162877  17.3591720  31.2241766 106.7595209  28.4455450  31.0771260
 105.9690752  28.4279589  30.5375760 106.5228563  28.9843744  31.8320297
 106.8793084  25.2947917  28.3903989 106.9291089  25.1297924  29.3319512
 106.7707007  24.4275176  28.0001870  95.7629342  27.9736462  15.6796078
  95.9117463  28.6571927  15.0262751  96.5695786  27.9541552  16.1945534
 104.1696846  21.2778845  29.7063296 105.0706709  21.1385309  29.4147293
 104.2444821  21.4433299  30.6461473  98.5039652  18.6545699  28.5516482
  97.6342961  18.9479265  28.2799070  98.7399132  19.2386144  29.2723746
 108.3811281  27.7144858  28.6346010 108.0896089  28.0774839  29.4709471
 107.7683412  27.0011866  28.4559343 106.6298469  22.8377473  27.1026068
 107.1052590  23.0305119  26.2944920 105.7064034  22.8936659  26.8569452
  93.5181975  24.0001640  16.6857147  93.2728017  23.0963970  16.8837357
  93.6877890  24.0018790  15.7436625 101.2078685  14.8725316  26.0681902
 101.7260629  15.6086343  25.7428391 100.8533818  15.1789310  26.9028661
  92.7877623  19.7329997  14.1843308  92.0946868  19.8074352  13.5283344
  92.5429375  18.9690341  14.7064825  99.2624748  30.4684593  13.1507825
  98.6898715  31.0874780  12.6978297  99.8357542  31.0183954  13.6847747
 105.3300138  19.7143233  25.3354374 106.2817561  19.8141330  25.3566598
 105.1603588  18.9221501  25.8452458 103.3514517  16.7998816  25.5213775
 102.7564449  17.0803829  24.8260264 103.0664214  17.2892717  26.2930516
 102.4822008  30.7521743  14.2816407 103.4152681  30.6867305  14.4849283
 102.3945221  31.5878010  13.8230940 107.8088216  22.9349353  24.4496674
 107.7764536  21.9965353  24.6356357 108.4188839  23.0133389  23.7162499
  99.5310239  25.8563152  31.9524535 100.4513249  26.0341751  32.1464581
  99.4959822  24.9119197  31.8004234  88.7492404  21.0501745  20.8777809
  88.4295188  20.1967053  20.5852183  88.2025832  21.2650323  21.6335777
  92.5272312  23.7664186  24.5947316  92.7458321  24.6981294  24.6135350
  92.9398085  23.4072161  25.3802120  97.4000177  19.3397392  33.9850065
  97.2996904  20.2891749  33.9162156  97.1821719  19.0115631  33.1126135
  88.6180664  24.6704657  22.8470931  87.9244135  24.2558610  22.3340885
  89.3653655  24.7125193  22.2504350  97.2631447  22.7694531  32.8015126
  96.7798529  23.5694891  33.0079015  97.3492386  22.7802476  31.8482570
  90.5317407  24.6022911  20.7236946  90.5088095  24.7010598  19.7718829
  90.8418043  25.4488061  21.0454112  93.1904784  26.6599066  24.8383560
  94.1448038  26.6283008  24.7713492  92.9917308  26.1989689  25.6533786
  93.7804167  25.2300182  27.4054358  94.5997056  25.7244260  27.4289195
  94.0540974  24.3132150  27.3771925  91.5455013  32.2018685  21.8553758
  91.4109481  31.4419086  21.2891756  91.1287076  32.9259585  21.3882547
  94.7024139  33.0988002  22.0672201  94.5856523  34.0433435  21.9650891
  93.8816585  32.7961564  22.4558000  89.0339081  19.5638315  28.1046555
  89.6797944  19.0537269  28.5933780  88.8256232  20.3006997  28.6789980
 101.5592473  26.6319163  33.6038696 102.4283633  26.8059815  33.2425330
 101.0799225  27.4513580  33.4814425  95.7278653  33.7516264  25.2828129
  96.6305900  33.7839874  25.5994624  95.5016023  32.8216715  25.2974465
  97.4832255  32.5047251  21.9438208  96.5327886  32.5049112  21.8302580
  97.7864741  31.7579985  21.4274242  93.3736572  16.7105933  32.2021569
  94.2368033  16.3542737  32.4124894  92.8001982  16.3719827  32.8896973
 113.2184949  38.3407789  23.0083970 113.8563359  38.2214536  22.3047310
 113.1005792  39.2888633  23.0671922 110.0274655  38.2935217  22.9445495
 109.6893167  38.1776282  22.0566030 110.8964423  37.8926382  22.9246501
 105.8861471  40.1470693  18.9342386 105.3226336  40.0560630  18.1658674
 105.7713866  39.3270598  19.4144878 110.5094438  39.4470069  28.9031700
 110.4983079  39.0522867  28.0312204 110.6715078  38.7136141  29.4965472
 103.4325903  41.6421885  21.7726606 104.2247195  41.3012710  21.3572906
 103.6722553  41.7516860  22.6928760 111.4661029  43.8141661  14.2456851
 110.8149009  44.3995742  13.8590865 112.2605392  44.3447856  14.3051888
 105.3916657  40.9030798  14.6443985 106.1647533  40.3559785  14.5056861
 105.7442055  41.7675048  14.8558446 107.2301699  42.2307181  27.8510884
 106.9391565  43.1352811  27.7357551 107.8658684  42.2723708  28.5654954
 108.1557906  39.6084029  24.4412244 108.7521478  39.3840051  23.7269207
 108.2132878  38.8668775  25.0437692 112.7726217  36.0659243  20.0837178
 113.5589306  35.6478666  19.7327595 113.0364922  36.9705335  20.2518827
 107.4479223  38.9651570  14.4786810 107.3315481  38.2896474  15.1467894
 107.5581483  38.4783944  13.6618963 109.7910764  38.4261717  18.1833499
 109.4268971  37.8992338  18.8946421 110.6477880  38.0360187  18.0099985
 115.6960065  29.7156050  25.4464765 115.3643390  30.5851461  25.2225980
 115.1005678  29.3992334  26.1258796 112.1891584  41.9168596  24.8460678
 111.8892307  42.8193635  24.7376485 111.8442644  41.6500779  25.6981831
 105.6404066  38.3682393  20.8797382 104.7154562  38.2358607  21.0875074
 105.8888479  39.1476612  21.3767325 115.5888728  34.4351136  22.5258115
 114.6805605  34.3666545  22.2316876 115.5376324  34.9123081  23.3539941
 103.0012877  38.0115666  21.7141172 103.1305258  38.2650145  22.6280583
 102.3210328  38.6043374  21.3945827 107.1712364  48.6812916  17.8131646
 107.0936394  49.6320741  17.8920126 106.5674008  48.3358789  18.4706572
 109.6629594  35.8540782  30.4693013 108.8862928  36.4134702  30.4595877
 110.3020157  36.3397565  30.9907883 117.4550374  32.6367575  24.3035989
 116.8124755  32.9300108  23.6575784 116.9505303  32.5220495  25.1089186
 107.9175966  38.6626235  30.0310980 108.6590651  39.2011279  29.7545803
 107.2112952  39.2892524  30.1882531 113.3931306  40.8055376  28.6283141
 113.8014662  40.3637786  27.8837774 112.6708567  40.2308003  28.8817334
 109.7462376  35.7427982  26.0016698 110.5923571  36.1667396  26.1451347
 109.6861013  35.0861607  26.6955261 113.7160120  41.3656566  22.3835430
 113.0868983  41.5302280  21.6811498 113.3285783  41.7798176  23.1546394
 117.5949352  42.3011004  19.7379794 116.9100390  42.6809905  19.1876827
 117.6793202  42.9106331  20.4711742 112.8961821  33.4032351  27.6597872
 112.6522753  34.1574411  27.1232147 113.1721752  33.7817698  28.4945119
 114.8500284  39.9470963  26.3375137 115.0617179  40.5902723  25.6609518
 114.8030032  39.1133280  25.8697067 112.4526513  32.5588784  23.2411709
 111.5910992  32.8570037  23.5328447 112.4788948  32.7759183  22.3092742
 109.2688082  41.1030974  19.6485515 109.7326428  41.3818677  18.8590138
 109.0044880  40.2014419  19.4658606 106.1612163  40.6502456  22.5865278
 106.7313520  41.0789724  21.9482763 106.7520275  40.3685041  23.2849464
 108.2056968  37.2254127  16.4575080 108.9081012  37.6775170  16.9249007
 107.8737597  36.5837946  17.0854973 106.6537330  35.8165883  30.8326290
 106.0235990  36.4982164  31.0661686 106.5473418  35.7048965  29.8879428
 101.9482302  35.4837679  21.7592214 101.1581356  35.7395208  21.2832324
 102.4393550  36.2986017  21.8644254 115.9646112  42.8242919  24.5097495
 116.7863556  42.4223106  24.2280176 115.9608515  42.7211153  25.4613610
 103.8997048  35.8482259  18.7175691 103.1028211  35.9600953  19.2359186
 103.6722640  36.1868911  17.8516581 109.7302715  42.3726962  26.6658205
 109.7947148  42.8347369  27.5016377 109.0213639  41.7424327  26.7940515
 100.2320005  35.7368170  24.1907205 100.4828044  36.6215180  24.4564781
 100.7679554  35.5572771  23.4182296 109.4450733  44.0395069  16.5337185
 109.3096408  44.8846605  16.9622033 109.9860545  44.2414347  15.7703119
 105.9318073  30.1186649  33.1951541 105.5385018  29.5652848  33.8699185
 106.7484213  30.4297228  33.5858058 102.8980130  41.5570507  17.1065111
 103.4104651  42.3513758  17.2570675 103.5502843  40.8596798  17.0398712
 104.7075015  44.6736264  19.1887864 104.8841643  45.5954228  19.0008848
 105.5031849  44.3594683  19.6182244 108.8486034  31.5344528  30.7871797
 109.5895747  32.1351681  30.7076260 109.0803956  30.7922166  30.2289840
 103.9927372  36.7200896  29.0650027 103.8780887  35.8186153  29.3657126
 103.1371889  36.9664592  28.7134844 111.0719209  44.6618636  30.6637528
 110.6283064  43.8755014  30.3458432 111.7336423  44.8497786  29.9981418
 105.8306331  46.1914437  25.1898206 106.3813756  46.0631501  24.4175200
 104.9917806  46.4909326  24.8393099 113.1700447  44.9421436  28.6918929
 113.1518923  45.7630317  28.1999198 114.0920367  44.8175511  28.9169070
 109.6273502  42.4565565  29.5342437 110.1601838  41.6953853  29.3041745
 109.0987583  42.1639217  30.2766592 112.7943197  27.5625631  25.0636079
 112.4507466  28.4527273  24.9875190 113.1622159  27.3727289  24.2005664
 100.8629047  39.8859162  17.8824681 101.7004269  40.2956170  17.6658389
 101.0407315  38.9458604  17.8524875 111.8739737  29.9330286  23.0285312
 111.3704533  29.8960422  22.2153117 112.1670344  30.8423029  23.0881969
 108.1182623  30.0169016  22.0351494 108.9835620  29.8211825  21.6757383
 108.1860132  29.7879368  22.9620851 110.9926214  41.5851558  17.0461249
 110.4647576  40.8504317  16.7334487 110.4913717  42.3626234  16.8001218
 115.9719060  39.7800578  22.1628296 115.3142735  40.4699840  22.2508424
 116.7759460  40.1697010  22.5062282 105.7244942  32.2471224  19.4067861
 106.2988694  32.0246406  18.6741054 106.3115924  32.3159919  20.1596462
 114.7824519  38.1344951  20.2132237 115.2956401  38.7674943  20.7153947
 115.4325743  37.5346146  19.8475597 112.0446893  48.1129275  12.9692908
 111.3708592  48.4160972  13.5777866 112.4312715  48.9158356  12.6198365
 111.2605350  35.6094406  22.4590578 110.3427911  35.8309353  22.3012266
 111.6765494  35.6840717  21.6002285 115.5486315  43.1150952  18.3411380
 115.0948642  42.2741862  18.3976570 114.9180282  43.7512351  18.6786160
 113.9919255  44.9527449  19.2761198 114.2842229  45.5132506  18.5573564
 114.5017875  45.2456010  20.0314357 100.8855218  37.2249877  18.5535415
 100.6879618  36.6319238  17.8286481 100.3301882  36.9202087  19.2711353
 108.8651942  37.1172983  20.6730008 108.9200552  36.1646820  20.5972484
 108.0543144  37.2732423  21.1571306 106.8044302  35.7350043  18.4320387
 105.9912167  36.0344214  18.8385579 107.3003296  35.3405732  19.1494869
 108.9552880  45.7307800  20.3654651 108.9129059  45.9568646  19.4363183
 109.8715579  45.4971175  20.5140452 112.4018514  36.1991868  27.2635280
 112.7567901  36.4263341  28.1229746 113.0490645  36.5310244  26.6412536
 106.2958377  33.3068399  24.0481622 106.9357756  33.1657158  23.3504585
 105.4635907  33.0202912  23.6720224 118.1585630  41.3886831  22.9795881
 118.5922137  41.2962120  23.8278935 118.8717211  41.3644331  22.3415897
 107.0718681  42.6070829  20.1616614 107.8659279  42.1121149  19.9599189
 106.3610373  42.0788692  19.7984320 111.8913525  44.9888925  24.5128982
 111.9450547  45.5579861  25.2806698 111.0228306  45.1590810  24.1483019
 103.3801444  36.7513911  16.2376367 102.4499032  36.6898366  16.4546329
 103.4758916  36.2289864  15.4413008 103.2986993  33.2768724  18.8254608
 103.5593810  34.1914057  18.7163769 104.1204165  32.8093166  18.9751221
 104.7711918  34.6906481  25.9953433 105.4434972  34.4823843  25.3466082
 103.9441705  34.4928567  25.5558665 119.0201180  41.4310531  25.5128766
 119.2137070  42.3356342  25.7588041 118.9201798  40.9717950  26.3467351
 110.6737490  31.3168422  28.0119094 110.0265405  32.0158371  27.9183570
 111.4438506  31.7504566  28.3795342 114.0816288  41.5817274  31.0869647
 113.9301795  41.3527826  30.1699731 114.0720968  42.5387875  31.1000992
 110.8501625  39.1549187  26.0715913 111.7793685  39.3060346  25.8984881
 110.4292655  39.2433208  25.2164560 109.6489957  43.1799851  23.8414451
 109.5101042  42.8118636  24.7140389 108.8604553  43.6947491  23.6698409
 110.2438108  48.2808948  15.1839988 110.4189864  47.8096991  15.9985610
 109.5570897  48.9074714  15.4121248 111.1995172  42.5581454  21.2303289
 110.8645004  42.5182224  22.1260939 110.6999117  41.8926170  20.7573699
 105.1739416  37.9649084  26.7555870 105.0359214  37.2329323  27.3567409
 106.0844339  37.8757984  26.4740058 107.8021716  37.6769043  26.2439550
 108.5121335  37.0362235  26.2026168 107.7591024  37.9281938  27.1665730
 115.7908495  44.6136397  29.1646129 115.7321041  43.9295617  28.4976712
 116.1928013  45.3555387  28.7126755 106.5150650  34.6634261  28.0635189
 105.9788007  34.2125000  28.7156785 105.9267359  34.7980170  27.3205653
 104.8099194  51.4298310  21.9579848 105.0495792  52.0616835  22.6358866
 103.9668390  51.0786350  22.2445207 115.7925902  42.5775980  27.3960109
 114.9052681  42.2401902  27.5186507 116.3624453  41.8459012  27.6328874
  97.4455049  38.9100072  20.7203160  98.1326089  38.5961802  20.1324175
  97.2903178  39.8141437  20.4470411 102.2489772  33.7990269  25.1488184
 102.1647960  33.1915938  24.4138594 101.4272478  34.2899287  25.1497680
 109.3227056  47.2377433  24.3621352 109.2497227  48.0432404  24.8740656
 108.8804449  47.4369399  23.5369373 109.1116835  46.4749203  17.8724173
 108.3284357  47.0170883  17.9662398 109.8109580  46.9923183  18.2718414
 111.7825739  47.1364267  26.5179510 112.4953711  47.7711732  26.4455412
 111.2915768  47.2328133  25.7019512 113.5043266  41.0415520  18.0896802
 112.5699545  41.1616982  17.9201506 113.6819935  40.1387986  17.8256812
 109.0048454  34.4261215  20.2430063 108.6346242  33.8732256  20.9310969
 109.5007547  33.8219349  19.6905063 106.8337653  44.8858710  27.3385081
 107.5347112  45.5195193  27.4914475 106.3632768  45.2273442  26.5780721
 114.6338939  37.4403318  25.1637632 113.9810389  37.6879225  24.5090084
 115.0119319  36.6267456  24.8300109 111.5946113  47.4763011  19.2665802
 111.7768507  46.6584667  19.7293554 112.4179099  47.6930703  18.8290692
 111.9288278  46.4031196  16.5280850 112.4576044  45.8923651  15.9151012
 112.1916498  46.0873726  17.3926383 110.6826512  38.1823129  31.6503669
 110.0067149  38.0817258  32.3206044 111.5054146  38.0262343  32.1139666
 102.4305371  44.4195065  24.2716184 103.0158808  43.6738753  24.4044088
 102.2330209  44.7299022  25.1552848 105.2844026  47.4546313  19.2878626
 104.6154401  47.9392440  18.8042666 105.1456896  47.7015533  20.2022005
  97.0223025  36.9900666  22.9920627  97.0607125  36.4564256  23.7857745
  96.5163318  36.4635871  22.3731604 109.4249295  49.4890056  25.8861285
 109.9767603  49.6521678  26.6510370 109.7655488  50.0794494  25.2141310
 104.4013788  31.8365206  26.4883169 104.4655114  32.6980037  26.0760567
 104.3380908  31.2239208  25.7555528 103.8766060  33.9088339  30.1356204
 104.5038099  33.5265416  30.7493728 103.0193979  33.6902541  30.5011896
 114.2760169  44.3151314  31.7409939 114.8200073  44.9281272  31.2464894
 113.6947014  44.8730892  32.2576952 100.6531603  35.7164768  16.0674558
 100.9485044  34.8075446  16.0141612  99.7519639  35.6952507  15.7455561
 112.5617682  47.4372032  22.8724967 112.4368821  46.6361772  22.3635912
 113.2196773  47.9318225  22.3838937 104.1825850  33.7920764  22.0502107
 103.4612436  34.4056732  21.9109580 104.9719106  34.3278529  21.9718753
 114.6252590  45.2381052  24.5004517 113.6782926  45.1186403  24.4282844
 114.9735363  44.3503550  24.5830778 106.9852164  31.1275191  28.3242759
 107.5086565  31.3737487  29.0869068 106.7664497  31.9595226  27.9045896
 102.3819445  33.3978865  16.1913884 102.0532151  32.5176244  16.0088990
 102.7358815  33.3426534  17.0790273 111.6299024  45.0333768  20.7008869
 111.4823986  44.1050476  20.8816439 112.4552517  45.0553859  20.2165944
 105.4961268  33.6851835  16.5589361 105.8357340  34.2137756  15.8367970
 105.9433388  34.0232241  17.3347928 115.2333145  45.8562327  21.7873742
 116.1579693  45.6505188  21.6498193 115.0648449  45.6078728  22.6963083
 108.1904709  32.0688886  26.0092429 107.8501529  31.2696699  26.4113109
 107.4843715  32.3690597  25.4369263 108.8421180  29.1538198  24.4619752
 109.6647250  28.6798677  24.3398643 109.0859244  29.9328682  24.9618439
 106.3659759  35.8457319  22.2711731 106.2204340  36.1597622  23.1636012
 105.8884963  36.4642219  21.7182630 108.2256142  32.8359867  22.3192621
 108.2117711  31.9400960  21.9824918 108.9428570  32.8430531  22.9530907
 110.0782273  33.2697207  24.3645748 109.8200051  34.1914278  24.3630078
 109.5467313  32.8727642  25.0546212 115.0228462  46.3747994  17.1435833
 115.1965339  45.8094417  16.3909686 115.5157353  47.1748889  16.9615323
 100.8405421  38.3862663  25.2099392 100.2958889  39.1622471  25.3419666
 101.7184771  38.7333468  25.0518514 107.6293038  31.7174247  17.5880191
 107.7508949  30.7890893  17.7871078 107.3395080  31.7312933  16.6758506
 101.6271443  37.5132560  28.1029549 100.8853179  37.6615195  28.6894179
 101.3064188  37.7740825  27.2396298 109.5715106  47.0548538  27.9009939
 109.8802232  46.8097685  28.7732639 110.3690588  47.2595176  27.4128809
 109.5935718  49.2086448  20.1315316 109.1540708  48.7162826  20.8248172
 110.3443835  48.6659415  19.8907391 102.0728057  45.3997988  20.1339944
 102.8986077  45.1001760  19.7538587 101.7222109  44.6305611  20.5829732
 107.0409590  44.7524457  22.2037617 106.4189599  44.0895162  21.9039845
 107.7114457  44.7785588  21.5211265 100.2736662  43.3184315  21.0928877
  99.4368570  42.8906489  20.9112879 100.2460307  43.5116758  22.0299668
 107.1134118  33.2306245  31.7970123 107.1622273  34.1068367  31.4147893
 107.6556632  32.6883638  31.2241766 117.5988963  43.7747368  31.0771260
 116.8084507  43.7571507  30.5375760 117.3622318  44.3135662  31.8320297
 117.7186838  40.6239834  28.3903989 117.7684843  40.4589842  29.3319512
 117.6100762  39.7567093  28.0001870 106.6023097  43.3028380  15.6796078
 106.7511217  43.9863844  15.0262751 107.4089540  43.2833470  16.1945534
 115.0090601  36.6070762  29.7063296 115.9100463  36.4677227  29.4147293
 115.0838575  36.7725217  30.6461473 109.3433406  33.9837617  28.5516482
 108.4736715  34.2771183  28.2799070 109.5792886  34.5678062  29.2723746
 119.2205035  43.0436776  28.6346010 118.9289843  43.4066756  29.4709471
 118.6077166  42.3303784  28.4559343 117.4692223  38.1669390  27.1026068
 117.9446345  38.3597037  26.2944920 116.5457789  38.2228576  26.8569452
 104.3575730  39.3293558  16.6857147 104.1121772  38.4255888  16.8837357
 104.5271645  39.3310708  15.7436625 112.0472440  30.2017234  26.0681902
 112.5654384  30.9378261  25.7428391 111.6927573  30.5081227  26.9028661
 103.6271378  35.0621915  14.1843308 102.9340622  35.1366270  13.5283344
 103.3823129  34.2982259  14.7064825 110.1018503  45.7976510  13.1507825
 109.5292470  46.4166698  12.6978297 110.6751296  46.3475872  13.6847747
 116.1693892  35.0435150  25.3354374 117.1211315  35.1433248  25.3566598
 115.9997343  34.2513419  25.8452458 114.1908272  32.1290734  25.5213775
 113.5958204  32.4095746  24.8260264 113.9057969  32.6184635  26.2930516
 113.3215762  46.0813661  14.2816407 114.2546435  46.0159222  14.4849283
 113.2338975  46.9169927  13.8230940 118.6481970  38.2641270  24.4496674
 118.6158290  37.3257271  24.6356357 119.2582594  38.3425307  23.7162499
 110.3703994  41.1855069  31.9524535 111.2907003  41.3633668  32.1464581
 110.3353577  40.2411115  31.8004234  99.5886159  36.3793663  20.8777809
  99.2688943  35.5258971  20.5852183  99.0419587  36.5942241  21.6335777
 103.3666066  39.0956104  24.5947316 103.5852076  40.0273212  24.6135350
 103.7791840  38.7364078  25.3802120 108.2393931  34.6689310  33.9850065
 108.1390658  35.6183667  33.9162156 108.0215473  34.3407549  33.1126135
  99.4574419  39.9996574  22.8470931  98.7637890  39.5850527  22.3340885
 100.2047410  40.0417111  22.2504350 108.1025201  38.0986449  32.8015126
 107.6192283  38.8986809  33.0079015 108.1886141  38.1094393  31.8482570
 101.3711161  39.9314828  20.7236946 101.3481849  40.0302515  19.7718829
 101.6811798  40.7779979  21.0454112 104.0298539  41.9890983  24.8383560
 104.9841793  41.9574926  24.7713492 103.8311063  41.5281607  25.6533786
 104.6197921  40.5592099  27.4054358 105.4390810  41.0536178  27.4289195
 104.8934729  39.6424067  27.3771925 102.3848768  47.5310603  21.8553758
 102.2503236  46.7711004  21.2891756 101.9680830  48.2551503  21.3882547
 105.5417894  48.4279920  22.0672201 105.4250278  49.3725352  21.9650891
 104.7210340  48.1253481  22.4558000  99.8732835  34.8930233  28.1046555
 100.5191699  34.3829187  28.5933780  99.6649986  35.6298915  28.6789980
 112.3986228  41.9611081  33.6038696 113.2677387  42.1351733  33.2425330
 111.9192979  42.7805497  33.4814425 106.5672408  49.0808182  25.2828129
 107.4699654  49.1131792  25.5994624 106.3409778  48.1508633  25.2974465
 108.3226010  47.8339168  21.9438208 107.3721641  47.8341030  21.8302580
 108.6258496  47.0871903  21.4274242 104.2130326  32.0397850  32.2021569
 105.0761788  31.6834655  32.4124894 103.6395737  31.7011745  32.8896973
 120.8668410  53.6227135  22.9445495 120.5286921  53.5068199  22.0566030
 121.7358178  53.2218300  22.9246501 116.7255225  55.4762611  18.9342386
 116.1620090  55.3852548  18.1658674 116.6107620  54.6562516  19.4144878
 121.3488193  54.7761986  28.9031700 121.3376833  54.3814785  28.0312204
 121.5108832  54.0428059  29.4965472 114.2719657  56.9713803  21.7726606
 115.0640949  56.6304627  21.3572906 114.5116307  57.0808778  22.6928760
 116.2310411  56.2322716  14.6443985 117.0041287  55.6851703  14.5056861
 116.5835810  57.0966965  14.8558446 118.0695454  57.5599098  27.8510884
 117.7785320  58.4644729  27.7357551 118.7052438  57.6015626  28.5654954
 118.9951661  54.9375947  24.4412244 119.5915233  54.7131969  23.7269207
 119.0526632  54.1960692  25.0437692 118.2872978  54.2943488  14.4786810
 118.1709236  53.6188391  15.1467894 118.3975238  53.8075862  13.6618963
 120.6304519  53.7553635  18.1833499 120.2662726  53.2284256  18.8946421
 121.4871635  53.3652104  18.0099985 116.4797820  53.6974311  20.8797382
 115.5548317  53.5650525  21.0875074 116.7282233  54.4768530  21.3767325
 113.8406631  53.3407584  21.7141172 113.9699012  53.5942063  22.6280583
 113.1604083  53.9335292  21.3945827 118.0106119  64.0104834  17.8131646
 117.9330148  64.9612659  17.8920126 117.4067762  63.6650707  18.4706572
 120.5023348  51.1832700  30.4693013 119.7256682  51.7426620  30.4595877
 121.1413911  51.6689482  30.9907883 118.7569721  53.9918153  30.0310980
 119.4984405  54.5303197  29.7545803 118.0506706  54.6184442  30.1882531
 120.5856130  51.0719900  26.0016698 121.4317326  51.4959314  26.1451347
 120.5254768  50.4153524  26.6955261 120.1081837  56.4322892  19.6485515
 120.5720182  56.7110595  18.8590138 119.8438635  55.5306337  19.4658606
 117.0005918  55.9794374  22.5865278 117.5707275  56.4081642  21.9482763
 117.5914030  55.6976958  23.2849464 119.0450723  52.5546044  16.4575080
 119.7474766  53.0067088  16.9249007 118.7131351  51.9129863  17.0854973
 117.4931084  51.1457801  30.8326290 116.8629745  51.8274082  31.0661686
 117.3867172  51.0340883  29.8879428 112.7876057  50.8129597  21.7592214
 111.9975111  51.0687126  21.2832324 113.2787304  51.6277935  21.8644254
 114.7390802  51.1774176  18.7175691 113.9421965  51.2892871  19.2359186
 114.5116394  51.5160829  17.8516581 120.5696470  57.7018880  26.6658205
 120.6340902  58.1639287  27.5016377 119.8607394  57.0716244  26.7940515
 111.0713760  51.0660088  24.1907205 111.3221798  51.9507097  24.4564781
 111.6073308  50.8864689  23.4182296 120.2844487  59.3686987  16.5337185
 120.1490162  60.2138523  16.9622033 120.8254300  59.5706265  15.7703119
 116.7711827  45.4478567  33.1951541 116.3778773  44.8944765  33.8699185
 117.5877967  45.7589145  33.5858058 113.7373885  56.8862425  17.1065111
 114.2498405  57.6805675  17.2570675 114.3896598  56.1888716  17.0398712
 115.5468770  60.0028181  19.1887864 115.7235398  60.9246146  19.0008848
 116.3425603  59.6886601  19.6182244 119.6879788  46.8636446  30.7871797
 120.4289501  47.4643599  30.7076260 119.9197711  46.1214084  30.2289840
 114.8321126  52.0492813  29.0650027 114.7174641  51.1478070  29.3657126
 113.9765644  52.2956510  28.7134844 116.6700085  61.5206355  25.1898206
 117.2207510  61.3923418  24.4175200 115.8311561  61.8201244  24.8393099
 120.4667256  57.7857483  29.5342437 120.9995593  57.0245771  29.3041745
 119.9381337  57.4931135  30.2766592 111.7022802  55.2151079  17.8824681
 112.5398024  55.6248088  17.6658389 111.8801069  54.2750522  17.8524875
 118.9576377  45.3460934  22.0351494 119.8229374  45.1503742  21.6757383
 119.0253886  45.1171286  22.9620851 121.8319969  56.9143475  17.0461249
 121.3041330  56.1796235  16.7334487 121.3307471  57.6918152  16.8001218
 116.5638696  47.5763142  19.4067861 117.1382448  47.3538323  18.6741054
 117.1509679  47.6451836  20.1596462 111.7248973  52.5541795  18.5535415
 111.5273373  51.9611155  17.8286481 111.1695637  52.2494005  19.2711353
 119.7045696  52.4464901  20.6730008 119.7594306  51.4938738  20.5972484
 118.8936898  52.6024340  21.1571306 117.6438056  51.0641961  18.4320387
 116.8305922  51.3636131  18.8385579 118.1397051  50.6697650  19.1494869
 119.7946634  61.0599718  20.3654651 119.7522813  61.2860564  19.4363183
 120.7109333  60.8263092  20.5140452 117.1352131  48.6360316  24.0481622
 117.7751510  48.4949076  23.3504585 116.3029662  48.3494830  23.6720224
 117.9112435  57.9362747  20.1616614 118.7053034  57.4413067  19.9599189
 117.2004127  57.4080610  19.7984320 114.2195198  52.0805829  16.2376367
 113.2892787  52.0190284  16.4546329 114.3152670  51.5581781  15.4413008
 114.1380748  48.6060641  18.8254608 114.3987565  49.5205975  18.7163769
 114.9597920  48.1385084  18.9751221 115.6105673  50.0198399  25.9953433
 116.2828726  49.8115761  25.3466082 114.7835459  49.8220485  25.5558665
 121.5131245  46.6460340  28.0119094 120.8659160  47.3450289  27.9183570
 122.2832260  47.0796483  28.3795342 120.4883711  58.5091769  23.8414451
 120.3494797  58.1410553  24.7140389 119.6998307  59.0239408  23.6698409
 121.0831863  63.6100865  15.1839988 121.2583619  63.1388909  15.9985610
 120.3964651  64.2366632  15.4121248 122.0388926  57.8873372  21.2303289
 121.7038759  57.8474142  22.1260939 121.5392872  57.2218087  20.7573699
 116.0133170  53.2941002  26.7555870 115.8752968  52.5621240  27.3567409
 116.9238094  53.2049902  26.4740058 118.6415471  53.0060961  26.2439550
 119.3515089  52.3654153  26.2026168 118.5984779  53.2573856  27.1665730
 117.3544405  49.9926179  28.0635189 116.8181762  49.5416917  28.7156785
 116.7661113  50.1272088  27.3205653 115.6492948  66.7590228  21.9579848
 115.8889546  67.3908752  22.6358866 114.8062145  66.4078268  22.2445207
 108.2848804  54.2391990  20.7203160 108.9719844  53.9253720  20.1324175
 108.1296933  55.1433355  20.4470411 113.0883526  49.1282186  25.1488184
 113.0041715  48.5207856  24.4138594 112.2666232  49.6191205  25.1497680
 120.1620810  62.5669351  24.3621352 120.0890982  63.3724322  24.8740656
 119.7198203  62.7661316  23.5369373 119.9510590  61.8041121  17.8724173
 119.1678112  62.3462801  17.9662398 120.6503335  62.3215100  18.2718414
 119.8442209  49.7553133  20.2430063 119.4739996  49.2024173  20.9310969
 120.3401301  49.1511266  19.6905063 117.6731407  60.2150628  27.3385081
 118.3740867  60.8487111  27.4914475 117.2026522  60.5565360  26.5780721
 121.5220266  53.5115047  31.6503669 120.8460903  53.4109176  32.3206044
 122.3447900  53.3554260  32.1139666 113.2699125  59.7486983  24.2716184
 113.8552562  59.0030671  24.4044088 113.0723964  60.0590940  25.1552848
 116.1237780  62.7838230  19.2878626 115.4548156  63.2684358  18.8042666
 115.9850650  63.0307451  20.2022005 107.8616780  52.3192583  22.9920627
 107.9000879  51.7856174  23.7857745 107.3557073  51.7927789  22.3731604
 120.2643049  64.8181974  25.8861285 120.8161357  64.9813595  26.6510370
 120.6049243  65.4086412  25.2141310 115.2407542  47.1657124  26.4883169
 115.3048869  48.0271955  26.0760567 115.1774663  46.5531125  25.7555528
 114.7159815  49.2380256  30.1356204 115.3431854  48.8557334  30.7493728
 113.8587734  49.0194458  30.5011896 111.4925358  51.0456685  16.0674558
 111.7878799  50.1367364  16.0141612 110.5913393  51.0244425  15.7455561
 115.0219605  49.1212682  22.0502107 114.3006190  49.7348650  21.9109580
 115.8112860  49.6570447  21.9718753 117.8245918  46.4567108  28.3242759
 118.3480320  46.7029405  29.0869068 117.6058251  47.2887143  27.9045896
 113.2213199  48.7270783  16.1913884 112.8925905  47.8468162  16.0088990
 113.5752570  48.6718452  17.0790273 116.3355022  49.0143753  16.5589361
 116.6751095  49.5429674  15.8367970 116.7827143  49.3524159  17.3347928
 119.0298463  47.3980804  26.0092429 118.6895283  46.5988617  26.4113109
 118.3237469  47.6982514  25.4369263 119.6814935  44.4830116  24.4619752
 120.5041004  44.0090594  24.3398643 119.9252998  45.2620600  24.9618439
 117.2053514  51.1749237  22.2711731 117.0598094  51.4889540  23.1636012
 116.7278717  51.7934137  21.7182630 119.0649897  48.1651785  22.3192621
 119.0511465  47.2692878  21.9824918 119.7822325  48.1722448  22.9530907
 120.9176027  48.5989125  24.3645748 120.6593805  49.5206196  24.3630078
 120.3861068  48.2019559  25.0546212 111.6799176  53.7154581  25.2099392
 111.1352644  54.4914389  25.3419666 112.5578526  54.0625386  25.0518514
 118.4686793  47.0466165  17.5880191 118.5902704  46.1182811  17.7871078
 118.1788835  47.0604851  16.6758506 112.4665198  52.8424477  28.1029549
 111.7246934  52.9907113  28.6894179 112.1457942  53.1032743  27.2396298
 120.4108860  62.3840456  27.9009939 120.7195987  62.1389602  28.7732639
 121.2084342  62.5887094  27.4128809 120.4329472  64.5378365  20.1315316
 119.9934463  64.0454744  20.8248172 121.1837589  63.9951333  19.8907391
 112.9121811  60.7289906  20.1339944 113.7379831  60.4293678  19.7538587
 112.5615863  59.9597528  20.5829732 117.8803345  60.0816374  22.2037617
 117.2583354  59.4187079  21.9039845 118.5508211  60.1077506  21.5211265
 111.1130416  58.6476233  21.0928877 110.2762325  58.2198407  20.9112879
 111.0854062  58.8408676  22.0299668 117.9527872  48.5598162  31.7970123
 118.0016028  49.4360285  31.4147893 118.4950386  48.0175555  31.2241766
 117.4416851  58.6320298  15.6796078 117.5904972  59.3155762  15.0262751
 118.2483295  58.6125388  16.1945534 120.1827161  49.3129535  28.5516482
 119.3130470  49.6063101  28.2799070 120.4186641  49.8969980  29.2723746
 115.1969484  54.6585475  16.6857147 114.9515526  53.7547805  16.8837357
 115.3665399  54.6602626  15.7436625 114.4665132  50.3913833  14.1843308
 113.7734377  50.4658188  13.5283344 114.2216884  49.6274176  14.7064825
 120.9412257  61.1268428  13.1507825 120.3686224  61.7458615  12.6978297
 121.5145051  61.6767790  13.6847747 121.2097748  56.5146987  31.9524535
 122.1300758  56.6925586  32.1464581 121.1747331  55.5703032  31.8004234
 110.4279913  51.7085581  20.8777809 110.1082697  50.8550889  20.5852183
 109.8813341  51.9234159  21.6335777 114.2059821  54.4248022  24.5947316
 114.4245830  55.3565129  24.6135350 114.6185594  54.0655996  25.3802120
 119.0787686  49.9981227  33.9850065 118.9784413  50.9475584  33.9162156
 118.8609228  49.6699466  33.1126135 110.2968173  55.3288492  22.8470931
 109.6031644  54.9142445  22.3340885 111.0441164  55.3709029  22.2504350
 118.9418956  53.4278366  32.8015126 118.4586038  54.2278726  33.0079015
 119.0279895  53.4386311  31.8482570 112.2104916  55.2606746  20.7236946
 112.1875604  55.3594433  19.7718829 112.5205552  56.1071897  21.0454112
 114.8692293  57.3182901  24.8383560 115.8235547  57.2866843  24.7713492
 114.6704817  56.8573525  25.6533786 115.4591676  55.8884017  27.4054358
 116.2784565  56.3828096  27.4289195 115.7328483  54.9715985  27.3771925
 113.2242522  62.8602520  21.8553758 113.0896990  62.1002921  21.2891756
 112.8074584  63.5843420  21.3882547 116.3811648  63.7571837  22.0672201
 116.2644032  64.7017270  21.9650891 115.5604094  63.4545399  22.4558000
 110.7126590  50.2222151  28.1046555 111.3585453  49.7121105  28.5933780
 110.5043741  50.9590832  28.6789980 117.4066162  64.4100099  25.2828129
 118.3093409  64.4423710  25.5994624 117.1803532  63.4800550  25.2974465
 119.1619764  63.1631086  21.9438208 118.2115395  63.1632947  21.8302580
 119.4652250  62.4163820  21.4274242 115.0524081  47.3689768  32.2021569
 115.9155542  47.0126573  32.4124894 114.4789491  47.0303663  32.8896973
 121.9107514  66.3952005  24.1907205 122.1615553  67.2799015  24.4564781
 122.4467063  66.2156607  23.4182296 119.1242558  69.5683908  20.7203160
 119.8113598  69.2545638  20.1324175 118.9690687  70.4725272  20.4470411
 118.7010534  67.6484501  22.9920627 118.7394634  67.1148092  23.7857745
 118.1950827  67.1219706  22.3731604 121.9524171  73.9768150  21.0928877
 121.1156079  73.5490325  20.9112879 121.9247816  74.1700594  22.0299668
 121.2673668  67.0377498  20.8777809 120.9476452  66.1842806  20.5852183
 120.7207096  67.2526076  21.6335777 121.1361928  70.6580410  22.8470931
 120.4425399  70.2434363  22.3340885 121.8834919  70.7000946  22.2504350
 121.5520344  65.5514069  28.1046555 122.1979208  65.0413022  28.5933780
 121.3437495  66.2882750  28.6789980   4.8220798  54.4973590 100.5110623
   4.0684506  53.9280988 100.3554628   4.9568339  54.4636255 101.4581258
   1.6436546  54.4676340  98.4154290   2.0867692  53.7183665  98.0173413
   0.7663056  54.4586477  98.0328022   1.1869411  55.9381579 100.8076738
   2.0216302  56.3771383 100.9714298   1.3228539  55.4620232  99.9884984
   5.2327213  54.6549200 103.2430868   5.9630602  54.3934488 103.8038571
   4.6234159  53.9177922 103.2832936   3.3142510  52.7957063 103.8405319
   2.5875674  52.6613028 103.2321810   2.8989797  53.1033891 104.6462037
   0.9320305  49.0168915 101.1938750   1.5264796  48.7764651 100.4832059
   1.0046889  48.2976045 101.8212287   3.2391378  52.3235116  99.9682172
   2.6790936  52.3928305 100.7413734   2.6334881  52.1476100  99.2481668
   4.8247396  68.9991630 102.6612127   5.4625806  68.8798377 101.9575467
   4.7068239  69.9472474 102.7200079   1.6337103  68.9519058 102.5973652
   1.2955614  68.8360122 101.7094187   2.5026871  68.5510223 102.5774658
   3.0723477  74.4725502  93.8985008   2.4211457  75.0579582  93.5119022
   3.8667840  75.0031697  93.9580045   4.3788665  66.7243083  99.7365335
   5.1651754  66.3062507  99.3855752   4.6427369  67.6289176  99.9046984
   4.5498742  72.1615934  94.4353992   3.9144575  72.2350560  95.1474897
   4.2196149  72.7509533  93.7573071   9.7797092  66.6618317 100.6398314
  10.5122264  66.0917533 100.8736143   9.0236448  66.2739917 101.0804819
   1.3973212  69.0845558  97.8361656   1.0331419  68.5576179  98.5474578
   2.2540328  68.6944027  97.6628142   7.3022512  60.3739891 105.0992922
   6.9705837  61.2435302 104.8754137   6.7068126  60.0576175 105.7786953
   1.0378699  64.1135458  92.8323005   1.2053101  64.9815694  93.1993476
   0.8475868  64.2762740  91.9084294   3.7954032  72.5752437 104.4988835
   3.4954755  73.4777476 104.3904642   3.4505091  72.3084620 105.3509988
   7.1951176  65.0934977 102.1786272   6.2868053  65.0250385 101.8845033
   7.1438771  65.5706922 103.0068098   9.0612822  63.2951415 103.9564146
   8.4187202  63.5883948 103.3103941   8.5567751  63.1804336 104.7617343
   6.7152986  67.0414589  94.6450006   7.6270842  67.2741975  94.4697703
   6.2062633  67.6251633  94.0825084   4.9993753  71.4639216 108.2811298
   5.4077109  71.0221627 107.5365931   4.2771015  70.8891844 108.5345491
   1.3524823  66.4011823 105.6544855   2.1986019  66.8251237 105.7979504
   1.2923461  65.7445447 106.3483418   5.3222568  72.0240407 102.0363587
   4.6931430  72.1886121 101.3339655   4.9348230  72.4382017 102.8074551
   9.2011800  72.9594845  99.3907951   8.5162838  73.3393746  98.8404984
   9.2855649  73.5690171 100.1239899   4.5024269  64.0616191 107.3126029
   4.2585201  64.8158252 106.7760305   4.7784199  64.4401539 108.1473276
   6.4562731  70.6054804 105.9903294   6.6679627  71.2486564 105.3137676
   6.4092480  69.7717120 105.5225224   4.0588960  63.2172624 102.8939867
   3.1973439  63.5153878 103.1856604   4.0851395  63.4343023 101.9620899
   0.8750530  71.7614815  99.3013672   1.3388875  72.0402518  98.5118295
   0.6107328  70.8598260  99.1186763   7.5708559  73.4826759 104.1625652
   8.3926003  73.0806947 103.8808333   7.5670962  73.3794993 105.1141768
  15.6614552  69.8265508 100.5110623  14.9078261  69.2572906 100.3554628
  15.7962094  69.7928172 101.4581258   1.0513181  74.6978910  96.1865343
   0.9158855  75.5430446  96.6150190   1.5922993  74.8998188  95.4231276
   4.4005644  58.2209472 104.7164236   4.0569913  59.1111114 104.6403347
   4.7684607  58.0311130 103.8533821   4.3655927  68.2118083  93.2236671
   3.8502550  68.9822688  93.4625059   4.0933235  67.5383219  93.8469733
   1.9503038  63.0567784  98.2821910   1.0944634  62.6674634  98.1027548
   2.3629990  63.1359745  97.4221695   3.4802184  60.5914127 102.6813469
   2.9766980  60.5544262 101.8681275   3.7732791  61.5006870 102.7410126
   9.3390201  70.9650438  95.1589845   8.5619644  70.6261597  94.7145007
  10.0181682  70.9703061  94.4844810   4.1542230  66.0845175  95.0496452
   3.8492366  66.3991324  95.9006596   5.1072672  66.1626595  95.0923785
   2.5988662  72.2435398  96.6989406   2.0710023  71.5088158  96.3862644
   2.0976165  73.0210075  96.4529375   7.5781508  70.4384419 101.8156453
   6.9205182  71.1283680 101.9036581   8.3821907  70.8280851 102.1590439
   6.3886967  68.7928792  99.8660394   6.9018848  69.4258783 100.3682104
   7.0388191  68.1929987  99.5003754   3.6509341  78.7713116  92.6221066
   2.9771040  79.0744813  93.2306023   4.0375163  79.5742196  92.2726523
   2.8667798  66.2678247 102.1118735   1.9490359  66.4893194 101.9540423
   3.2827941  66.3424558 101.2530442   3.6502845  67.6669663  97.2421415
   4.3974664  68.1791060  96.9328537   3.9194435  67.3453716  98.1025809
   1.9229495  70.1628204  94.2248369   1.0140715  69.8787236  94.3220839
   1.9524579  70.5827282  93.3651676   7.1548763  73.7734793  97.9939537
   6.7011090  72.9325703  98.0504727   6.5242730  74.4096191  98.3314317
   6.0981682  64.7026779  99.2240204   5.3604439  64.1904165  99.5550447
   6.3508456  64.2627161  98.4123481   5.5981702  75.6111290  98.9289355
   5.8904676  76.1716347  98.2101721   6.1080323  75.9039851  99.6842514
   6.1993310  57.4803031  99.8181974   6.5052187  56.6200395  99.5307889
   6.9245915  58.0720651  99.6180968   1.6205583  71.7036947  91.5636448
   1.1825013  70.9872806  91.1042085   2.3616024  71.9313062  91.0021539
   0.5615327  76.3891641 100.0182808   0.5191506  76.6152487  99.0891340
   1.4778026  76.1555015 100.1668610   4.0080961  66.8575708 106.9163438
   4.3630349  67.0847182 107.7757903   4.6553092  67.1894085 106.2940693
   9.7378698  69.9794144  97.6212767   9.5996597  70.1695740  96.6933956
   9.3814917  70.7413527  98.0780818   9.7648078  72.0470671 102.6324038
  10.1984584  71.9545960 103.4807092  10.4779658  72.0228172 101.9944054
   3.4975973  75.6472765 104.1657139   3.5512995  76.2163702 104.9334855
   2.6290754  75.8174650 103.8011176  10.6263627  72.0894372 105.1656924
  10.8199517  72.9940182 105.4116198  10.5264245  71.6301791 105.9995509
   2.2799938  61.9752263 107.6647251   1.6327853  62.6742212 107.5711727
   3.0500953  62.4088406 108.0323499   2.4564072  69.8133027 105.7244071
   3.3856132  69.9644187 105.5513038   2.0355102  69.9017048 104.8692717
   1.8500556  78.9392788  94.8368145   2.0252312  78.4680832  95.6513767
   1.1633344  79.5658555  95.0649405   2.8057619  73.2165295 100.8831446
   2.4707452  73.1766065 101.7789096   2.3061565  72.5510010 100.4101856
   5.7416811  70.5621329  91.1568506   5.1245982  69.8368157  91.0601558
   5.2733299  71.3230689  90.8135580   7.3970943  75.2720237 108.8174286
   7.3383489  74.5879457 108.1504869   7.7990461  76.0139227 108.3654912
   7.3988350  73.2359821 107.0488266   6.5115129  72.8985743 107.1714665
   7.9686901  72.5042852 107.2857031   4.0275933  62.9427673 100.1686536
   4.5244632  62.1897635  99.8487606   3.2562914  62.9791990  99.6029745
  11.8805690  68.6468039 101.8104827  11.8695567  69.5292754 101.4398760
  11.0123070  68.2939589 101.6159364   5.1105714  71.6999360  97.7424959
   4.1761992  71.8200823  97.5729664   5.2882382  70.7971827  97.4784969
   8.4978265  67.5416680  98.2774993   8.9638717  68.3744671  98.2035296
   8.9485765  67.0761661  98.9820252   6.5654496  73.8860501  95.2761145
   6.8414340  73.7717095  96.1855019   5.6958995  73.4877986  95.2373318
   6.4694928  59.9097267 102.3165895   5.5558008  60.1401493 102.4848102
   6.8988029  59.9935711 103.1679927   6.2401386  68.0987158 104.8165789
   5.5872836  68.3463066 104.1618241   6.6181766  67.2851297 104.4828266
   3.2008560  78.1346852  98.9193959   3.3830955  77.3168508  99.3821711
   4.0241546  78.3514544  98.4818849   3.5350726  77.0615037  96.1809007
   4.0638492  76.5507491  95.5679170   3.7978945  76.7457567  97.0454540
   4.1680129  78.0955873 102.5253124   4.0431269  77.2945612 102.0164069
   4.8259221  78.5902066 102.0367094   6.2315038  75.8964893 104.1532674
   5.2845373  75.7770244 104.0811001   6.5797811  75.0087391 104.2358935
   3.2361471  75.6917609 100.3537026   3.0886434  74.7634316 100.5344596
   4.0614965  75.7137700  99.8694101   6.8395593  76.5146168 101.4401899
   7.7642140  76.3089029 101.3026350   6.6710896  76.2662569 102.3491240
   3.2322985  63.5455446  95.3469143   3.4486600  64.4280084  95.0457972
   2.7517053  63.1541660  94.6174785   1.6844720  63.9281048 104.0173905
   1.4262498  64.8498119 104.0158235   1.1529761  63.5311482 104.7074369
   6.6290909  77.0331835  96.7963990   6.8027787  76.4678257  96.0437843
   7.1219800  77.8332730  96.6143480   2.1046676  60.0612998 100.3775068
   2.1268373  60.1252331  99.4227047   2.5214735  59.2217507 100.5715574
  12.4830300  69.7968258  98.4154290  12.9261446  69.0475583  98.0173413
  11.6056811  69.7878394  98.0328022   7.6166082  76.3498599  93.8960889
   8.3116986  76.9705292  94.1148203   7.9589232  75.4993951  94.1713267
   9.5157505  73.7998305  95.4248219  10.0408829  74.1385578  94.6997540
   9.4279857  72.8645320  95.2411354   1.1998165  79.8670288  99.7843473
   0.7603156  79.3746667 100.4776329   1.9506282  79.3243256  99.5435548
   9.3249286  71.2823675 108.0432146   9.3747291  71.1173682 108.9847669
   9.2163209  70.4150934 107.6530027   6.6153048  67.2654603 109.3591453
   7.5162911  67.1261068 109.0675450   6.6901023  67.4309058 110.2989630
  10.8267483  73.7020616 108.2874168  10.5352291  74.0650597 109.1237628
  10.2139614  72.9887625 108.1087500  12.0263165  71.2673496 100.8076738
  12.8610056  71.7063300 100.9714298  12.1622294  70.7912149  99.9884984
   9.0754671  68.8253231 106.7554226   9.5508793  69.0180877 105.9473077
   8.1520236  68.8812417 106.5097609   3.6534887  60.8601075 105.7210059
   4.1716831  61.5962102 105.3956548   3.2990020  61.1665068 106.5556819
   3.9047482  57.2801357 101.2410956   4.1849235  56.6124546 101.8671383
   4.6898088  57.4730453 100.7285620   1.7080950  76.4560351  92.8035982
   1.1354917  77.0750538  92.3506454   2.2813744  77.0059713  93.3375904
   7.7756340  65.7018991 104.9882531   8.7273763  65.8017089 105.0094755
   7.6059790  64.9097260 105.4980615   5.7970719  62.7874574 105.1741932
   5.2020652  63.0679587 104.4788421   5.5120416  63.2768475 105.9458673
   4.9278210  76.7397501  93.9344565   5.8608883  76.6743063  94.1377440
   4.8401423  77.5753768  93.4759097   7.5566227  76.0563372  90.8948512
   7.4779858  75.7223235  91.7884270   8.3775893  76.5485139  90.8939985
  10.2544418  68.9225111 104.1024831  10.2220738  67.9841112 104.2884515
  10.8645041  69.0009148 103.3690656   2.0927749  67.7921164  90.1452035
   3.0386853  67.6627372  90.2140453   1.7141994  67.0535826  90.6221463
  10.4038906  65.7136154 104.1483114   9.8877955  64.9294611 103.9613043
  11.2878855  65.3854871 104.3129633   8.0649633  59.4577170 100.1078927
   7.8674454  59.1492258 100.9922259   8.6749339  60.1838809 100.2376856
  16.0720968  69.9841118 103.2430868  16.8024356  69.7226406 103.8038571
  15.4627913  69.2469840 103.2832936  14.1536265  68.1248980 103.8405319
  13.4269428  67.9904945 103.2321810  13.7383552  68.4325809 104.6462037
   1.8932731  60.2608030  96.2351161   1.0833460  59.9155115  96.6106407
   2.5817148  59.9515574  96.8238773   3.8223280  59.3386077  97.8575458
   4.3754318  59.7581530  98.5165481   4.0593366  58.4121825  97.8998414
   7.2002087  61.4486602  97.3654122   6.6200756  62.1071406  96.9832175
   6.9338020  60.6263946  96.9541540   5.6505653  60.8491660  99.5675443
   6.1505432  60.9608194  98.7589761   6.2941261  60.5452712 100.2076251
   5.9826965  63.6086692  96.4210471   5.0952820  63.8936343  96.2030665
   6.3980954  63.4480456  95.5737747   9.3341501  63.6333213 100.1364810
  10.1101891  64.1229666 100.4089427   8.6089635  64.0591267 100.5936679
  11.7714060  64.3460832 101.1938750  12.3658550  64.1056568 100.4832059
  11.8440643  63.6267963 101.8212287   5.1270178  73.3731367  90.5158490
   5.8306028  73.5781369  91.1316146   4.4032827  73.9408129  90.7807574
   5.9567989  69.1241228  96.6360761   5.9003190  69.5809780  95.7968393
   6.5096331  68.3631913  96.4583603   9.7672795  64.9130960  97.4610880
   9.5109729  64.5127596  98.2919088   9.1425663  65.6274754  97.3361019
  14.0785132  67.6527033  99.9682172  13.5184690  67.7220223 100.7413734
  13.4728636  67.4768018  99.2481668   7.0356876  73.8113896  92.5656951
   7.8702480  73.3795095  92.3834425   6.8741219  73.6395910  93.4933845
   6.6902768  70.3146009  93.9313290   6.6351572  70.1490281  92.9901734
   6.0648823  71.0222042  94.0875480   3.8151013  56.4096895  97.7644545
   3.0483409  55.8555382  97.9101227   4.2261718  56.4818764  98.6258697
  15.6641151  84.3283547 102.6612127  16.3019561  84.2090295 101.9575467
  15.5461994  85.2764391 102.7200079  12.4730857  84.2810975 102.5973652
  12.1349369  84.1652040 101.7094187  13.3420625  83.8802140 102.5774658
   8.3317673  86.1346452  98.5870543   7.7682538  86.0436389  97.8186831
   8.2170068  85.3146356  99.0673035  13.9117232  89.8017419  93.8985008
  13.2605211  90.3871500  93.5119022  14.7061594  90.3323614  93.9580045
   7.8372859  86.8906557  94.2972142   8.6103735  86.3435544  94.1585018
   8.1898258  87.7550806  94.5086604  10.6014108  85.5959787 104.0940401
  11.1977680  85.3715810 103.3797364  10.6589080  84.8544533 104.6965849
  10.1739136  83.0499223  91.9290592  10.4264657  82.5280744  91.1674055
   9.2363696  82.8865368  92.0317276  15.2182419  82.0535001  99.7365335
  16.0045509  81.6354424  99.3855752  15.4821124  82.9581093  99.9046984
  15.3892497  87.4907851  94.4353992  14.7538330  87.5642478  95.1474897
  15.0589903  88.0801450  93.7573071  20.6190846  81.9910234 100.6398314
  21.3516018  81.4209451 100.8736143  19.8630202  81.6031835 101.0804819
   9.8935425  84.9527329  94.1314967   9.7771683  84.2772232  94.7996051
  10.0037685  84.4659703  93.3147120  12.2366966  84.4137476  97.8361656
  11.8725173  83.8868097  98.5474578  13.0934082  84.0235945  97.6628142
  18.1416267  75.7031808 105.0992922  17.8099592  76.5727219 104.8754137
  17.5461880  75.3868092 105.7786953  11.8772453  79.4427376  92.8323005
  12.0446855  80.3107612  93.1993476  11.6869622  79.6054657  91.9084294
  14.6347786  87.9044354 104.4988835  14.3348509  88.8069393 104.3904642
  14.2898846  87.6376538 105.3509988   8.0860268  84.3558151 100.5325540
   7.1610764  84.2234365 100.7403231   8.3344681  85.1352371 101.0295482
  18.0344930  80.4226895 102.1786272  17.1261807  80.3542303 101.8845033
  17.9832526  80.8998840 103.0068098  11.8561674  81.8985033  93.8169672
  11.7361299  82.3442084  94.6555152  11.1614262  82.2470351  93.2583210
   9.6168566  94.6688675  97.4659803   9.5392596  95.6196500  97.5448283
   9.0130210  94.3234547  98.1234729  19.9006576  78.6243333 103.9564146
  19.2580957  78.9175866 103.3103941  19.3961505  78.5096253 104.7617343
  17.5546740  82.3706506  94.6450006  18.4664596  82.6033893  94.4697703
  17.0456387  82.9543550  94.0825084  15.8387508  86.7931134 108.2811298
  16.2470864  86.3513545 107.5365931  15.1164769  86.2183762 108.5345491
  12.1918578  81.7303741 105.6544855  13.0379773  82.1543154 105.7979504
  12.1317216  81.0737365 106.3483418  16.1616322  87.3532325 102.0363587
  15.5325185  87.5178039 101.3339655  15.7741985  87.7673934 102.8074551
  20.0405554  88.2886762  99.3907951  19.3556593  88.6685664  98.8404984
  20.1249404  88.8982089 100.1239899  15.3418023  79.3908109 107.3126029
  15.0978955  80.1450170 106.7760305  15.6177954  79.7693457 108.1473276
  17.2956486  85.9346722 105.9903294  17.5073381  86.5778481 105.3137676
  17.2486234  85.1009038 105.5225224  14.8982715  78.5464542 102.8939867
  14.0367194  78.8445796 103.1856604  14.9245150  78.7634941 101.9620899
  11.7144284  87.0906733  99.3013672  12.1782630  87.3694436  98.5118295
  11.4501082  86.1890177  99.1186763   8.6068365  86.6378214 102.2393435
   9.1769722  87.0665483 101.6010920   9.1976477  86.3560799 102.9377621
  10.6513170  83.2129885  96.1103237  11.3537214  83.6650929  96.5777164
  10.3193799  82.5713704  96.7383130   4.3938504  81.4713438 101.4120371
   3.6037558  81.7270966 100.9360482   4.8849752  82.2861776 101.5172411
  18.4102314  88.8118677 104.1625652  19.2319758  88.4098864 103.8808333
  18.4064717  88.7086911 105.1141768   6.3453250  81.8358017  98.3703848
   5.5484413  81.9476711  98.8887343   6.1178842  82.1744669  97.5044738
  26.5008307  85.1557425 100.5110623  25.7472015  84.5864823 100.3554628
  26.6355848  85.1220090 101.4581258  11.8906935  90.0270828  96.1865343
  11.7552610  90.8722363  96.6150190  12.4316748  90.2290105  95.4231276
   5.3436332  87.5446266  96.7593268   5.8560853  88.3389516  96.9098832
   5.9959045  86.8472556  96.6926869   7.1531217  90.6612022  98.8416021
   7.3297845  91.5829987  98.6537005   7.9488051  90.3470441  99.2710401
  11.2942236  77.5220287 110.4399954  12.0351949  78.1227440 110.3604417
  11.5260158  76.7797924 109.8817997  15.2399399  73.5501390 104.7164236
  14.8963668  74.4403031 104.6403347  15.6078361  73.3603047 103.8533821
   3.3085249  85.8734920  97.5352838   4.1460471  86.2831928  97.3186546
   3.4863517  84.9334362  97.5053032  15.2049681  83.5410001  93.2236671
  14.6896305  84.3114605  93.4625059  14.9326990  82.8675137  93.8469733
  12.7896792  78.3859701  98.2821910  11.9338389  77.9966552  98.1027548
  13.2023744  78.4651662  97.4221695  14.3195939  75.9206045 102.6813469
  13.8160735  75.8836180 101.8681275  14.6126546  76.8298787 102.7410126
  10.5638825  76.0044774 101.6879651  11.4291822  75.8087583 101.3285541
  10.6316334  75.7755126 102.6149008  20.1783955  86.2942355  95.1589845
  19.4013398  85.9553515  94.7145007  20.8575436  86.2994979  94.4844810
  14.9935984  81.4137093  95.0496452  14.6886120  81.7283242  95.9006596
  15.9466427  81.4918513  95.0923785  13.4382416  87.5727316  96.6989406
  12.9103778  86.8380076  96.3862644  12.9369919  88.3501992  96.4529375
  18.4175262  85.7676337 101.8156453  17.7598937  86.4575598 101.9036581
  19.2215662  86.1572769 102.1590439   8.1701144  78.2346982  99.0596018
   8.7444896  78.0122164  98.3269211   8.7572126  78.3035677  99.8124619
  17.2280721  84.1220709  99.8660394  17.7412603  84.7550701 100.3682104
  17.8781945  83.5221905  99.5003754   8.4970731  80.2651443  93.0791903
   7.6608043  80.6026130  93.4001178   8.3575501  80.1300423  92.1419040
  10.4723812  75.1088231  97.7871087   9.8188224  74.7937248  97.1627702
  10.4304286  74.4863972  98.5130910  11.5835016  85.3907526  89.7024379
  10.6762078  85.1596780  89.9015528  12.0806048  84.5945146  89.8898361
  14.4903095  94.1005034  92.6221066  13.8164794  94.4036730  93.2306023
  14.8768917  94.9034114  92.2726523  13.7061552  81.5970165 102.1118735
  12.7884113  81.8185112 101.9540423  14.1221696  81.6716475 101.2530442
  14.4896600  82.9961581  97.2421415  15.2368419  83.5082978  96.9328537
  14.7588189  82.6745633  98.1025809  12.7623250  85.4920121  94.2248369
  11.8534469  85.2079154  94.3220839  12.7918334  85.9119200  93.3651676
  17.9942517  89.1026711  97.9939537  17.5404844  88.2617621  98.0504727
  17.3636484  89.7388109  98.3314317  16.9375437  80.0318697  99.2240204
  16.1998194  79.5196083  99.5550447  17.1902210  79.5919078  98.4123481
  16.4375457  90.9403207  98.9289355  16.7298431  91.5008265  98.2101721
  16.9474077  91.2331768  99.6842514  17.0387064  72.8094949  99.8181974
  17.3445941  71.9492312  99.5307889  17.7639669  73.4012569  99.6180968
   3.3311420  83.2125635  98.2063572   3.1335820  82.6194996  97.4814638
   2.7758084  82.9077846  98.9239510  11.3108144  83.1048742 100.3258165
  11.3656754  82.1522578 100.2500641  10.4999346  83.2608181 100.8099463
  12.4599338  87.0328865  91.5636448  12.0218768  86.3164724  91.1042085
  13.2009779  87.2604980  91.0021539   9.2500504  81.7225802  98.0848544
   8.4368369  82.0219972  98.4913736   9.7459498  81.3281490  98.8023026
  11.4009082  91.7183559 100.0182808  11.3585261  91.9444405  99.0891340
  12.3171781  91.4846933 100.1668610  14.8474716  82.1867626 106.9163438
  15.2024103  82.4139099 107.7757903  15.4946847  82.5186003 106.2940693
  20.5772453  85.3086062  97.6212767  20.4390351  85.4987658  96.6933956
  20.2208671  86.0705445  98.0780818   8.7414579  79.2944157 103.7009779
   9.3813958  79.1532916 103.0032742   7.9092109  79.0078671 103.3248381
  20.6041832  87.3762589 102.6324038  21.0378339  87.2837878 103.4807092
  21.3173413  87.3520089 101.9944054   9.5174883  88.5946588  99.8144771
  10.3115481  88.0996908  99.6127346   8.8066575  88.0664451  99.4512477
  14.3369727  90.9764683 104.1657139  14.3906749  91.5455619 104.9334855
  13.4684508  91.1466568 103.8011176   5.8257646  82.7389669  95.8904524
   4.8955234  82.6774125  96.1074486   5.9215118  82.2165622  95.0941165
   5.7443195  79.2644482  98.4782765   6.0050012  80.1789815  98.3691926
   6.5660367  78.7968925  98.6279378  21.4657382  87.4186290 105.1656924
  21.6593272  88.3232100 105.4116198  21.3658000  86.9593709 105.9995509
  13.1193692  77.3044180 107.6647251  12.4721607  78.0034130 107.5711727
  13.8894708  77.7380324 108.0323499  13.2957827  85.1424945 105.7244071
  14.2249887  85.2936105 105.5513038  12.8748857  85.2308966 104.8692717
  12.0946159  89.1675610 103.4942608  11.9557244  88.7994394 104.3668546
  11.3060755  89.6823249 103.3226566  12.6894311  94.2684706  94.8368145
  12.8646066  93.7972749  95.6513767  12.0027099  94.8950472  95.0649405
  13.6451374  88.5457212 100.8831446  13.3101206  88.5057982 101.7789096
  13.1455319  87.8801928 100.4101856  16.5810565  85.8913247  91.1568506
  15.9639736  85.1660075  91.0601558  16.1127054  86.6522607  90.8135580
  18.2364697  90.6012155 108.8174286  18.1777243  89.9171375 108.1504869
  18.6384215  91.3431145 108.3654912   8.3709111  80.1098671  90.2789810
   7.4938578  79.9887472  89.9152057   8.8466864  79.3184749  90.0268699
  18.2382104  88.5651739 107.0488266  17.3508883  88.2277661 107.1714665
  18.8080655  87.8334770 107.2857031  11.5573037  92.4624961  97.5252330
  10.7740559  93.0046641  97.6190555  12.2565782  92.9798941  97.9246572
  14.8669687  78.2719591 100.1686536  15.3638387  77.5189553  99.8487606
  14.0956669  78.3083907  99.6029745  22.7199445  83.9759956 101.8104827
  22.7089321  84.8584672 101.4398760  21.8516824  83.6231507 101.6159364
  15.9499468  87.0291278  97.7424959  15.0155747  87.1492740  97.5729664
  16.1276137  86.1263745  97.4784969  11.4504656  80.4136974  99.8958220
  11.0802444  79.8608014 100.5839126  11.9463749  79.8095107  99.3433220
  19.3372019  82.8708597  98.2774993  19.8032472  83.7036589  98.2035296
  19.7879520  82.4053579  98.9820252  17.4048251  89.2152418  95.2761145
  17.6808094  89.1009013  96.1855019  16.5352749  88.8169903  95.2373318
  17.3088682  75.2389184 102.3165895  16.3951762  75.4693411 102.4848102
  17.7381784  75.3227628 103.1679927  17.0795141  83.4279076 104.8165789
  16.4266591  83.6754984 104.1618241  17.4575521  82.6143214 104.4828266
  14.0402315  93.4638769  98.9193959  14.2224709  92.6460425  99.3821711
  14.8635301  93.6806462  98.4818849  14.3744480  92.3906954  96.1809007
  14.9032247  91.8799409  95.5679170  14.6372700  92.0749485  97.0454540
   6.8469990  77.8240964 106.1411326   6.9111316  78.6855795 105.7288724
   6.7837110  77.2114966 105.4083685   3.0987805  81.7040526  95.7202716
   3.3941246  80.7951205  95.6669769   2.1975841  81.6828266  95.3983718
  15.0073884  93.4247790 102.5253124  14.8825023  92.6237530 102.0164069
  15.6652975  93.9193984 102.0367094   6.6282052  79.7796523 101.7030264
   5.9068638  80.3932490 101.5637737   7.4175308  80.3154288 101.6246910
  17.0708792  91.2256810 104.1532674  16.1239128  91.1062161 104.0811001
  17.4191565  90.3379308 104.2358935   9.4308366  77.1150949 107.9770916
   9.9542767  77.3613246 108.7397225   9.2120699  77.9470984 107.5574053
   4.8275647  79.3854624  95.8442041   4.4988353  78.5052003  95.6617147
   5.1815017  79.3302292  96.7318430  14.0755226  91.0209526 100.3537026
  13.9280188  90.0926234 100.5344596  14.9008719  91.0429617  99.8694101
   7.9417470  79.6727594  96.2117518   8.2813542  80.2013515  95.4896127
   8.3889590  80.0108000  96.9876085  17.6789347  91.8438085 101.4401899
  18.6035895  91.6380947 101.3026350  17.5104651  91.5954486 102.3491240
  10.6360911  78.0564644 105.6620586  10.2957731  77.2572457 106.0641266
   9.9299917  78.3566355 105.0897420  11.2877382  75.1413957 104.1147909
  12.1103452  74.6674435 103.9926800  11.5315446  75.9204440 104.6146596
   9.9285617  78.1702215  94.4110811  10.6493979  78.5483468  93.9074528
   9.3050921  78.8891092  94.5145789  14.0716740  78.8747364  95.3469143
  14.2880354  79.7572002  95.0457972  13.5910807  78.4833578  94.6174785
   8.8115961  81.8333077 101.9239888   8.6660542  82.1473380 102.8164170
   8.3341165  82.4517978 101.3710787  10.6712344  78.8235625 101.9720778
  10.6573913  77.9276719 101.6353076  11.3884772  78.8306289 102.6059064
  12.5238475  79.2572966 104.0173905  12.2656253  80.1790036 104.0158235
  11.9923515  78.8603400 104.7074369  17.4684664  92.3623753  96.7963990
  17.6421541  91.7970175  96.0437843  17.9613555  93.1624648  96.6143480
  10.0749240  77.7050006  97.2408348  10.1965151  76.7766652  97.4399235
   9.7851282  77.7188692  96.3286663  12.9440430  75.3904916 100.3775068
  12.9662127  75.4544249  99.4227047  13.3608489  74.5509425 100.5715574
  23.3224055  85.1260176  98.4154290  23.7655201  84.3767501  98.0173413
  22.4450565  85.1170312  98.0328022  18.4559836  91.6790517  93.8960889
  19.1510741  92.2997210  94.1148203  18.7982986  90.8285868  94.1713267
  20.3551259  89.1290223  95.4248219  20.8802583  89.4677495  94.6997540
  20.2673612  88.1937238  95.2411354  12.0391920  95.1962206  99.7843473
  11.5996910  94.7038585 100.4776329  12.7900037  94.6535174  99.5435548
  20.1643040  86.6115593 108.0432146  20.2141045  86.4465600 108.9847669
  20.0556964  85.7442852 107.6530027   9.0479299  89.2904138  95.3324235
   9.1967419  89.9739603  94.6790908   9.8545742  89.2709228  95.8473691
  17.4546803  82.5946521 109.3591453  18.3556665  82.4552985 109.0675450
  17.5294777  82.7600975 110.2989630  11.7889608  79.9713375 108.2044639
  10.9192917  80.2646941 107.9327228  12.0249088  80.5553820 108.9251903
  21.6661237  89.0312534 108.2874168  21.3746045  89.3942515 109.1237628
  21.0533368  88.3179542 108.1087500  22.8656919  86.5965414 100.8076738
  23.7003811  87.0355218 100.9714298  23.0016048  86.1204067  99.9884984
  19.9148425  84.1545149 106.7554226  20.3902547  84.3472795 105.9473077
  18.9913991  84.2104335 106.5097609   6.8031932  85.3169316  96.3385304
   6.5577974  84.4131646  96.5365514   6.9727847  85.3186466  95.3964782
  14.4928642  76.1892992 105.7210059  15.0110586  76.9254019 105.3956548
  14.1383775  76.4956986 106.5556819   6.0727580  81.0497674  93.8371465
   5.3796824  81.1242029  93.1811501   5.8279331  80.2858017  94.3592982
  14.7441236  72.6093275 101.2410956  15.0242990  71.9416464 101.8671383
  15.5291843  72.8022370 100.7285620  12.5474705  91.7852269  92.8035982
  11.9748672  92.4042456  92.3506454  13.1207498  92.3351630  93.3375904
  18.6150094  81.0310909 104.9882531  19.5667517  81.1309007 105.0094755
  18.4453545  80.2389177 105.4980615  16.6364474  78.1166492 105.1741932
  16.0414406  78.3971505 104.4788421  16.3514171  78.6060393 105.9458673
  15.7671964  92.0689419  93.9344565  16.7002637  92.0034981  94.1377440
  15.6795177  92.9045686  93.4759097  18.3959981  91.3855289  90.8948512
  18.3173613  91.0515153  91.7884270  19.2169648  91.8777057  90.8939985
  21.0938172  84.2517029 104.1024831  21.0614492  83.3133029 104.2884515
  21.7038796  84.3301065 103.3690656  12.9321503  83.1213082  90.1452035
  13.8780608  82.9919290  90.2140453  12.5535748  82.3827743  90.6221463
  21.2432661  81.0428072 104.1483114  20.7271709  80.2586529 103.9613043
  22.1272609  80.7146789 104.3129633  18.9043388  74.7869088 100.1078927
  18.7068209  74.4784176 100.9922259  19.5143093  75.5130726 100.2376856
  26.9114722  85.3133035 103.2430868  27.6418111  85.0518324 103.8038571
  26.3021668  84.5761757 103.2832936  24.9930019  83.4540898 103.8405319
  24.2663183  83.3196863 103.2321810  24.5777306  83.7617727 104.6462037
  11.1164420  81.0463058  90.0806920  10.2095876  80.7496171  90.1569634
  11.3940401  80.7492876  89.2141206  12.7326486  75.5899948  96.2351161
  11.9227214  75.2447033  96.6106407  13.4210903  75.2807491  96.8238773
  14.6617034  74.6677994  97.8575458  15.2148073  75.0873448  98.5165481
  14.8987121  73.7413743  97.8998414   9.8863205  77.9049993  90.2218899
  10.7482369  78.2304891  90.4814717  10.0713549  77.1181489  89.7091965
  18.0395841  76.7778520  97.3654122  17.4594510  77.4363324  96.9832175
  17.7731774  75.9555864  96.9541540  16.4899408  76.1783577  99.5675443
  16.9899186  76.2900112  98.7589761  17.1335016  75.8744630 100.2076251
  16.8220719  78.9378610  96.4210471  15.9346574  79.2228261  96.2030665
  17.2374708  78.7772373  95.5737747  20.1735255  78.9625131 100.1364810
  20.9495646  79.4521583 100.4089427  19.4483390  79.3883185 100.5936679
  22.6107814  79.6752750 101.1938750  23.2052305  79.4348486 100.4832059
  22.6834398  78.9559881 101.8212287  15.9663933  88.7023285  90.5158490
  16.6699783  88.9073287  91.1316146  15.2426582  89.2700047  90.7807574
  16.7961743  84.4533146  96.6360761  16.7396944  84.9101697  95.7968393
  17.3490086  83.6923830  96.4583603  20.6066549  80.2422878  97.4610880
  20.3503483  79.8419513  98.2919088  19.9819417  80.9566672  97.3361019
  24.9178887  82.9818951  99.9682172  24.3578445  83.0512140 100.7413734
  24.3122390  82.8059936  99.2481668  17.8750630  89.1405814  92.5656951
  18.7096234  88.7087012  92.3834425  17.7134973  88.9687828  93.4933845
  17.5296522  85.6437927  93.9313290  17.4745326  85.4782199  92.9901734
  16.9042578  86.3513960  94.0875480  10.8392648  75.1446036  93.5098608
  10.8271318  76.0887876  93.6666879  11.7316070  74.9616182  93.2158069
  14.6544767  71.7388813  97.7644545  13.8877163  71.1847299  97.9101227
  15.0655472  71.8110682  98.6258697  26.5034905  99.6575465 102.6612127
  27.1413315  99.5382212 101.9575467  26.3855748 100.6056309 102.7200079
  23.3124612  99.6102893 102.5973652  22.9743123  99.4943958 101.7094187
  24.1814380  99.2094058 102.5774658  19.1711427 101.4638369  98.5870543
  18.6076292 101.3728306  97.8186831  19.0563822 100.6438274  99.0673035
  24.7510986 105.1309337  93.8985008  24.0998966 105.7163418  93.5119022
  25.5455349 105.6615532  93.9580045  18.6766613 102.2198474  94.2972142
  19.4497489 101.6727461  94.1585018  19.0292012 103.0842724  94.5086604
  21.4407863 100.9251705 104.0940401  22.0371435 100.7007728 103.3797364
  21.4982834 100.1836451 104.6965849  21.0132891  98.3791140  91.9290592
  21.2658412  97.8572662  91.1674055  20.0757450  98.2157286  92.0317276
  26.0576174  97.3826919  99.7365335  26.8439263  96.9646342  99.3855752
  26.3214878  98.2873011  99.9046984  26.2286251 102.8199769  94.4353992
  25.5932084 102.8934396  95.1474897  25.8983658 103.4093368  93.7573071
  31.4584601  97.3202152 100.6398314  32.1909773  96.7501369 100.8736143
  30.7023957  96.9323752 101.0804819  20.7329180 100.2819246  94.1314967
  20.6165438  99.6064150  94.7996051  20.8431440  99.7951620  93.3147120
  23.0760721  99.7429393  97.8361656  22.7118928  99.2160014  98.5474578
  23.9327837  99.3527863  97.6628142  28.9810021  91.0323726 105.0992922
  28.6493346  91.9019137 104.8754137  28.3855635  90.7160010 105.7786953
  22.7166208  94.7719293  92.8323005  22.8840610  95.6399530  93.1993476
  22.5263377  94.9346575  91.9084294  25.4741541 103.2336272 104.4988835
  25.1742264 104.1361311 104.3904642  25.1292600 102.9668455 105.3509988
  18.9254022  99.6850069 100.5325540  18.0004519  99.5526283 100.7403231
  19.1738435 100.4644288 101.0295482  28.8738685  95.7518812 102.1786272
  27.9655562  95.6834221 101.8845033  28.8226280  96.2290757 103.0068098
  22.6955428  97.2276951  93.8169672  22.5755054  97.6734001  94.6555152
  22.0008017  97.5762268  93.2583210  20.4562321 109.9980592  97.4659803
  20.3786350 110.9488418  97.5448283  19.8523964 109.6526465  98.1234729
  30.7400331  93.9535251 103.9564146  30.0974711  94.2467784 103.3103941
  30.2355260  93.8388171 104.7617343  28.3940495  97.6998424  94.6450006
  29.3058351  97.9325811  94.4697703  27.8850142  98.2835468  94.0825084
  26.6781262 102.1223052 108.2811298  27.0864618 101.6805462 107.5365931
  25.9558524 101.5475679 108.5345491  23.0312332  97.0595658 105.6544855
  23.8773528  97.4835072 105.7979504  22.9710970  96.4029283 106.3483418
  27.0010077 102.6824242 102.0363587  26.3718939 102.8469956 101.3339655
  26.6135739 103.0965852 102.8074551  30.8799309 103.6178680  99.3907951
  30.1950347 103.9977582  98.8404984  30.9643158 104.2274007 100.1239899
  26.1811778  94.7200027 107.3126029  25.9372710  95.4742087 106.7760305
  26.4571708  95.0985374 108.1473276  28.1350240 101.2638639 105.9903294
  28.3467136 101.9070399 105.3137676  28.0879989 100.4300956 105.5225224
  25.7376469  93.8756460 102.8939867  24.8760948  94.1737713 103.1856604
  25.7638904  94.0926859 101.9620899  22.5538039 102.4198650  99.3013672
  23.0176384 102.6986353  98.5118295  22.2894837 101.5182095  99.1186763
  19.4462120 101.9670132 102.2393435  20.0163477 102.3957400 101.6010920
  20.0370232 101.6852717 102.9377621  21.4906925  98.5421803  96.1103237
  22.1930968  98.9942846  96.5777164  21.1587553  97.9005622  96.7383130
  15.2332259  96.8005355 101.4120371  14.4431313  97.0562884 100.9360482
  15.7243506  97.6153693 101.5172411  29.2496068 104.1410595 104.1625652
  30.0713512 103.7390782 103.8808333  29.2458471 104.0378829 105.1141768
  17.1847004  97.1649935  98.3703848  16.3878167  97.2768629  98.8887343
  16.9572596  97.5036587  97.5044738  37.3402061 100.4849343 100.5110623
  36.5865770  99.9156741 100.3554628  37.4749603 100.4512008 101.4581258
  22.7300689 105.3562745  96.1865343  22.5946364 106.2014281  96.6150190
  23.2710502 105.5582023  95.4231276  16.1830087 102.8738183  96.7593268
  16.6954607 103.6681434  96.9098832  16.8352800 102.1764474  96.6926869
  17.9924972 105.9903940  98.8416021  18.1691600 106.9121904  98.6537005
  18.7881805 105.6762359  99.2710401  22.1335990  92.8512204 110.4399954
  22.8745704  93.4519357 110.3604417  22.3653913  92.1089842 109.8817997
  26.0793153  88.8793307 104.7164236  25.7357422  89.7694949 104.6403347
  26.4472116  88.6894965 103.8533821  14.1479004 101.2026838  97.5352838
  14.9854226 101.6123846  97.3186546  14.3257271 100.2626280  97.5053032
  26.0443436  98.8701918  93.2236671  25.5290059  99.6406523  93.4625059
  25.7720744  98.1967055  93.8469733  23.6290547  93.7151619  98.2821910
  22.7732143  93.3258470  98.1027548  24.0417499  93.7943580  97.4221695
  25.1589693  91.2497962 102.6813469  24.6554489  91.2128098 101.8681275
  25.4520300  92.1590705 102.7410126  21.4032579  91.3336692 101.6879651
  22.2685576  91.1379501 101.3285541  21.4710088  91.1047044 102.6149008
  31.0177710 101.6234273  95.1589845  30.2407153 101.2845433  94.7145007
  31.6969191 101.6286896  94.4844810  25.8329739  96.7429010  95.0496452
  25.5279875  97.0575160  95.9006596  26.7860181  96.8210430  95.0923785
  24.2776171 102.9019234  96.6989406  23.7497532 102.1671993  96.3862644
  23.7763674 103.6793910  96.4529375  29.2569017 101.0968254 101.8156453
  28.5992691 101.7867516 101.9036581  30.0609416 101.4864686 102.1590439
  19.0094898  93.5638900  99.0596018  19.5838650  93.3414082  98.3269211
  19.5965881  93.6327595  99.8124619  28.0674476  99.4512627  99.8660394
  28.5806357 100.0842619 100.3682104  28.7175700  98.8513822  99.5003754
  19.3364486  95.5943361  93.0791903  18.5001798  95.9318048  93.4001178
  19.1969255  95.4592341  92.1419040  21.3117566  90.4380149  97.7871087
  20.6581978  90.1229166  97.1627702  21.2698040  89.8155889  98.5130910
  22.4228771 100.7199444  89.7024379  21.5155833 100.4888698  89.9015528
  22.9199803  99.9237063  89.8898361  25.3296850 109.4296951  92.6221066
  24.6558549 109.7328648  93.2306023  25.7162672 110.2326032  92.2726523
  24.5455306  96.9262083 102.1118735  23.6277868  97.1477030 101.9540423
  24.9615450  97.0008393 101.2530442  25.3290354  98.3253498  97.2421415
  26.0762173  98.8374895  96.9328537  25.5981944  98.0037551  98.1025809
  23.6017004 100.8212039  94.2248369  22.6928224 100.5371072  94.3220839
  23.6312088 101.2411117  93.3651676  28.8336272 104.4318628  97.9939537
  28.3798599 103.5909538  98.0504727  28.2030239 105.0680027  98.3314317
  27.7769191  95.3610614  99.2240204  27.0391948  94.8488001  99.5550447
  28.0295965  94.9210996  98.4123481  27.2769211 106.2695125  98.9289355
  27.5692185 106.8300182  98.2101721  27.7867832 106.5623686  99.6842514
  27.8780819  88.1386866  99.8181974  28.1839696  87.2784230  99.5307889
  28.6033424  88.7304487  99.6180968  14.1705175  98.5417553  98.2063572
  13.9729575  97.9486914  97.4814638  13.6151839  98.2369763  98.9239510
  22.1501898  98.4340660 100.3258165  22.2050508  97.4814496 100.2500641
  21.3393100  98.5900099 100.8099463  23.2993092 102.3620783  91.5636448
  22.8612522 101.6456642  91.1042085  24.0403533 102.5896897  91.0021539
  20.0894258  97.0517719  98.0848544  19.2762124  97.3511890  98.4913736
  20.5853253  96.6573408  98.8023026  22.2402836 107.0475476 100.0182808
  22.1979015 107.2736323  99.0891340  23.1565535 106.8138851 100.1668610
  25.6868470  97.5159544 106.9163438  26.0417858  97.7431017 107.7757903
  26.3340601  97.8477921 106.2940693  31.4166207 100.6377980  97.6212767
  31.2784106 100.8279576  96.6933956  31.0602426 101.3997362  98.0780818
  19.5808333  94.6236075 103.7009779  20.2207712  94.4824834 103.0032742
  18.7485864  94.3370588 103.3248381  31.4435587 102.7054507 102.6324038
  31.8772093 102.6129796 103.4807092  32.1567167 102.6812007 101.9944054
  20.3568637 103.9238505  99.8144771  21.1509236 103.4288825  99.6127346
  19.6460329 103.3956368  99.4512477  25.1763482 106.3056601 104.1657139
  25.2300504 106.8747537 104.9334855  24.3078263 106.4758486 103.8011176
  16.6651401  98.0681587  95.8904524  15.7348989  98.0066042  96.1074486
  16.7608873  97.5457540  95.0941165  16.5836950  94.5936400  98.4782765
  16.8443767  95.5081733  98.3691926  17.4054122  94.1260842  98.6279378
  32.3051136 102.7478207 105.1656924  32.4987026 103.6524018 105.4116198
  32.2051754 102.2885626 105.9995509  23.9587447  92.6336098 107.6647251
  23.3115362  93.3326048 107.5711727  24.7288462  93.0672242 108.0323499
  24.1351581 100.4716863 105.7244071  25.0643641 100.6228022 105.5513038
  23.7142611 100.5600884 104.8692717  22.9339913 104.4967527 103.4942608
  22.7950999 104.1286312 104.3668546  22.1454509 105.0115167 103.3226566
  23.5288065 109.5976624  94.8368145  23.7039821 109.1264667  95.6513767
  22.8420853 110.2242390  95.0649405  24.4845128 103.8749130 100.8831446
  24.1494961 103.8349900 101.7789096  23.9849074 103.2093846 100.4101856
  27.4204320 101.2205164  91.1568506  26.8033490 100.4951992  91.0601558
  26.9520808 101.9814525  90.8135580  29.0758452 105.9304073 108.8174286
  29.0170998 105.2463293 108.1504869  29.4777970 106.6723063 108.3654912
  19.2102866  95.4390589  90.2789810  18.3332332  95.3179389  89.9152057
  19.6860619  94.6476667  90.0268699  29.0775859 103.8943657 107.0488266
  28.1902638 103.5569578 107.1714665  29.6474410 103.1626688 107.2857031
  22.3966792 107.7916879  97.5252330  21.6134314 108.3338559  97.6190555
  23.0959537 108.3090859  97.9246572  25.7063442  93.6011508 100.1686536
  26.2032141  92.8481471  99.8487606  24.9350423  93.6375825  99.6029745
  33.5593199  99.3051874 101.8104827  33.5483076 100.1876589 101.4398760
  32.6910579  98.9523425 101.6159364  26.7893223 102.3583196  97.7424959
  25.8549501 102.4784658  97.5729664  26.9669891 101.4555662  97.4784969
  22.2898411  95.7428891  99.8958220  21.9196198  95.1899932 100.5839126
  22.7857503  95.1387025  99.3433220  30.1765774  98.2000515  98.2774993
  30.6426226  99.0328506  98.2035296  30.6273274  97.7345496  98.9820252
  28.2442005 104.5444336  95.2761145  28.5201849 104.4300931  96.1855019
  27.3746504 104.1461821  95.2373318  28.1482437  90.5681102 102.3165895
  27.2345516  90.7985329 102.4848102  28.5775538  90.6519546 103.1679927
  27.9188895  98.7570994 104.8165789  27.2660345  99.0046901 104.1618241
  28.2969275  97.9435132 104.4828266  24.8796069 108.7930687  98.9193959
  25.0618464 107.9752343  99.3821711  25.7029055 109.0098379  98.4818849
  25.2138235 107.7198872  96.1809007  25.7426001 107.2091327  95.5679170
  25.4766454 107.4041402  97.0454540  17.6863744  93.1532882 106.1411326
  17.7505071  94.0147713 105.7288724  17.6230865  92.5406884 105.4083685
  13.9381560  97.0332444  95.7202716  14.2335001  96.1243122  95.6669769
  13.0369595  97.0120183  95.3983718  25.8467638 108.7539708 102.5253124
  25.7218778 107.9529448 102.0164069  26.5046729 109.2485901 102.0367094
  17.4675807  95.1088440 101.7030264  16.7462392  95.7224408 101.5637737
  18.2569062  95.6446205 101.6246910  27.9102547 106.5548728 104.1532674
  26.9632882 106.4354079 104.0811001  28.2585320 105.6671226 104.2358935
  20.2702120  92.4442867 107.9770916  20.7936522  92.6905163 108.7397225
  20.0514453  93.2762902 107.5574053  15.6669401  94.7146541  95.8442041
  15.3382107  93.8343920  95.6617147  16.0208772  94.6594210  96.7318430
  24.9148980 106.3501444 100.3537026  24.7673942 105.4218152 100.5344596
  25.7402474 106.3721535  99.8694101  18.7811224  95.0019511  96.2117518
  19.1207297  95.5305432  95.4896127  19.2283345  95.3399917  96.9876085
  28.5183102 107.1730003 101.4401899  29.4429649 106.9672864 101.3026350
  28.3498405 106.9246404 102.3491240  21.4754665  93.3856562 105.6620586
  21.1351486  92.5864375 106.0641266  20.7693671  93.6858273 105.0897420
  22.1271137  90.4705874 104.1147909  22.9497206  89.9966353 103.9926800
  22.3709201  91.2496358 104.6146596  20.7679371  93.4994133  94.4110811
  21.4887734  93.8775386  93.9074528  20.1444676  94.2183010  94.5145789
  24.9110494  94.2039282  95.3469143  25.1274109  95.0863920  95.0457972
  24.4304562  93.8125495  94.6174785  19.6509716  97.1624995 101.9239888
  19.5054296  97.4765298 102.8164170  19.1734919  97.7809895 101.3710787
  21.5106099  94.1527543 101.9720778  21.4967667  93.2568636 101.6353076
  22.2278527  94.1598207 102.6059064  23.3632229  94.5864883 104.0173905
  23.1050007  95.5081954 104.0158235  22.8317270  94.1895318 104.7074369
  28.3078418 107.6915670  96.7963990  28.4815296 107.1262093  96.0437843
  28.8007309 108.4916565  96.6143480  20.9142995  93.0341923  97.2408348
  21.0358906  92.1058569  97.4399235  20.6245037  93.0480609  96.3286663
  23.7834185  90.7196834 100.3775068  23.8055882  90.7836167  99.4227047
  24.2002244  89.8801342 100.5715574  34.1617809 100.4552093  98.4154290
  34.6048955  99.7059418  98.0173413  33.2844320 100.4462230  98.0328022
  29.2953591 107.0082435  93.8960889  29.9904495 107.6289127  94.1148203
  29.6376741 106.1577786  94.1713267  31.1945014 104.4582140  95.4248219
  31.7196338 104.7969413  94.6997540  31.1067366 103.5229156  95.2411354
  22.8785674 110.5254124  99.7843473  22.4390665 110.0330502 100.4776329
  23.6293791 109.9827091  99.5435548  31.0036795 101.9407510 108.0432146
  31.0534800 101.7757518 108.9847669  30.8950718 101.0734769 107.6530027
  19.8873054 104.6196056  95.3324235  20.0361174 105.3031520  94.6790908
  20.6939497 104.6001146  95.8473691  28.2940557  97.9238438 109.3591453
  29.1950420  97.7844903 109.0675450  28.3688532  98.0892893 110.2989630
  22.6283363  95.3005293 108.2044639  21.7586672  95.5938859 107.9327228
  22.8642843  95.8845738 108.9251903  32.5054992 104.3604452 108.2874168
  32.2139800 104.7234432 109.1237628  31.8927123 103.6471460 108.1087500
  33.7050674 101.9257332 100.8076738  34.5397565 102.3647136 100.9714298
  33.8409803 101.4495985  99.9884984  30.7542180  99.4837066 106.7554226
  31.2296301  99.6764713 105.9473077  29.8307745  99.5396252 106.5097609
  17.6425687 100.6461234  96.3385304  17.3971728  99.7423564  96.5365514
  17.8121601 100.6478384  95.3964782  25.3322396  91.5184910 105.7210059
  25.8504340  92.2545937 105.3956548  24.9777529  91.8248903 106.5556819
  16.9121334  96.3789591  93.8371465  16.2190579  96.4533946  93.1811501
  16.6673086  95.6149935  94.3592982  25.5834991  87.9385193 101.2410956
  25.8636744  87.2708382 101.8671383  26.3685597  88.1314288 100.7285620
  23.3868459 107.1144186  92.8035982  22.8142426 107.7334374  92.3506454
  23.9601253 107.6643548  93.3375904  29.4543849  96.3602827 104.9882531
  30.4061272  96.4600924 105.0094755  29.2847299  95.5681095 105.4980615
  27.4758228  93.4458410 105.1741932  26.8808160  93.7263422 104.4788421
  27.1907925  93.9352311 105.9458673  26.6065719 107.3981337  93.9344565
  27.5396392 107.3326898  94.1377440  26.5188932 108.2337603  93.4759097
  29.2353736 106.7147207  90.8948512  29.1567367 106.3807071  91.7884270
  30.0563402 107.2068975  90.8939985  31.9331927  99.5808946 104.1024831
  31.9008247  98.6424947 104.2884515  32.5432550  99.6592983 103.3690656
  23.7715258  98.4504999  90.1452035  24.7174362  98.3211207  90.2140453
  23.3929502  97.7119661  90.6221463  32.0826415  96.3719990 104.1483114
  31.5665464  95.5878446 103.9613043  32.9666364  96.0438706 104.3129633
  29.7437142  90.1161005 100.1078927  29.5461963  89.8076093 100.9922259
  30.3536848  90.8422644 100.2376856  37.7508477 100.6424953 103.2430868
  38.4811865 100.3810241 103.8038571  37.1415422  99.9053675 103.2832936
  35.8323774  98.7832816 103.8405319  35.1056937  98.6488781 103.2321810
  35.4171061  99.0909644 104.6462037  21.9558175  96.3754976  90.0806920
  21.0489630  96.0788088  90.1569634  22.2334156  96.0784794  89.2141206
  23.5720240  90.9191865  96.2351161  22.7620969  90.5738950  96.6106407
  24.2604657  90.6099409  96.8238773  25.5010789  89.9969912  97.8575458
  26.0541827  90.4165366  98.5165481  25.7380875  89.0705660  97.8998414
  20.7256959  93.2341911  90.2218899  21.5876123  93.5596809  90.4814717
  20.9107303  92.4473407  89.7091965  28.8789596  92.1070437  97.3654122
  28.2988265  92.7655241  96.9832175  28.6125528  91.2847782  96.9541540
  27.3293162  91.5075495  99.5675443  27.8292941  91.6192029  98.7589761
  27.9728770  91.2036548 100.2076251  27.6614474  94.2670528  96.4210471
  26.7740329  94.5520178  96.2030665  28.0768463  94.1064291  95.5737747
  31.0129010  94.2917049 100.1364810  31.7889400  94.7813501 100.4089427
  30.2877144  94.7175103 100.5936679  33.4501569  95.0044668 101.1938750
  34.0446059  94.7640404 100.4832059  33.5228152  94.2851798 101.8212287
  26.8057687 104.0315202  90.5158490  27.5093537 104.2365205  91.1316146
  26.0820336 104.5991964  90.7807574  27.6355498  99.7825064  96.6360761
  27.5790699 100.2393615  95.7968393  28.1883840  99.0215748  96.4583603
  31.4460303  95.5714795  97.4610880  31.1897238  95.1711431  98.2919088
  30.8213172  96.2858589  97.3361019  35.7572641  98.3110869  99.9682172
  35.1972199  98.3804058 100.7413734  35.1516145  98.1351853  99.2481668
  28.7144385 104.4697732  92.5656951  29.5489989 104.0378930  92.3834425
  28.5528728 104.2979745  93.4933845  28.3690277 100.9729845  93.9313290
  28.3139081 100.8074116  92.9901734  27.7436332 101.6805878  94.0875480
  21.6786402  90.4737954  93.5098608  21.6665072  91.4179794  93.6666879
  22.5709824  90.2908099  93.2158069  25.4938522  87.0680730  97.7644545
  24.7270918  86.5139217  97.9101227  25.9049227  87.1402599  98.6258697
  37.3428660 114.9867383 102.6612127  37.9807070 114.8674130 101.9575467
  37.2249503 115.9348227 102.7200079  34.1518366 114.9394811 102.5973652
  33.8136878 114.8235875 101.7094187  35.0208134 114.5385976 102.5774658
  31.8526645 113.7083058  91.9290592  32.1052166 113.1864579  91.1674055
  30.9151205 113.5449204  92.0317276  36.8969928 112.7118836  99.7365335
  37.6833018 112.2938260  99.3855752  37.1608633 113.6164929  99.9046984
  42.2978355 112.6494070 100.6398314  43.0303527 112.0793286 100.8736143
  41.5417711 112.2615670 101.0804819  33.9154475 115.0721311  97.8361656
  33.5512682 114.5451932  98.5474578  34.7721591 114.6819780  97.6628142
  39.8203776 106.3615644 105.0992922  39.4887101 107.2311055 104.8754137
  39.2249389 106.0451928 105.7786953  33.5559962 110.1011211  92.8323005
  33.7234364 110.9691447  93.1993476  33.3657131 110.2638493  91.9084294
  39.7132439 111.0810730 102.1786272  38.8049316 111.0126138 101.8845033
  39.6620035 111.5582675 103.0068098  33.5349183 112.5568868  93.8169672
  33.4148808 113.0025919  94.6555152  32.8401771 112.9054186  93.2583210
  41.5794085 109.2827168 103.9564146  40.9368466 109.5759702 103.3103941
  41.0749014 109.1680089 104.7617343  39.2334249 113.0290342  94.6450006
  40.1452105 113.2617728  94.4697703  38.7243896 113.6127386  94.0825084
  37.5175017 117.4514969 108.2811298  37.9258373 117.0097380 107.5365931
  36.7952278 116.8767597 108.5345491  33.8706087 112.3887576 105.6544855
  34.7167282 112.8126990 105.7979504  33.8104725 111.7321200 106.3483418
  37.0205532 110.0491944 107.3126029  36.7766464 110.8034005 106.7760305
  37.2965463 110.4277292 108.1473276  38.9743995 116.5930557 105.9903294
  39.1860890 117.2362317 105.3137676  38.9273743 115.7592873 105.5225224
  36.5770224 109.2048378 102.8939867  35.7154703 109.5029631 103.1856604
  36.6032659 109.4218776 101.9620899  32.3300679 113.8713720  96.1103237
  33.0324723 114.3234764  96.5777164  31.9981308 113.2297539  96.7383130
  26.0726013 112.1297273 101.4120371  25.2825067 112.3854802 100.9360482
  26.5637261 112.9445611 101.5172411  28.0240759 112.4941852  98.3703848
  27.2271922 112.6060547  98.8887343  27.7966351 112.8328505  97.5044738
  48.1795816 115.8141261 100.5110623  47.4259524 115.2448659 100.3554628
  48.3143357 115.7803925 101.4581258  32.9729745 108.1804122 110.4399954
  33.7139458 108.7811275 110.3604417  33.2047667 107.4381760 109.8817997
  36.9186908 104.2085225 104.7164236  36.5751177 105.0986867 104.6403347
  37.2865870 104.0186883 103.8533821  36.8837190 114.1993836  93.2236671
  36.3683814 114.9698441  93.4625059  36.6114499 113.5258972  93.8469733
  34.4684301 109.0443537  98.2821910  33.6125898 108.6550387  98.1027548
  34.8811253 109.1235498  97.4221695  35.9983448 106.5789880 102.6813469
  35.4948244 106.5420015 101.8681275  36.2914055 107.4882623 102.7410126
  32.2426334 106.6628610 101.6879651  33.1079331 106.4671419 101.3285541
  32.3103843 106.4338962 102.6149008  41.8571464 116.9526191  95.1589845
  41.0800907 116.6137350  94.7145007  42.5362945 116.9578814  94.4844810
  36.6723493 112.0720928  95.0496452  36.3673629 112.3867077  95.9006596
  37.6253936 112.1502348  95.0923785  40.0962771 116.4260172 101.8156453
  39.4386446 117.1159433 101.9036581  40.9003171 116.8156604 102.1590439
  29.8488653 108.8930818  99.0596018  30.4232405 108.6705999  98.3269211
  30.4359635 108.9619512  99.8124619  38.9068230 114.7804545  99.8660394
  39.4200112 115.4134536 100.3682104  39.5569454 114.1805740  99.5003754
  30.1758240 110.9235279  93.0791903  29.3395552 111.2609965  93.4001178
  30.0363010 110.7884259  92.1419040  32.1511321 105.7672067  97.7871087
  31.4975733 105.4521084  97.1627702  32.1091795 105.1447807  98.5130910
  33.2622525 116.0491362  89.7024379  32.3549587 115.8180615  89.9015528
  33.7593557 115.2528981  89.8898361  35.3849061 112.2554000 102.1118735
  34.4671622 112.4768947 101.9540423  35.8009205 112.3300311 101.2530442
  36.1684109 113.6545416  97.2421415  36.9155928 114.1666813  96.9328537
  36.4375698 113.3329469  98.1025809  34.4410759 116.1503957  94.2248369
  33.5321978 115.8662989  94.3220839  34.4705843 116.5703035  93.3651676
  38.6162946 110.6902532  99.2240204  37.8785703 110.1779918  99.5550447
  38.8689719 110.2502914  98.4123481  38.7174573 103.4678784  99.8181974
  39.0233450 102.6076148  99.5307889  39.4427178 104.0596404  99.6180968
  32.9895653 113.7632577 100.3258165  33.0444263 112.8106414 100.2500641
  32.1786855 113.9192016 100.8099463  30.9288013 112.3809637  98.0848544
  30.1155878 112.6803808  98.4913736  31.4247007 111.9865326  98.8023026
  36.5262225 112.8451461 106.9163438  36.8811612 113.0722935 107.7757903
  37.1734356 113.1769838 106.2940693  42.2559962 115.9669897  97.6212767
  42.1177860 116.1571493  96.6933956  41.8996180 116.7289280  98.0780818
  30.4202088 109.9527992 103.7009779  31.0601467 109.8116752 103.0032742
  29.5879618 109.6662506 103.3248381  42.2829341 118.0346424 102.6324038
  42.7165848 117.9421713 103.4807092  42.9960922 118.0103925 101.9944054
  27.5045155 113.3973505  95.8904524  26.5742743 113.3357960  96.1074486
  27.6002627 112.8749457  95.0941165  27.4230704 109.9228317  98.4782765
  27.6837521 110.8373651  98.3691926  28.2447876 109.4552760  98.6279378
  43.1444891 118.0770125 105.1656924  43.3380781 118.9815935 105.4116198
  43.0445509 117.6177544 105.9995509  34.7981201 107.9628016 107.6647251
  34.1509116 108.6617965 107.5711727  35.5682217 108.3964159 108.0323499
  34.9745336 115.8008780 105.7244071  35.9037396 115.9519940 105.5513038
  34.5536366 115.8892801 104.8692717  38.2598074 116.5497082  91.1568506
  37.6427245 115.8243910  91.0601558  37.7914563 117.3106442  90.8135580
  30.0496620 110.7682506  90.2789810  29.1726087 110.6471307  89.9152057
  30.5254373 109.9768585  90.0268699  36.5457196 108.9303426 100.1686536
  37.0425896 108.1773388  99.8487606  35.7744178 108.9667743  99.6029745
  44.3986954 114.6343792 101.8104827  44.3876830 115.5168507 101.4398760
  43.5304333 114.2815342 101.6159364  33.1292165 111.0720809  99.8958220
  32.7589953 110.5191849 100.5839126  33.6251258 110.4678943  99.3433220
  41.0159528 113.5292433  98.2774993  41.4819981 114.3620424  98.2035296
  41.4667029 113.0637414  98.9820252  38.9876191 105.8973020 102.3165895
  38.0739271 106.1277246 102.4848102  39.4169293 105.9811464 103.1679927
  38.7582650 114.0862912 104.8165789  38.1054100 114.3338819 104.1618241
  39.1363030 113.2727050 104.4828266  28.5257499 108.4824800 106.1411326
  28.5898825 109.3439631 105.7288724  28.4624619 107.8698801 105.4083685
  24.7775314 112.3624361  95.7202716  25.0728755 111.4535040  95.6669769
  23.8763350 112.3412101  95.3983718  28.3069561 110.4380358 101.7030264
  27.5856147 111.0516326 101.5637737  29.0962817 110.9738123 101.6246910
  31.1095875 107.7734785 107.9770916  31.6330276 108.0197081 108.7397225
  30.8908208 108.6054819 107.5574053  26.5063156 110.0438459  95.8442041
  26.1775862 109.1635838  95.6617147  26.8602526 109.9886128  96.7318430
  29.6204979 110.3311429  96.2117518  29.9601051 110.8597350  95.4896127
  30.0677099 110.6691835  96.9876085  32.3148420 108.7148480 105.6620586
  31.9745240 107.9156293 106.0641266  31.6087426 109.0150190 105.0897420
  32.9664891 105.7997792 104.1147909  33.7890961 105.3258270 103.9926800
  33.2102955 106.5788276 104.6146596  31.6073126 108.8286051  94.4110811
  32.3281488 109.2067303  93.9074528  30.9838430 109.5474927  94.5145789
  35.7504249 109.5331199  95.3469143  35.9667863 110.4155837  95.0457972
  35.2698316 109.1417413  94.6174785  30.4903470 112.4916913 101.9239888
  30.3448051 112.8057216 102.8164170  30.0128674 113.1101813 101.3710787
  32.3499853 109.4819461 101.9720778  32.3361422 108.5860554 101.6353076
  33.0672281 109.4890124 102.6059064  34.2025984 109.9156801 104.0173905
  33.9443762 110.8373872 104.0158235  33.6711024 109.5187235 104.7074369
  31.7536749 108.3633841  97.2408348  31.8752660 107.4350487  97.4399235
  31.4638791 108.3772527  96.3286663  34.6227939 106.0488751 100.3775068
  34.6449636 106.1128085  99.4227047  35.0395998 105.2093260 100.5715574
  45.0011564 115.7844011  98.4154290  45.4442710 115.0351336  98.0173413
  44.1238074 115.7754147  98.0328022  41.8430549 117.2699428 108.0432146
  41.8928554 117.1049435 108.9847669  41.7344473 116.4026687 107.6530027
  39.1334312 113.2530356 109.3591453  40.0344174 113.1136821 109.0675450
  39.2082286 113.4184811 110.2989630  33.4677117 110.6297211 108.2044639
  32.5980426 110.9230777 107.9327228  33.7036597 111.2137656 108.9251903
  44.5444428 117.2549249 100.8076738  45.3791320 117.6939053 100.9714298
  44.6803557 116.7787902  99.9884984  41.5935934 114.8128984 106.7554226
  42.0690056 115.0056630 105.9473077  40.6701500 114.8688170 106.5097609
  36.1716151 106.8476828 105.7210059  36.6898095 107.5837855 105.3956548
  35.8171284 107.1540821 106.5556819  27.7515089 111.7081509  93.8371465
  27.0584333 111.7825864  93.1811501  27.5066840 110.9441853  94.3592982
  36.4228745 103.2677110 101.2410956  36.7030499 102.6000299 101.8671383
  37.2079352 103.4606206 100.7285620  40.2937603 111.6894744 104.9882531
  41.2455026 111.7892842 105.0094755  40.1241054 110.8973013 105.4980615
  38.3151983 108.7750327 105.1741932  37.7201915 109.0555340 104.4788421
  38.0301680 109.2644228 105.9458673  42.7725681 114.9100864 104.1024831
  42.7402001 113.9716865 104.2884515  43.3826305 114.9884901 103.3690656
  34.6109012 113.7796917  90.1452035  35.5568117 113.6503125  90.2140453
  34.2323257 113.0411579  90.6221463  42.9220170 111.7011907 104.1483114
  42.4059218 110.9170364 103.9613043  43.8060118 111.3730624 104.3129633
  40.5830897 105.4452923 100.1078927  40.3855718 105.1368011 100.9922259
  41.1930602 106.1714562 100.2376856  48.5902231 115.9716871 103.2430868
  49.3205620 115.7102159 103.8038571  47.9809177 115.2345593 103.2832936
  46.6717528 114.1124733 103.8405319  45.9450692 113.9780698 103.2321810
  46.2564815 114.4201562 104.6462037  32.7951929 111.7046893  90.0806920
  31.8883385 111.4080006  90.1569634  33.0727910 111.4076711  89.2141206
  34.4113995 106.2483783  96.2351161  33.6014723 105.9030868  96.6106407
  35.0998412 105.9391327  96.8238773  36.3404543 105.3261830  97.8575458
  36.8935582 105.7457283  98.5165481  36.5774630 104.3997578  97.8998414
  31.5650714 108.5633828  90.2218899  32.4269878 108.8888727  90.4814717
  31.7501058 107.7765324  89.7091965  39.7183350 107.4362355  97.3654122
  39.1382019 108.0947159  96.9832175  39.4519283 106.6139700  96.9541540
  38.1686917 106.8367413  99.5675443  38.6686695 106.9483947  98.7589761
  38.8122525 106.5328465 100.2076251  38.5008228 109.5962445  96.4210471
  37.6134083 109.8812096  96.2030665  38.9162217 109.4356209  95.5737747
  41.8522764 109.6208966 100.1364810  42.6283155 110.1105419 100.4089427
  41.1270899 110.0467020 100.5936679  44.2895323 110.3336586 101.1938750
  44.8839814 110.0932321 100.4832059  44.3621907 109.6143716 101.8212287
  38.4749252 115.1116981  96.6360761  38.4184453 115.5685533  95.7968393
  39.0277595 114.3507666  96.4583603  42.2854058 110.9006713  97.4610880
  42.0290992 110.5003349  98.2919088  41.6606926 111.6150507  97.3361019
  46.5966396 113.6402786  99.9682172  46.0365954 113.7095976 100.7413734
  45.9909899 113.4643771  99.2481668  39.2084031 116.3021762  93.9313290
  39.1532835 116.1366034  92.9901734  38.5830087 117.0097795  94.0875480
  32.5180157 105.8029872  93.5098608  32.5058827 106.7471711  93.6666879
  33.4103579 105.6200017  93.2158069  36.3332276 102.3972648  97.7644545
  35.5664672 101.8431135  97.9101227  36.7442981 102.4694517  98.6258697
  47.7580662 119.5377143 104.7164236  47.4144931 120.4278784 104.6403347
  48.1259625 119.3478800 103.8533821  49.5568328 118.7970702  99.8181974
  49.8627205 117.9368065  99.5307889  50.2820933 119.3888322  99.6180968
  49.8269946 121.2264937 102.3165895  48.9133025 121.4569164 102.4848102
  50.2563047 121.3103381 103.1679927  47.2622500 118.5969028 101.2410956
  47.5424253 117.9292217 101.8671383  48.0473106 118.7898124 100.7285620
  51.4224651 120.7744841 100.1078927  51.2249472 120.4659929 100.9922259
  52.0324357 121.5006479 100.2376856  47.1798298 120.6553747  97.8575458
  47.7329336 121.0749201  98.5165481  47.4168384 119.7289496  97.8998414
  47.1726031 117.7264566  97.7644545  46.4058427 117.1723053  97.9101227
  47.5836736 117.7986435  98.6258697   4.8220799  31.5035713  87.2355930
   4.0684508  30.9343111  87.0799934   4.9568340  31.4698377  88.1826565
   1.6436547  31.4738463  85.1399597   2.0867693  30.7245788  84.7418720
   0.7663057  31.4648599  84.7573329   1.1869412  32.9443701  87.5322044
   2.0216303  33.3833505  87.6959605   1.3228541  32.4682354  86.7130290
   5.2327214  31.6611323  89.9676174   5.9630603  31.3996611  90.5283878
   4.6234160  30.9240045  90.0078242   3.3142511  29.8019185  90.5650625
   2.5875675  29.6675150  89.9567117   2.8989798  30.1096014  91.3707343
   0.9320306  26.0231037  87.9184057   1.5264797  25.7826773  87.2077365
   1.0046890  25.3038168  88.5457593   3.2391379  29.3297238  86.6927478
   2.6790937  29.3990428  87.4659040   2.6334882  29.1538223  85.9726974
   4.8247398  46.0053752  89.3857434   5.4625808  45.8860500  88.6820774
   4.7068240  46.9534596  89.4445386   1.6337104  45.9581180  89.3218959
   1.2955615  45.8422245  88.4339493   2.5026872  45.5572345  89.3019965
   2.1156887  47.1116032  95.2805164   2.1045528  46.7168830  94.4085668
   2.2777526  46.3782105  95.8738936   3.0723478  51.4787624  80.6230314
   2.4211458  52.0641705  80.2364328   3.8667841  52.0093819  80.6825352
   4.3788666  43.7305206  86.4610642   5.1651755  43.3124629  86.1101059
   4.6427370  44.6351298  86.6292290   4.5498743  49.1678056  81.1599299
   3.9144576  49.2412683  81.8720203   4.2196150  49.7571655  80.4818378
   9.7797093  43.6680439  87.3643620  10.5122265  43.0979656  87.5981450
   9.0236449  43.2802040  87.8050126   1.3973213  46.0907681  84.5606963
   1.0331420  45.5638302  85.2719884   2.2540329  45.7006150  84.3873448
   7.3022514  37.3802013  91.8238229   6.9705838  38.2497424  91.5999444
   6.7068127  37.0638297  92.5032259   1.0378700  41.1197580  79.5568311
   1.2053102  41.9877817  79.9238782   0.8475869  41.2824862  78.6329601
   3.7954033  49.5814559  91.2234142   3.4954756  50.4839598  91.1149949
   3.4505093  49.3146743  92.0755295   7.1951177  42.0997100  88.9031579
   6.2868054  42.0312508  88.6090340   7.1438773  42.5769044  89.7313405
   1.2692043  43.5186745  96.8466476   0.4925377  44.0780665  96.8369341
   1.9082606  44.0043528  97.3681347   9.0612823  40.3013538  90.6809453
   8.4187204  40.5946071  90.0349248   8.5567752  40.1866458  91.4862650
   6.7152987  44.0476711  81.3695312   7.6270843  44.2804098  81.1943010
   6.2062634  44.6313755  80.8070391   4.9993755  48.4701339  95.0056605
   5.4077111  48.0283749  94.2611237   4.2771016  47.8953966  95.2590798
   1.3524825  43.4073946  92.3790162   2.1986020  43.8313359  92.5224811
   1.2923462  42.7507570  93.0728725   5.3222569  49.0302530  88.7608894
   4.6931432  49.1948244  88.0584962   4.9348231  49.4444139  89.5319858
   9.2011801  49.9656967  86.1153258   8.5162839  50.3455869  85.5650291
   9.2855650  50.5752294  86.8485205   4.5024270  41.0678314  94.0371335
   4.2585202  41.8220375  93.5005611   4.7784200  41.4463662  94.8718583
   6.4562733  47.6116926  92.7148601   6.6679628  48.2548686  92.0382982
   6.4092481  46.7779243  92.2470531   4.0588962  40.2234747  89.6185173
   3.1973441  40.5216001  89.9101911   4.0851396  40.4405146  88.6866206
   0.8750531  48.7676938  86.0258979   1.3388877  49.0464641  85.2363601
   0.6107329  47.8660382  85.8432070   7.5708561  50.4888882  90.8870958
   8.3926004  50.0869069  90.6053640   7.5670964  50.3857116  91.8387074
   1.3365164  50.0372925  93.0431669   1.4009597  50.4993332  93.8789841
   0.6276088  49.4070290  93.1713979  15.6614554  46.8327630  87.2355930
  14.9078262  46.2635028  87.0799934  15.7962095  46.7990295  88.1826565
   1.0513182  51.7041033  82.9110649   0.9158857  52.5492568  83.3395497
   1.5922994  51.9060310  82.1476583   2.6781658  52.3264599  97.0410991
   2.2345512  51.5400978  96.7231896   3.3398872  52.5143750  96.3754882
   4.7762896  52.6067399  95.0692393   4.7581372  53.4276280  94.5772662
   5.6982816  52.4821474  95.2942534   1.2335950  50.1211529  95.9115901
   1.7664287  49.3599817  95.6815209   0.7050031  49.8285180  96.6540055
   4.4005645  35.2271595  91.4409543   4.0569915  36.1173236  91.3648653
   4.7684608  35.0373252  90.5779128   4.3655928  45.2180206  79.9481978
   3.8502552  45.9884810  80.1870365   4.0933237  44.5445342  80.5715039
   1.9503039  40.0629906  85.0067216   1.0944635  39.6736757  84.8272855
   2.3629991  40.1421867  84.1467002   3.4802186  37.5976250  89.4058776
   2.9766981  37.5606385  88.5926581   3.7732793  38.5068992  89.4655433
   9.3390202  47.9712560  81.8835151   8.5619645  47.6323720  81.4390313
  10.0181683  47.9765183  81.2090116   4.1542231  43.0907298  81.7741759
   3.8492367  43.4053447  82.6251902   5.1072673  43.1688718  81.8169092
   2.5988663  49.2497521  83.4234713   2.0710025  48.5150281  83.1107950
   2.0976166  50.0272197  83.1774681   7.5781509  47.4446542  88.5401759
   6.9205184  48.1345803  88.6281888   8.3821908  47.8342973  88.8835746
   6.3886968  45.7990914  86.5905701   6.9018850  46.4320906  87.0927411
   7.0388192  45.1992110  86.2249061   3.6509342  55.7775238  79.3466372
   2.9771041  56.0806935  79.9551330   4.0375164  56.5804319  78.9971829
   2.8667799  43.2740370  88.8364042   1.9490360  43.4955317  88.6785730
   3.2827942  43.3486680  87.9775749   3.6502847  44.6731785  83.9666722
   4.3974665  45.1853183  83.6573844   3.9194436  44.3515838  84.8271115
   1.9229497  47.1690326  80.9493676   1.0140716  46.8849359  81.0466146
   1.9524581  47.5889405  80.0896983   7.1548764  50.7796916  84.7184844
   6.7011091  49.9387826  84.7750034   6.5242731  51.4158314  85.0559624
   6.0981684  41.7088902  85.9485511   5.3604440  41.1966288  86.2795754
   6.3508457  41.2689283  85.1368788   5.5981703  52.6173412  85.6534662
   5.8904678  53.1778469  84.9347027   6.1080324  52.9101973  86.4087821
   6.1993311  34.4865154  86.5427280   6.5052188  33.6262517  86.2553195
   6.9245916  35.0782774  86.3426274   1.6205585  48.7099070  78.2881755
   1.1825014  47.9934929  77.8287392   2.3616025  48.9375185  77.7266846
   0.5615329  53.3953763  86.7428115   0.5191507  53.6214610  85.8136647
   1.4778027  53.1617138  86.8913916   4.0080962  43.8637831  93.6408744
   4.3630350  44.0909304  94.5003210   4.6553094  44.1956208  93.0186000
   9.7378699  46.9856267  84.3458073   9.5996598  47.1757863  83.4179262
   9.3814918  47.7475650  84.8026124   9.7648079  49.0532794  89.3569345
  10.1984586  48.9608083  90.2052399  10.4779660  49.0290294  88.7189361
   3.4975974  52.6534888  90.8902445   3.5512996  53.2225824  91.6580161
   2.6290755  52.8236773  90.5256482  10.6263628  49.0956495  91.8902230
  10.8199519  50.0002305  92.1361505  10.5264247  48.6363914  92.7240815
   2.2799939  38.9814385  94.3892557   1.6327854  39.6804335  94.2957034
   3.0500955  39.4150529  94.7568806   5.6878737  49.2463237  97.4643111
   5.5364244  49.0173789  96.5473194   5.6783417  50.2033839  97.4774456
   2.4564074  46.8195150  92.4489377   3.3856134  46.9706310  92.2758345
   2.0355104  46.9079171  91.5938024   1.8500557  55.9454911  81.5613451
   2.0252313  55.4742954  82.3759074   1.1633345  56.5720677  81.7894712
   2.8057620  50.2227417  87.6076753   2.4707453  50.1828187  88.5034402
   2.3061566  49.5572133  87.1347163   5.7416812  47.5683451  77.8813812
   5.1245983  46.8430280  77.7846865   5.2733301  48.3292812  77.5380887
   7.3970944  52.2782360  95.5419593   7.3383490  51.5941580  94.8750176
   7.7990462  53.0201350  95.0900219   7.3988351  50.2421944  93.7733572
   6.5115130  49.9047866  93.8959971   7.9686902  49.5104975  94.0102338
   0.9289504  54.9023396  90.7394816   0.8559676  55.7078368  91.2514120
   0.4866898  55.1015362  89.9142837   4.0275934  39.9489796  86.8931842
   4.5244634  39.1959758  86.5732913   3.2562916  39.9854112  86.3275052
  11.8805692  45.6530161  88.5350134  11.8695568  46.5354877  88.1644067
  11.0123071  45.3001712  88.3404671   3.3888188  54.8010230  92.8952974
   4.1016160  55.4357695  92.8228876   2.8978217  54.8974096  92.0792976
   5.1105715  48.7061483  84.4670266   4.1761994  48.8262945  84.2974970
   5.2882383  47.8033950  84.2030276   8.4978266  44.5478802  85.0020300
   8.9638718  45.3806794  84.9280603   8.9485767  44.0823784  85.7065558
   6.5654497  50.8922623  82.0006452   6.8414341  50.7779218  82.9100326
   5.6958996  50.4940108  81.9618625   6.4694929  36.9159389  89.0411201
   5.5558009  37.1463616  89.2093408   6.8988030  36.9997833  89.8925234
   6.2401387  45.1049281  91.5411095   5.5872838  45.3525189  90.8863548
   6.6181767  44.2913419  91.2073573   3.2008561  55.1408974  85.6439266
   3.3830956  54.3230630  86.1067018   4.0241547  55.3576667  85.2064156
   3.5350727  54.0677159  82.9054314   4.0638493  53.5569614  82.2924476
   3.7978946  53.7519690  83.7699847   2.2888960  45.8469092  98.0277132
   1.6129598  45.7463221  98.6979508   3.1116594  45.6908306  98.4913130
   1.0311743  57.1536020  92.2634748   1.5830051  57.3167641  93.0283834
   1.3717937  57.7440457  91.5914773   5.8822618  51.9797277  98.1183403
   6.4262522  52.5927235  97.6238358   5.3009463  52.5376855  98.6350416
   4.1680131  55.1017995  89.2498431   4.0431270  54.3007735  88.7409376
   4.8259222  55.5964188  88.7612401   6.2315039  52.9027015  90.8777981
   5.2845375  52.7832366  90.8056307   6.5797812  52.0149513  90.9604242
   3.2361472  52.6979731  87.0782333   3.0886435  51.7696439  87.2589903
   4.0614966  52.7199822  86.5939408   6.8395594  53.5208290  88.1647206
   7.7642142  53.3151151  88.0271657   6.6710898  53.2724691  89.0736547
   3.2322987  40.5517569  82.0714450   3.4486601  41.4342207  81.7703278
   2.7517054  40.1603782  81.3420092   1.6844722  40.9343170  90.7419212
   1.4262499  41.8560241  90.7403542   1.1529762  40.5373605  91.4319676
   6.6290910  54.0393958  83.5209297   6.8027788  53.4740380  82.7683150
   7.1219802  54.8394852  83.3388787   2.1046677  37.0675121  87.1020374
   2.1268374  37.1314454  86.1472354   2.5214736  36.2279630  87.2960880
  12.4830302  46.8030381  85.1399597  12.9261448  46.0537706  84.7418720
  11.6056812  46.7940517  84.7573329   7.6166083  53.3560722  80.6206195
   8.3116988  53.9767415  80.8393510   7.9589233  52.5056073  80.8958573
   9.5157506  50.8060428  82.1493526  10.0408830  51.1447700  81.4242846
   9.4279859  49.8707443  81.9656661   1.1777555  54.7194501  94.2783403
   1.4864681  54.4743648  95.1506102   1.9753037  54.9241140  93.7902273
   1.1998167  56.8732411  86.5088779   0.7603157  56.3808789  87.2021636
   1.9506284  56.3305378  86.2680855   9.2051412  51.4393331  97.4544724
   8.4146956  51.4217470  96.9149224   8.9684767  51.9781625  98.2093761
   9.3249287  48.2885798  94.7677453   9.3747292  48.1235805  95.7092975
   9.2163210  47.4213057  94.3775333   6.6153050  44.2716726  96.0836759
   7.5162912  44.1323190  95.7920757   6.6901024  44.4371180  97.0234937
  10.8267484  50.7082739  95.0119474  10.5352292  51.0712720  95.8482935
  10.2139615  49.9949747  94.8332806  12.0263166  48.2735619  87.5322044
  12.8610058  48.7125423  87.6959605  12.1622295  47.7974272  86.7130290
   9.0754672  45.8315354  93.4799532   9.5508794  46.0243000  92.6718384
   8.1520238  45.8874540  93.2342916   3.6534889  37.8663197  92.4455366
   4.1716833  38.6024224  92.1201855   3.2990021  38.1727191  93.2802125
   3.9047483  34.2863480  87.9656263   4.1849237  33.6186669  88.5916689
   4.6898090  34.4792575  87.4530926   1.7080951  53.4622474  79.5281289
   1.1354918  54.0812661  79.0751761   2.2813745  54.0121835  80.0621211
   7.7756341  42.7081114  91.7127838   8.7273764  42.8079211  91.7340062
   7.6059792  41.9159382  92.2225922   5.7970721  39.7936697  91.8987239
   5.2020653  40.0741710  91.2033727   5.5120417  40.2830598  92.6703980
   4.9278211  53.7459624  80.6589871   5.8608884  53.6805185  80.8622747
   4.8401424  54.5815891  80.2004404   7.5566228  53.0625494  77.6193819
   7.4779859  52.7285358  78.5129577   8.3775895  53.5547262  77.6185291
  10.2544419  45.9287233  90.8270137  10.2220739  44.9903234  91.0129821
  10.8645043  46.0071270  90.0935962   2.0927750  44.7983286  76.8697341
   3.0386855  44.6689495  76.9385759   1.7141995  44.0597948  77.3466770
  10.4038907  42.7198277  90.8728421   9.8877956  41.9356734  90.6858349
  11.2878856  42.3916994  91.0374940   8.0649634  36.4639292  86.8324233
   7.8674456  36.1554381  87.7167565   8.6749340  37.1900931  86.9622163
  16.0720969  46.9903240  89.9676174  16.8024357  46.7288528  90.5283878
  15.4627914  46.2531962  90.0078242  14.1536266  45.1311103  90.5650625
  13.4269430  44.9967068  89.9567117  13.7383553  45.4387931  91.3707343
   1.9766442  48.8501033  98.3297998   2.8969452  49.0279632  98.5238045
   1.9416025  47.9057078  98.1777698   1.8932733  37.2670153  82.9596468
   1.0833461  36.9217238  83.3351714   2.5817150  36.9577696  83.5484080
   3.8223281  36.3448199  84.5820765   4.3754320  36.7643653  85.2410788
   4.0593367  35.4183947  84.6243721   7.2002088  38.4548724  84.0899429
   6.6200757  39.1133529  83.7077481   6.9338021  37.6326069  83.6786846
   5.6505654  37.8553782  86.2920749   6.1505433  37.9670317  85.4835068
   6.2941262  37.5514835  86.9321558   5.9826966  40.6148815  83.1455777
   5.0952821  40.8998466  82.9275972   6.3980955  40.4542578  82.2983054
   9.3341502  40.6395336  86.8610116  10.1101892  41.1291788  87.1334733
   8.6089636  41.0653390  87.3181986  11.7714061  41.3522955  87.9184057
  12.3658552  41.1118691  87.2077365  11.8440645  40.6330086  88.5457593
   5.1270180  50.3793490  77.2403797   5.8306030  50.5843492  77.8561453
   4.4032828  50.9470251  77.5052881   5.9567990  46.1303351  83.3606067
   5.9003191  46.5871902  82.5213700   6.5096332  45.3694035  83.1828910
   9.7672796  41.9193083  84.1856187   9.5109730  41.5189718  85.0164394
   9.1425664  42.6336877  84.0606326  14.0785134  44.6589156  86.6927478
  13.5184692  44.7282345  87.4659040  13.4728637  44.4830141  85.9726974
   7.0356877  50.8176019  79.2902257   7.8702481  50.3857217  79.1079732
   6.8741220  50.6458032  80.2179152   6.6902769  47.3208132  80.6558596
   6.6351573  47.1552403  79.7147041   6.0648824  48.0284165  80.8120786
   4.0048676  49.6257044  99.9812159   4.8739836  49.7997696  99.6198794
   3.5255428  50.4451461  99.8587889   3.8151014  33.4159018  84.4889852
   3.0483410  32.8617504  84.6346534   4.2261719  33.4880886  85.3504003
  15.6641152  61.3345670  89.3857434  16.3019562  61.2152417  88.6820774
  15.5461995  62.2826514  89.4445386  12.4730858  61.2873098  89.3218959
  12.1349370  61.1714163  88.4339493  13.3420627  60.8864263  89.3019965
   8.3317674  63.1408574  85.3115850   7.7682539  63.0498511  84.5432137
   8.2170069  62.3208479  85.7918342  12.9550641  62.4407950  95.2805164
  12.9439282  62.0460748  94.4085668  13.1171281  61.7074022  95.8738936
   5.8782106  64.6359766  88.1500070   6.6703398  64.2950591  87.7346369
   6.1178756  64.7454741  89.0702223  13.9117233  66.8079542  80.6230314
  13.2605213  67.3933622  80.2364328  14.7061596  67.3385737  80.6825352
   7.8372860  63.8968679  81.0217449   8.6103736  63.3497666  80.8830325
   8.1898259  64.7612929  81.2331910   9.6757902  65.2245061  94.2284348
   9.3847768  66.1290692  94.1131014  10.3114887  65.2661589  94.9428418
  10.6014109  62.6021910  90.8185708  11.1977682  62.3777932  90.1042671
  10.6589081  61.8606655  91.4211156  10.1739138  60.0561345  78.6535899
  10.4264658  59.5342867  77.8919362   9.2363697  59.8927491  78.7562582
  15.2182421  59.0597124  86.4610642  16.0045510  58.6416547  86.1101059
  15.4821125  59.9643216  86.6292290  15.3892498  64.4969974  81.1599299
  14.7538331  64.5704601  81.8720203  15.0589904  65.0863573  80.4818378
  20.6190848  58.9972357  87.3643620  21.3516020  58.4271574  87.5981450
  19.8630203  58.6093957  87.8050126   9.8935426  61.9589451  80.8560274
   9.7771685  61.2834355  81.5241358  10.0037686  61.4721825  80.0392427
  12.2366967  61.4199598  84.5606963  11.8725175  60.8930219  85.2719884
  13.0934083  61.0298067  84.3873448  18.1416268  52.7093931  91.8238229
  17.8099593  53.5789342  91.5999444  17.5461881  52.3930215  92.5032259
  11.8772454  56.4489498  79.5568311  12.0446857  57.3169735  79.9238782
  11.6869623  56.6116780  78.6329601  14.6347788  64.9106477  91.2234142
  14.3348511  65.8131516  91.1149949  14.2898847  64.6438660  92.0755295
   8.0860269  61.3620274  87.2570846   7.1610766  61.2296488  87.4648538
   8.3344682  62.1414493  87.7540789  18.0344931  57.4289017  88.9031579
  17.1261809  57.3604426  88.6090340  17.9832527  57.9060962  89.7313405
  11.8561675  58.9047156  80.5414978  11.7361300  59.3504206  81.3800459
  11.1614264  59.2532473  79.9828516   5.4469080  61.0053547  88.0914635
   5.5761461  61.2588026  89.0054047   4.7666531  61.5981255  87.7719290
   9.6168567  71.6750797  84.1905110   9.5392597  72.6258622  84.2693590
   9.0130211  71.3296670  84.8480036  12.1085797  58.8478663  96.8466476
  11.3319131  59.4072583  96.8369341  12.7476360  59.3335446  97.3681347
  19.9006578  55.6305456  90.6809453  19.2580958  55.9237989  90.0349248
  19.3961506  55.5158376  91.4862650  17.5546741  59.3768629  81.3695312
  18.4664598  59.6096016  81.1943010  17.0456388  59.9605673  80.8070391
  10.3632169  61.6564116  96.4084443  11.1046854  62.1949160  96.1319267
   9.6569155  62.2830405  96.5655995  15.8387509  63.7993257  95.0056605
  16.2470865  63.3575667  94.2611237  15.1164771  63.2245884  95.2590798
  12.1918579  58.7365863  92.3790162  13.0379774  59.1605277  92.5224811
  12.1317217  58.0799488  93.0728725  16.1616324  64.3594447  88.7608894
  15.5325186  64.5240161  88.0584962  15.7741986  64.7736057  89.5319858
  15.3418024  56.3970232  94.0371335  15.0978956  57.1512292  93.5005611
  15.6177955  56.7755579  94.8718583  17.2956487  62.9408844  92.7148601
  17.5073382  63.5840604  92.0382982  17.2486235  62.1071161  92.2470531
  14.8982716  55.5526665  89.6185173  14.0367195  55.8507918  89.9101911
  14.9245151  55.7697064  88.6866206  11.7144286  64.0968855  86.0258979
  12.1782631  64.3756558  85.2363601  11.4501084  63.1952300  85.8432070
   8.6068367  63.6440337  88.9638742   9.1769724  64.0727605  88.3256227
   9.1976479  63.3622922  89.6622928  10.6513172  60.2192008  82.8348544
  11.3537215  60.6713051  83.3022470  10.3193800  59.5775827  83.4628437
   9.0993533  58.8103764  97.2099753   8.4692194  59.4920045  97.4435150
   8.9929621  58.6986846  96.2652892   4.3938506  58.4775560  88.1365678
   3.6037560  58.7333089  87.6605788   4.8849753  59.2923898  88.2417718
  18.4102315  65.8180800  90.8870958  19.2319759  65.4160987  90.6053640
  18.4064718  65.7149034  91.8387074   6.3453251  58.8420140  85.0949154
   5.5484414  58.9538834  85.6132650   6.1178843  59.1806792  84.2290045
  12.1758919  65.3664843  93.0431669  12.2403351  65.8285250  93.8789841
  11.4669842  64.7362208  93.1713979   2.6776209  58.7306051  90.5680668
   2.9284247  59.6153061  90.8338244   3.2135757  58.5510652  89.7955760
  11.8906936  67.0332950  82.9110649  11.7552611  67.8784486  83.3395497
  12.4316749  67.2352228  82.1476583   8.3774276  53.1124530  99.5725004
   7.9841221  52.5590729 100.2472649   9.1940416  53.4235109  99.9631522
   5.3436334  64.5508388  83.4838574   5.8560854  65.3451639  83.6344139
   5.9959046  63.8534679  83.4172176   7.1531218  67.6674145  85.5661327
   7.3297847  68.5892109  85.3782311   7.9488052  67.3532564  85.9955707
  11.2942237  54.5282409  97.1645261  12.0351950  55.1289562  97.0849723
  11.5260160  53.7860047  96.6063304   6.4383575  59.7138777  95.4423491
   6.3237090  58.8124034  95.7430590   5.5828093  59.9602473  95.0908307
  13.5175413  67.6556517  97.0410991  13.0739267  66.8692895  96.7231896
  14.1792626  67.8435667  96.3754882   8.2762534  69.1852318  91.5671670
   8.8269959  69.0569382  90.7948664   7.4374010  69.4847207  91.2166563
  15.6156651  67.9359317  95.0692393  15.5975126  68.7568198  94.5772662
  16.5376571  67.8113392  95.2942534  12.0729705  65.4503446  95.9115901
  12.6058042  64.6891734  95.6815209  11.5443786  65.1577098  96.6540055
  15.2399400  50.5563512  91.4409543  14.8963669  51.4465154  91.3648653
  15.6078362  50.3665170  90.5779128   3.3085250  62.8797043  84.2598145
   4.1460472  63.2894051  84.0431853   3.4863518  61.9396485  84.2298339
  15.2049683  60.5472123  79.9481978  14.6896306  61.3176728  80.1870365
  14.9326991  59.8737259  80.5715039  12.7896794  55.3921824  85.0067216
  11.9338390  55.0028674  84.8272855  13.2023745  55.4713785  84.1467002
  14.3195940  52.9268167  89.4058776  13.8160736  52.8898303  88.5926581
  14.6126547  53.8360910  89.4655433  10.5638826  53.0106897  88.4124958
  11.4291823  52.8149706  88.0530847  10.6316335  52.7817249  89.3394314
  20.1783957  63.3004478  81.8835151  19.4013399  62.9615637  81.4390313
  20.8575438  63.3057101  81.2090116  14.9935986  58.4199215  81.7741759
  14.6886121  58.7345365  82.6251902  15.9466428  58.4980635  81.8169092
  13.4382418  64.5789439  83.4234713  12.9103779  63.8442198  83.1107950
  12.9369920  65.3564115  83.1774681  18.4175264  62.7738459  88.5401759
  17.7598938  63.4637721  88.6281888  19.2215663  63.1634891  88.8835746
   8.1701145  55.2409105  85.7841324   8.7444897  55.0184286  85.0514517
   8.7572128  55.3097800  86.5369926  17.2280722  61.1282832  86.5905701
  17.7412604  61.7612824  87.0927411  17.8781946  60.5284027  86.2249061
   8.4970732  57.2713566  79.8037210   7.6608045  57.6088253  80.1246484
   8.3575502  57.1362546  78.8664347  10.4723813  52.1150354  84.5116394
   9.8188225  51.7999371  83.8873009  10.4304287  51.4926094  85.2376217
  11.5835018  62.3969649  76.4269686  10.6762079  62.1658902  76.6260835
  12.0806050  61.6007268  76.6143668  14.4903097  71.1067156  79.3466372
  13.8164795  71.4098853  79.9551330  14.8768919  71.9096237  78.9971829
  13.7061553  58.6032287  88.8364042  12.7884115  58.8247234  88.6785730
  14.1221697  58.6778598  87.9775749  14.4896601  60.0023703  83.9666722
  15.2368420  60.5145100  83.6573844  14.7588191  59.6807756  84.8271115
  12.7623251  62.4982244  80.9493676  11.8534470  62.2141277  81.0466146
  12.7918335  62.9181322  80.0896983  17.9942519  66.1088833  84.7184844
  17.5404846  65.2679743  84.7750034  17.3636485  66.7450232  85.0559624
  16.9375438  57.0380819  85.9485511  16.1998195  56.5258206  86.2795754
  17.1902212  56.5981201  85.1368788  16.4375458  67.9465330  85.6534662
  16.7298432  68.5070387  84.9347027  16.9474078  68.2393891  86.4087821
  17.0387065  49.8157071  86.5427280  17.3445942  48.9554435  86.2553195
  17.7639670  50.4074692  86.3426274   3.3311422  60.2187758  84.9308878
   3.1335821  59.6257119  84.2059945   2.7758086  59.9139968  85.6484817
  11.3108145  60.1110864  87.0503471  11.3656755  59.1584701  86.9745948
  10.4999347  60.2670304  87.5344770  12.4599339  64.0390988  78.2881755
  12.0218769  63.3226846  77.8287392  13.2009780  64.2667102  77.7266846
   9.2500505  58.7287924  84.8093850   8.4368371  59.0282095  85.2159042
   9.7459499  58.3343613  85.5268333  11.4009083  68.7245681  86.7428115
  11.3585262  68.9506527  85.8136647  12.3171782  68.4909056  86.8913916
  14.8474717  59.1929749  93.6408744  15.2024105  59.4201222  94.5003210
  15.4946848  59.5248125  93.0186000  20.5772454  62.3148185  84.3458073
  20.4390352  62.5049781  83.4179262  20.2208673  63.0767567  84.8026124
   8.7414580  56.3006280  90.4255085   9.3813959  56.1595039  89.7278049
   7.9092110  56.0140793  90.0493687  20.6041833  64.3824712  89.3569345
  21.0378340  64.2900001  90.2052399  21.3173414  64.3582212  88.7189361
   9.5174884  65.6008710  86.5390078  10.3115482  65.1059030  86.3372653
   8.8066576  65.0726573  86.1757783  14.3369728  67.9826806  90.8902445
  14.3906751  68.5517742  91.6580161  13.4684510  68.1528691  90.5256482
   5.8257647  59.7451792  82.6149830   4.8955235  59.6836247  82.8319793
   5.9215119  59.2227745  81.8186472   5.7443196  56.2706605  85.2028072
   6.0050014  57.1851938  85.0937233   6.5660369  55.8031047  85.3524685
   7.2168122  57.6844362  92.3726897   7.8891175  57.4761724  91.7239546
   6.3897908  57.4866448  91.9332129  21.4657383  64.4248412  91.8902230
  21.6593273  65.3294223  92.1361505  21.3658001  63.9655831  92.7240815
  13.1193694  54.3106303  94.3892557  12.4721609  55.0096252  94.2957034
  13.8894709  54.7442447  94.7568806  16.5272492  64.5755155  97.4643111
  16.3757998  64.3465707  96.5473194  16.5177171  65.5325756  97.4774456
  13.2957828  62.1487068  92.4489377  14.2249888  62.2998227  92.2758345
  12.8748858  62.2371089  91.5938024  12.0946160  66.1737732  90.2187915
  11.9557246  65.8056517  91.0913853  11.3060756  66.6885372  90.0471873
  12.6894312  71.2746829  81.5613451  12.8646067  70.8034872  82.3759074
  12.0027100  71.9012595  81.7894712  13.6451375  65.5519335  87.6076753
  13.3101208  65.5120105  88.5034402  13.1455321  64.8864051  87.1347163
   7.6195619  60.9586965  93.1329334   7.4815417  60.2267204  93.7340873
   8.5300542  60.8695865  92.8513522  16.5810567  62.8975369  77.8813812
  15.9639737  62.1722197  77.7846865  16.1127055  63.6584729  77.5380887
  10.2477920  60.6706924  92.6213013  10.9577538  60.0300116  92.5799632
  10.2047228  60.9219819  93.5439194  18.2364698  67.6074278  95.5419593
  18.1777244  66.9233498  94.8750176  18.6384217  68.3493268  95.0900219
   8.9606854  57.6572142  94.4408653   8.4244211  57.2062881  95.0930249
   8.3723562  57.7918051  93.6979117   7.2555397  74.4236191  88.3353312
   7.4951995  75.0554716  89.0132330   6.4124594  74.0724231  88.6218671
   8.3709113  57.1160793  77.0035117   7.4938579  56.9949594  76.6397363
   8.8466866  56.3246872  76.7514005  18.2382106  65.5713861  93.7733572
  17.3508884  65.2339783  93.8959971  18.8080657  64.8396893  94.0102338
   4.6945975  56.7928150  91.5261647   4.6104164  56.1853819  90.7912057
   3.8728681  57.2837168  91.5271144  11.7683259  70.2315314  90.7394816
  11.6953430  71.0370285  91.2514120  11.3260652  70.4307280  89.9142837
  11.5573039  69.4687084  84.2497637  10.7740560  70.0108764  84.3435862
  12.2565784  69.9861063  84.6491878  14.8669689  55.2781713  86.8931842
  15.3638388  54.5251676  86.5732913  14.0956670  55.3146030  86.3275052
  22.7199446  60.9822079  88.5350134  22.7089322  61.8646794  88.1644067
  21.8516826  60.6293630  88.3404671  14.2281942  70.1302148  92.8952974
  14.9409915  70.7649613  92.8228876  13.7371971  70.2266014  92.0792976
  15.9499469  64.0353401  84.4670266  15.0155748  64.1554863  84.2974970
  16.1276138  63.1325867  84.2030276  11.4504657  57.4199096  86.6203527
  11.0802445  56.8670137  87.3084433  11.9463750  56.8157230  86.0678527
  19.3372021  59.8770720  85.0020300  19.8032473  60.7098711  84.9280603
  19.7879521  59.4115701  85.7065558   9.2793856  67.8796591  93.7158545
   9.9803315  68.5133074  93.8687939   8.8088971  68.2211323  92.9554184
  17.4048252  66.2214541  82.0006452  17.6808096  66.1071136  82.9100326
  16.5352751  65.8232026  81.9618625  17.3088683  52.2451307  89.0411201
  16.3951763  52.4755534  89.2093408  17.7381785  52.3289751  89.8925234
  17.0795142  60.4341199  91.5411095  16.4266592  60.6817106  90.8863548
  17.4575522  59.6205337  91.2073573  14.0402316  70.4700892  85.6439266
  14.2224710  69.6522548  86.1067018  14.8635302  70.6868584  85.2064156
  14.3744481  69.3969077  82.9054314  14.9032248  68.8861532  82.2924476
  14.6372701  69.0811607  83.7699847  13.1282715  61.1761010  98.0277132
  12.4523352  61.0755139  98.6979508  13.9510349  61.0200224  98.4913130
   4.8761574  67.4132946  90.6489648   5.4615011  66.6676634  90.7817552
   4.6786413  67.7236903  91.5326312   7.7300229  70.4484194  85.6652090
   7.0610605  70.9330321  85.1816130   7.5913099  70.6953414  86.5795469
  11.8705498  72.4827937  92.2634748  12.4223806  72.6459559  93.0283834
  12.2111691  73.0732375  91.5914773   6.8469991  54.8303087  92.8656633
   6.9111318  55.6917918  92.4534031   6.7837111  54.2177089  92.1328992
   6.3222264  56.9026220  96.5129667   6.9494302  56.5203297  97.1267192
   5.4650182  56.6840422  96.8785360  16.7216372  67.3089195  98.1183403
  17.2656276  67.9219153  97.6238358  16.1403217  67.8668773  98.6350416
   3.0987806  58.7102649  82.4448022   3.3941247  57.8013327  82.3915076
   2.1975842  58.6890388  82.1229025  15.0073885  70.4309913  89.2498431
  14.8825025  69.6299653  88.7409376  15.6652976  70.9256106  88.7612401
   6.6282053  56.7858645  88.4275571   5.9068639  57.3994613  88.2883044
   7.4175309  57.3216410  88.3492217  17.0708794  68.2318933  90.8777981
  16.1239129  68.1124284  90.8056307  17.4191567  67.3441431  90.9604242
   9.4308367  54.1213072  94.7016223   9.9542769  54.3675368  95.4642532
   9.2120700  54.9533107  94.2819360   4.8275648  56.3916746  82.5687347
   4.4988354  55.5114125  82.3862453   5.1815019  56.3364415  83.4563737
  14.0755227  68.0271649  87.0782333  13.9280189  67.0988357  87.2589903
  14.9008720  68.0491740  86.5939408   7.9417471  56.6789716  82.9362825
   8.2813544  57.2075637  82.2141433   8.3889592  57.0170122  83.7121392
  17.6789349  68.8500208  88.1647206  18.6035896  68.6443069  88.0271657
  17.5104652  68.6016609  89.0736547  10.6360912  55.0626767  92.3865893
  10.2957732  54.2634580  92.7886573   9.9299918  55.3628478  91.8142726
  11.2877384  52.1476079  90.8393216  12.1103453  51.6736558  90.7172106
  11.5315447  52.9266563  91.3391902   9.9285618  55.1764338  81.1356118
  10.6493981  55.5545591  80.6319835   9.3050922  55.8953215  81.2391096
  14.0716741  55.8809487  82.0714450  14.2880356  56.7634125  81.7703278
  13.5910808  55.4895700  81.3420092   8.8115963  58.8395200  88.6485195
   8.6660543  59.1535503  89.5409476   8.3341166  59.4580100  88.0956093
  10.6712345  55.8297748  88.6966084  10.6573914  54.9338841  88.3598382
  11.3884774  55.8368412  89.3304370  12.5238476  56.2635088  90.7419212
  12.2656254  57.1852159  90.7403542  11.9923516  55.8665523  91.4319676
  17.4684665  69.3685875  83.5209297  17.6421542  68.8032298  82.7683150
  17.9613556  70.1686770  83.3388787   3.2861625  61.3800544  91.5872856
   2.7415093  62.1560352  91.7193130   4.1640975  61.7271349  91.4291977
  10.0749241  54.7112128  83.9653654  10.1965153  53.7828774  84.1644542
   9.7851284  54.7250814  83.0531970  12.9440432  52.3967039  87.1020374
  12.9662129  52.4606372  86.1472354  13.3608491  51.5571547  87.2960880
  18.4559837  68.6852640  80.6206195  19.1510742  69.3059332  80.8393510
  18.7982988  67.8347991  80.8958573   4.0727647  60.5070441  94.4803013
   3.3309383  60.6553076  95.0667643   3.7520391  60.7678706  93.6169762
  20.3551260  66.1352345  82.1493526  20.8802585  66.4739618  81.4242846
  20.2673613  65.1999361  81.9656661  12.0171309  70.0486419  94.2783403
  12.3258436  69.8035566  95.1506102  12.8146791  70.2533057  93.7902273
  12.0391921  72.2024328  86.5088779  11.5996912  71.7100707  87.2021636
  12.7900038  71.6597296  86.2680855   4.5184260  68.3935869  86.5113407
   5.3442280  68.0939641  86.1312051   4.1678312  67.6243492  86.9603196
   9.4865793  67.7462338  88.5811081   8.8645803  67.0833043  88.2813309
  10.1570660  67.7723469  87.8984729   2.7192865  66.3122196  87.4702341
   1.8824774  65.8844370  87.2886342   2.6916511  66.5054639  88.4073132
   9.5590321  56.2244126  98.1743587   9.6078476  57.1006248  97.7921357
  10.1012835  55.6821519  97.6015230  20.0445167  66.7685249  97.4544724
  19.2540710  66.7509388  96.9149224  19.8078521  67.3073543  98.2093761
  20.1643042  63.6177715  94.7677453  20.2141047  63.4527723  95.7092975
  20.0556965  62.7504974  94.3775333   9.0479300  66.2966261  82.0569542
   9.1967421  66.9801725  81.4036214   9.8545744  66.2771351  82.5718997
  17.4546804  59.6008643  96.0836759  18.3556667  59.4615108  95.7920757
  17.5294779  59.7663098  97.0234937  11.7889609  56.9775498  94.9289946
  10.9192919  57.2709064  94.6572534  12.0249090  57.5615943  95.6497209
  21.6661238  66.0374657  95.0119474  21.3746047  66.4004637  95.8482935
  21.0533370  65.3241665  94.8332806  19.9148427  61.1607271  93.4799532
  20.3902548  61.3534918  92.6718384  18.9913992  61.2166457  93.2342916
   6.8031933  62.3231439  83.0630610   6.5577975  61.4193769  83.2610821
   6.9727848  62.3248589  82.1210088  14.4928643  53.1955115  92.4455366
  15.0110587  53.9316142  92.1201855  14.1383776  53.5019108  93.2802125
   6.0727581  58.0559796  80.5616772   5.3796826  58.1304151  79.9056808
   5.8279333  57.2920140  81.0838289  14.7441237  49.6155397  87.9656263
  15.0242991  48.9478587  88.5916689  15.5291844  49.8084493  87.4530926
  12.5474706  68.7914391  79.5281289  11.9748673  69.4104578  79.0751761
  13.1207499  69.3413753  80.0621211  18.6150096  58.0373031  91.7127838
  19.5667519  58.1371129  91.7340062  18.4453546  57.2451300  92.2225922
  16.6364475  55.1228615  91.8987239  16.0414407  55.4033627  91.2033727
  16.3514172  55.6122516  92.6703980  15.7671966  69.0751541  80.6589871
  16.7002639  69.0097103  80.8622747  15.6795178  69.9107808  80.2004404
  18.3959982  68.3917412  77.6193819  18.3173614  68.0577275  78.5129577
  19.2169649  68.8839180  77.6185291  21.0938173  61.2579151  90.8270137
  21.0614494  60.3195152  91.0129821  21.7038797  61.3363188  90.0935962
  12.9321504  60.1275204  76.8697341  13.8780609  59.9981412  76.9385759
  12.5535749  59.3889866  77.3466770  21.2432662  58.0490195  90.8728421
  20.7271711  57.2648651  90.6858349  22.1272610  57.7208911  91.0374940
  18.9043389  51.7931210  86.8324233  18.7068210  51.4846298  87.7167565
  19.5143094  52.5192849  86.9622163  26.9114723  62.3195158  89.9676174
  27.6418112  62.0580446  90.5283878  26.3021669  61.5823880  90.0078242
  24.9930020  60.4603021  90.5650625  24.2663184  60.3258985  89.9567117
  24.5777307  60.7679849  91.3707343  12.8160197  64.1792950  98.3297998
  13.7363206  64.3571549  98.5238045  12.7809780  63.2348996  98.1777698
  11.1164421  58.0525180  76.8052227  10.2095877  57.7558293  76.8814940
  11.3940402  57.7554999  75.9386513   2.0342362  59.3731544  87.2551273
   1.7145146  58.5196852  86.9625647   1.4875790  59.5880122  88.0109240
   5.8122269  62.0893985  90.9720780   6.0308279  63.0211093  90.9908813
   6.2248043  61.7301959  91.7575583  12.7326487  52.5962070  82.9596468
  11.9227216  52.2509155  83.3351714  13.4210904  52.2869614  83.5484080
  14.6617035  51.6740117  84.5820765  15.2148074  52.0935570  85.2410788
  14.8987122  50.7475865  84.6243721  10.6850135  57.6627191 100.3623529
  10.5846862  58.6121548 100.2935620  10.4671677  57.3345430  99.4899599
   9.8863206  54.9112116  76.9464206  10.7482370  55.2367014  77.2060023
  10.0713550  54.1243612  76.4337272   1.9030622  62.9934455  89.2244395
   1.2094093  62.5788408  88.7114349   2.6503613  63.0354992  88.6277814
  18.0395843  53.7840642  84.0899429  17.4594512  54.4425446  83.7077481
  17.7731775  52.9617987  83.6786846  16.4899409  53.1845700  86.2920749
  16.9899187  53.2962234  85.4835068  17.1335017  52.8806753  86.9321558
  10.5481405  61.0924330  99.1788590  10.0648486  61.8924690  99.3852479
  10.6342344  61.1032274  98.2256034   3.8167364  62.9252709  87.1010410
   3.7938052  63.0240396  86.1492293   4.1268001  63.7717860  87.4227576
   6.4754742  64.9828864  91.2157024   7.4297996  64.9512807  91.1486956
   6.2767266  64.5219488  92.0307250   7.0654124  63.5529980  93.7827822
   7.8847013  64.0474059  93.8062659   7.3390932  62.6361948  93.7545389
  16.8220721  55.9440733  83.1455777  15.9346576  56.2290383  82.9275972
  17.2374710  55.7834496  82.2983054  20.1735257  55.9687254  86.8610116
  20.9495647  56.4583706  87.1334733  19.4483391  56.3945308  87.3181986
  22.6107815  56.6814873  87.9184057  23.2052306  56.4410609  87.2077365
  22.6834399  55.9622003  88.5457593   4.8304971  70.5248484  88.2327222
   4.6959439  69.7648885  87.6665220   4.4137033  71.2489384  87.7656011
  15.9663934  65.7085407  77.2403797  16.6699784  65.9135410  77.8561453
  15.2426583  66.2762169  77.5052881  16.7961744  61.4595268  83.3606067
  16.7396946  61.9163820  82.5213700  17.3490087  60.6985953  83.1828910
  20.6066550  57.2485000  84.1856187  20.3503484  56.8481636  85.0164394
  19.9819418  57.9628794  84.0606326  24.9178888  59.9881074  86.6927478
  24.3578446  60.0574263  87.4659040  24.3122391  59.8122058  85.9726974
   7.9874097  71.4217801  88.4445664   7.8706481  72.3663233  88.3424355
   7.1666543  71.1191362  88.8331464  17.8750631  66.1467936  79.2902257
  18.7096235  65.7149135  79.1079732  17.7134974  65.9749950  80.2179152
  17.5296524  62.6500050  80.6558596  17.4745327  62.4844321  79.7147041
  16.9042579  63.3576083  80.8120786   2.3189039  57.8868114  94.4820019
   2.9647902  57.3767068  94.9707244   2.1106190  58.6236796  95.0563444
  14.8442431  64.9548962  99.9812159  15.7133590  65.1289614  99.6198794
  14.3649182  65.7743378  99.8587889  10.8392649  52.1508159  80.2343915
  10.8271319  53.0949999  80.3912186  11.7316071  51.9678304  79.9403376
   9.0128611  72.0746063  91.6601593   9.9155858  72.1069673  91.9768088
   8.7865981  71.1446514  91.6747929  10.7682213  70.8277049  88.3211672
   9.8177844  70.8278911  88.2076044  11.0714699  70.0809784  87.8047706
  14.6544769  48.7450935  84.4889852  13.8877164  48.1909422  84.6346534
  15.0655474  48.8172804  85.3504003   6.6586530  55.0335731  98.5795033
   7.5217991  54.6772536  98.7898357   6.0851940  54.6949626  99.2670437
  23.3124613  76.6165016  89.3218959  22.9743124  76.5006080  88.4339493
  24.1814381  76.2156181  89.3019965  19.1711429  78.4700492  85.3115850
  18.6076294  78.3790429  84.5432137  19.0563824  77.6500397  85.7918342
  23.7944396  77.7699867  95.2805164  23.7833037  77.3752666  94.4085668
  23.9565035  77.0365940  95.8738936  16.7175860  79.9651684  88.1500070
  17.5097152  79.6242508  87.7346369  16.9572511  80.0746659  89.0702223
  24.7510987  82.1371460  80.6230314  24.0998967  82.7225540  80.2364328
  25.5455350  82.6677655  80.6825352  18.6766614  79.2260597  81.0217449
  19.4497490  78.6789584  80.8830325  19.0292013  80.0904846  81.2331910
  20.5151657  80.5536979  94.2284348  20.2241523  81.4582610  94.1131014
  21.1508641  80.5953507  94.9428418  21.4407864  77.9313828  90.8185708
  22.0371436  77.7069850  90.1042671  21.4982835  77.1898573  91.4211156
  21.0132892  75.3853263  78.6535899  21.2658413  74.8634784  77.8919362
  20.0757451  75.2219408  78.7562582  26.2286252  79.8261892  81.1599299
  25.5932085  79.8996518  81.8720203  25.8983659  80.4155491  80.4818378
  20.7329181  77.2881369  80.8560274  20.6165439  76.6126272  81.5241358
  20.8431441  76.8013743  80.0392427  25.4741542  80.2398395  91.2234142
  25.1742265  81.1423433  91.1149949  25.1292602  79.9730578  92.0755295
  18.9254024  76.6912192  87.2570846  18.0004520  76.5588406  87.4648538
  19.1738437  77.4706411  87.7540789  16.2862835  76.3345465  88.0914635
  16.4155216  76.5879944  89.0054047  15.6060286  76.9273173  87.7719290
  20.4562322  87.0042715  84.1905110  20.3786352  87.9550540  84.2693590
  19.8523965  86.6588588  84.8480036  22.9479552  74.1770580  96.8466476
  22.1712886  74.7364501  96.8369341  23.5870115  74.6627363  97.3681347
  21.2025924  76.9856034  96.4084443  21.9440608  77.5241078  96.1319267
  20.4962909  77.6122323  96.5655995  26.6781264  79.1285174  95.0056605
  27.0864620  78.6867585  94.2611237  25.9558525  78.5537802  95.2590798
  23.0312334  74.0657781  92.3790162  23.8773529  74.4897195  92.5224811
  22.9710971  73.4091405  93.0728725  27.0010078  79.6886365  88.7608894
  26.3718941  79.8532079  88.0584962  26.6135740  80.1027974  89.5319858
  26.1811779  71.7262149  94.0371335  25.9372711  72.4804210  93.5005611
  26.4571709  72.1047497  94.8718583  28.1350242  78.2700762  92.7148601
  28.3467137  78.9132522  92.0382982  28.0879990  77.4363078  92.2470531
  22.5538040  79.4260773  86.0258979  23.0176386  79.7048476  85.2363601
  22.2894838  78.5244218  85.8432070  19.4462121  78.9732255  88.9638742
  20.0163478  79.4019523  88.3256227  20.0370233  78.6914839  89.6622928
  21.4906926  75.5483925  82.8348544  22.1930969  76.0004969  83.3022470
  21.1587555  74.9067744  83.4628437  19.9387288  74.1395682  97.2099753
  19.3085948  74.8211963  97.4435150  19.8323376  74.0278764  96.2652892
  15.2332260  73.8067478  88.1365678  14.4431314  74.0625007  87.6605788
  15.7243507  74.6215816  88.2417718  29.2496070  81.1472717  90.8870958
  30.0713513  80.7452904  90.6053640  29.2458473  81.0440951  91.8387074
  17.1847005  74.1712057  85.0949154  16.3878169  74.2830752  85.6132650
  16.9572598  74.5098709  84.2290045  23.0152673  80.6956761  93.0431669
  23.0797106  81.1577168  93.8789841  22.3063597  80.0654125  93.1713979
  13.5169963  74.0597968  90.5680668  13.7678002  74.9444978  90.8338244
  14.0529511  73.8802570  89.7955760  22.7300691  82.3624868  82.9110649
  22.5946366  83.2076404  83.3395497  23.2710503  82.5644146  82.1476583
  19.2168030  68.4416448  99.5725004  18.8234976  67.8882646 100.2472649
  20.0334171  68.7527026  99.9631522  16.1830088  79.8800306  83.4838574
  16.6954609  80.6743556  83.6344139  16.8352801  79.1826596  83.4172176
  17.9924973  82.9966062  85.5661327  18.1691601  83.9184027  85.3782311
  18.7881806  82.6824482  85.9955707  22.1335991  69.8574327  97.1645261
  22.8745705  70.4581480  97.0849723  22.3653914  69.1151965  96.6063304
  17.2777329  75.0430694  95.4423491  17.1630845  74.1415951  95.7430590
  16.4221847  75.2894391  95.0908307  24.3569167  82.9848435  97.0410991
  23.9133021  82.1984813  96.7231896  25.0186381  83.1727585  96.3754882
  19.1156288  84.5144236  91.5671670  19.6663713  84.3861299  90.7948664
  18.2767764  84.8139125  91.2166563  26.4550405  83.2651234  95.0692393
  26.4368881  84.0860115  94.5772662  27.3770325  83.1405310  95.2942534
  22.9123459  80.7795364  95.9115901  23.4451796  80.0183652  95.6815209
  22.3837540  80.4869016  96.6540055  26.0793154  65.8855430  91.4409543
  25.7357424  66.7757072  91.3648653  26.4472117  65.6957088  90.5779128
  14.1479005  78.2088960  84.2598145  14.9854227  78.6185969  84.0431853
  14.3257273  77.2688402  84.2298339  24.2776172  79.9081356  83.4234713
  23.7497534  79.1734116  83.1107950  23.7763675  80.6856033  83.1774681
  19.0094900  70.5701023  85.7841324  19.5838652  70.3476204  85.0514517
  19.5965882  70.6389717  86.5369926  19.3364487  72.6005484  79.8037210
  18.5001799  72.9380170  80.1246484  19.1969256  72.4654463  78.8664347
  22.4228772  77.7261567  76.4269686  21.5155834  77.4950820  76.6260835
  22.9199804  76.9299186  76.6143668  25.3296851  86.4359074  79.3466372
  24.6558550  86.7390771  79.9551330  25.7162673  87.2388154  78.9971829
  28.8336273  81.4380751  84.7184844  28.3798600  80.5971661  84.7750034
  28.2030240  82.0742149  85.0559624  27.2769212  83.2757248  85.6534662
  27.5692187  83.8362305  84.9347027  27.7867833  83.5685809  86.4087821
  14.1705176  75.5479676  84.9308878  13.9729576  74.9549036  84.2059945
  13.6151840  75.2431886  85.6484817  23.2993093  79.3682905  78.2881755
  22.8612523  78.6518764  77.8287392  24.0403534  79.5959020  77.7266846
  20.0894260  74.0579842  84.8093850  19.2762125  74.3574012  85.2159042
  20.5853254  73.6635531  85.5268333  22.2402838  84.0537599  86.7428115
  22.1979016  84.2798445  85.8136647  23.1565536  83.8200973  86.8913916
  25.6868471  74.5221666  93.6408744  26.0417859  74.7493139  94.5003210
  26.3340603  74.8540043  93.0186000  19.5808334  71.6298197  90.4255085
  20.2207714  71.4886956  89.7278049  18.7485865  71.3432711  90.0493687
  31.4435588  79.7116629  89.3569345  31.8772095  79.6191918  90.2052399
  32.1567169  79.6874130  88.7189361  20.3568638  80.9300628  86.5390078
  21.1509237  80.4350948  86.3372653  19.6460331  80.4018491  86.1757783
  25.1763483  83.3118723  90.8902445  25.2300505  83.8809660  91.6580161
  24.3078264  83.4820608  90.5256482  16.6651402  75.0743710  82.6149830
  15.7348990  75.0128165  82.8319793  16.7608874  74.5519662  81.8186472
  16.5836951  71.5998522  85.2028072  16.8443768  72.5143856  85.0937233
  17.4054123  71.1322965  85.3524685  18.0561876  73.0136280  92.3726897
  18.7284930  72.8053642  91.7239546  17.2291663  72.8158366  91.9332129
  32.3051137  79.7540330  91.8902230  32.4987028  80.6586140  92.1361505
  32.2051756  79.2947749  92.7240815  23.9587448  69.6398220  94.3892557
  23.3115363  70.3388170  94.2957034  24.7288464  70.0734364  94.7568806
  27.3666246  79.9047073  97.4643111  27.2151753  79.6757624  96.5473194
  27.3570926  80.8617674  97.4774456  24.1351583  77.4778985  92.4489377
  25.0643643  77.6290145  92.2758345  23.7142613  77.5663006  91.5938024
  22.9339914  81.5029650  90.2187915  22.7951000  81.1348434  91.0913853
  22.1454511  82.0177289  90.0471873  23.5288066  86.6038746  81.5613451
  23.7039822  86.1326789  82.3759074  22.8420854  87.2304512  81.7894712
  24.4845129  80.8811252  87.6076753  24.1494962  80.8412022  88.5034402
  23.9849075  80.2155968  87.1347163  18.4589373  76.2878883  93.1329334
  18.3209171  75.5559121  93.7340873  19.3694297  76.1987783  92.8513522
  21.0871674  75.9998842  92.6213013  21.7971293  75.3592034  92.5799632
  21.0440982  76.2511737  93.5439194  29.0758453  82.9366195  95.5419593
  29.0170999  82.2525415  94.8750176  29.4777971  83.6785185  95.0900219
  19.8000608  72.9864060  94.4408653  19.2637965  72.5354798  95.0930249
  19.2117317  73.1209969  93.6979117  18.0949152  89.7528109  88.3353312
  18.3345750  90.3846633  89.0132330  17.2518348  89.4016149  88.6218671
  19.2102867  72.4452711  77.0035117  18.3332333  72.3241512  76.6397363
  19.6860620  71.6538789  76.7514005  29.0775860  80.9005779  93.7733572
  28.1902639  80.5631701  93.8959971  29.6474411  80.1688810  94.0102338
  10.7305007  77.2329871  87.0976624  11.4176047  76.9191601  86.5097639
  10.5753136  78.1371236  86.8243875  15.5339729  72.1220067  91.5261647
  15.4497918  71.5145737  90.7912057  14.7122436  72.6129086  91.5271144
  22.6077013  85.5607231  90.7394816  22.5347185  86.3662203  91.2514120
  22.1654407  85.7599197  89.9142837  22.3966793  84.7979002  84.2497637
  21.6134315  85.3400682  84.3435862  23.0959538  85.3152981  84.6491878
  25.0675697  85.4594066  92.8952974  25.7803669  86.0941530  92.8228876
  24.5765726  85.5557932  92.0792976  20.1187610  83.2088509  93.7158545
  20.8197070  83.8424992  93.8687939  19.6482725  83.5503241  92.9554184
  28.2442006  81.5506459  82.0006452  28.5201850  81.4363053  82.9100326
  27.3746505  81.1523944  81.9618625  24.8796070  85.7992810  85.6439266
  25.0618465  84.9814466  86.1067018  25.7029056  86.0160502  85.2064156
  25.2138236  84.7260995  82.9054314  25.7426002  84.2153449  82.2924476
  25.4766455  84.4103525  83.7699847  23.9676469  76.5052927  98.0277132
  23.2917106  76.4047057  98.6979508  24.7904103  76.3492141  98.4913130
  15.7155329  82.7424864  90.6489648  16.3008765  81.9968552  90.7817552
  15.5180167  83.0528821  91.5326312  18.5693984  85.7776111  85.6652090
  17.9004359  86.2622239  85.1816130  18.4306853  86.0245332  86.5795469
  10.3072983  75.3130464  89.3694091  10.3457083  74.7794055  90.1631209
   9.8013276  74.7865670  88.7505068  22.7099252  87.8119855  92.2634748
  23.2617560  87.9751476  93.0283834  23.0505446  88.4024293  91.5914773
  17.6863746  70.1595005  92.8656633  17.7505072  71.0209836  92.4534031
  17.6230866  69.5469006  92.1328992  17.1616018  72.2318137  96.5129667
  17.7888057  71.8495215  97.1267192  16.3043937  72.0132339  96.8785360
  27.5610127  82.6381112  98.1183403  28.1050031  83.2511071  97.6238358
  26.9796972  83.1960691  98.6350416  13.9381561  74.0394566  82.4448022
  14.2335002  73.1305245  82.3915076  13.0369597  74.0182306  82.1229025
  25.8467640  85.7601830  89.2498431  25.7218779  84.9591570  88.7409376
  26.5046731  86.2548024  88.7612401  17.4675808  72.1150563  88.4275571
  16.7462394  72.7286531  88.2883044  18.2569064  72.6508328  88.3492217
  27.9102548  83.5610851  90.8777981  26.9632884  83.4416202  90.8056307
  28.2585321  82.6733349  90.9604242  20.2702121  69.4504989  94.7016223
  20.7936523  69.6967286  95.4642532  20.0514455  70.2825024  94.2819360
  15.6669402  71.7208664  82.5687347  15.3382109  70.8406043  82.3862453
  16.0208773  71.6656333  83.4563737  24.9148981  83.3563567  87.0782333
  24.7673944  82.4280274  87.2589903  25.7402475  83.3783657  86.5939408
  18.7811226  72.0081634  82.9362825  19.1207298  72.5367555  82.2141433
  19.2283346  72.3462040  83.7121392  28.5183103  84.1792125  88.1647206
  29.4429651  83.9734987  88.0271657  28.3498407  83.9308527  89.0736547
  21.4754666  70.3918685  92.3865893  21.1351487  69.5926498  92.7886573
  20.7693673  70.6920395  91.8142726  22.1271138  67.4767997  90.8393216
  22.9497208  67.0028475  90.7172106  22.3709202  68.2558481  91.3391902
  19.6509717  74.1687118  88.6485195  19.5054298  74.4827421  89.5409476
  19.1734921  74.7872018  88.0956093  21.5106100  71.1589666  88.6966084
  21.4967669  70.2630759  88.3598382  22.2278528  71.1660329  89.3304370
  23.3632231  71.5927006  90.7419212  23.1050008  72.5144076  90.7403542
  22.8317271  71.1957440  91.4319676  14.1255379  76.7092462  91.5872856
  13.5808847  77.4852270  91.7193130  15.0034729  77.0563267  91.4291977
  14.9121401  75.8362358  94.4803013  14.1703137  75.9844994  95.0667643
  14.5914145  76.0970624  93.6169762  22.8565064  85.3778337  94.2783403
  23.1652190  85.1327483  95.1506102  23.6540546  85.5824975  93.7902273
  22.8785676  87.5316246  86.5088779  22.4390666  87.0392625  87.2021636
  23.6293793  86.9889214  86.2680855  15.3578015  83.7227787  86.5113407
  16.1836035  83.4231559  86.1312051  15.0072067  82.9535409  86.9603196
  20.3259548  83.0754255  88.5811081  19.7039557  82.4124960  88.2813309
  20.9964415  83.1015387  87.8984729  13.5586620  81.6414113  87.4702341
  12.7218528  81.2136288  87.2886342  13.5310265  81.8346557  88.4073132
  20.3984075  71.5536043  98.1743587  20.4472231  72.4298166  97.7921357
  20.9406590  71.0113436  97.6015230  30.8838921  82.0977167  97.4544724
  30.0934465  82.0801305  96.9149224  30.6472276  82.6365460  98.2093761
  31.0036796  78.9469633  94.7677453  31.0534801  78.7819640  95.7092975
  30.8950719  78.0796892  94.3775333  19.8873055  81.6258179  82.0569542
  20.0361175  82.3093643  81.4036214  20.6939498  81.6063269  82.5718997
  22.6283364  72.3067416  94.9289946  21.7586673  72.6000982  94.6572534
  22.8642844  72.8907861  95.6497209  32.5054993  81.3666574  95.0119474
  32.2139801  81.7296555  95.8482935  31.8927124  80.6533583  94.8332806
  17.6425688  77.6523356  83.0630610  17.3971730  76.7485686  83.2610821
  17.8121602  77.6540507  82.1210088  25.3322398  68.5247033  92.4455366
  25.8504342  69.2608060  92.1201855  24.9777530  68.8311026  93.2802125
  16.9121335  73.3851714  80.5616772  16.2190580  73.4596069  79.9056808
  16.6673087  72.6212057  81.0838289  23.3868460  84.1206309  79.5281289
  22.8142427  84.7396496  79.0751761  23.9601254  84.6705671  80.0621211
  26.6065720  84.4043459  80.6589871  27.5396393  84.3389021  80.8622747
  26.5188933  85.2399726  80.2004404  23.6553951  79.5084868  98.3297998
  24.5756961  79.6863467  98.5238045  23.6203534  78.5640913  98.1777698
  21.9558176  73.3817098  76.8052227  21.0489631  73.0850211  76.8814940
  22.2334157  73.0846916  75.9386513  12.8736116  74.7023462  87.2551273
  12.5538901  73.8488770  86.9625647  12.3269545  74.9172040  88.0109240
  16.6516024  77.4185903  90.9720780  16.8702034  78.3503010  90.9908813
  17.0641798  77.0593877  91.7575583  21.5243889  72.9919108 100.3623529
  21.4240616  73.9413465 100.2935620  21.3065431  72.6637347  99.4899599
  20.7256961  70.2404033  76.9464206  21.5876125  70.5658932  77.2060023
  20.9107305  69.4535529  76.4337272  12.7424376  78.3226373  89.2244395
  12.0487848  77.9080326  88.7114349  13.4897367  78.3646910  88.6277814
  21.3875159  76.4216247  99.1788590  20.9042241  77.2216607  99.3852479
  21.4736098  76.4324192  98.2256034  14.6561119  78.2544627  87.1010410
  14.6331807  78.3532314  86.1492293  14.9661755  79.1009778  87.4227576
  17.3148497  80.3120782  91.2157024  18.2691750  80.2804724  91.1486956
  17.1161020  79.8511406  92.0307250  17.9047879  78.8821898  93.7827822
  18.7240768  79.3765977  93.8062659  18.1784687  77.9653866  93.7545389
  15.6698726  85.8540401  88.2327222  15.5353193  85.0940802  87.6665220
  15.2530788  86.5781301  87.7656011  26.8057689  81.0377325  77.2403797
  27.5093539  81.2427327  77.8561453  26.0820337  81.6054087  77.5052881
  18.8267851  86.7509718  88.4445664  18.7100236  87.6955151  88.3424355
  18.0060298  86.4483280  88.8331464  13.1582793  73.2160032  94.4820019
  13.8041657  72.7058986  94.9707244  12.9499944  73.9528713  95.0563444
  25.6836185  80.2840879  99.9812159  26.5527345  80.4581532  99.6198794
  25.2042937  81.1035296  99.8587889  19.8522366  87.4037980  91.6601593
  20.7549612  87.4361591  91.9768088  19.6259736  86.4738431  91.6747929
  21.6075968  86.1568967  88.3211672  20.6571599  86.1570828  88.2076044
  21.9108454  85.4101701  87.8047706  17.4980284  70.3627649  98.5795033
  18.3611746  70.0064454  98.7898357  16.9245695  70.0241544  99.2670437
  37.3428661  91.9929505  89.3857434  37.9807071  91.8736253  88.6820774
  37.2249504  92.9410349  89.4445386  34.1518367  91.9456933  89.3218959
  33.8136879  91.8297998  88.4339493  35.0208136  91.5448098  89.3019965
  30.0105183  93.7992410  85.3115850  29.4470048  93.7082347  84.5432137
  29.8957578  92.9792314  85.7918342  34.6338150  93.0991785  95.2805164
  34.6226791  92.7044583  94.4085668  34.7958790  92.3657858  95.8738936
  27.5569615  95.2943601  88.1500070  28.3490907  94.9534426  87.7346369
  27.7966265  95.4038576  89.0702223  35.5904742  97.4663377  80.6230314
  34.9392721  98.0517458  80.2364328  36.3849105  97.9969572  80.6825352
  29.5160369  94.5552515  81.0217449  30.2891245  94.0081502  80.8830325
  29.8685768  95.4196764  81.2331910  31.3545411  95.8828897  94.2284348
  31.0635277  96.7874528  94.1131014  31.9902396  95.9245424  94.9428418
  32.2801618  93.2605745  90.8185708  32.8765191  93.0361768  90.1042671
  32.3376590  92.5190491  91.4211156  37.0680007  95.1553809  81.1599299
  36.4325840  95.2288436  81.8720203  36.7377413  95.7447408  80.4818378
  31.5722935  92.6173287  80.8560274  31.4559194  91.9418190  81.5241358
  31.6825195  92.1305661  80.0392427  33.9154476  92.0783434  84.5606963
  33.5512684  91.5514055  85.2719884  34.7721592  91.6881903  84.3873448
  36.3135297  95.5690312  91.2234142  36.0136020  96.4715351  91.1149949
  35.9686356  95.3022496  92.0755295  29.7647778  92.0204109  87.2570846
  28.8398274  91.8880323  87.4648538  30.0132191  92.7998328  87.7540789
  27.1256589  91.6637383  88.0914635  27.2548970  91.9171862  89.0054047
  26.4454040  92.2565091  87.7719290  31.2956076 102.3334633  84.1905110
  31.2180106 103.2842458  84.2693590  30.6917720 101.9880505  84.8480036
  33.7873306  89.5062498  96.8466476  33.0106640  90.0656418  96.8369341
  34.4263869  89.9919281  97.3681347  32.0419678  92.3147952  96.4084443
  32.7834363  92.8532995  96.1319267  31.3356664  92.9414240  96.5655995
  37.5175018  94.4577092  95.0056605  37.9258374  94.0159502  94.2611237
  36.7952280  93.8829719  95.2590798  33.8706088  89.3949699  92.3790162
  34.7167283  89.8189112  92.5224811  33.8104726  88.7383323  93.0728725
  37.8403833  95.0178283  88.7608894  37.2112695  95.1823997  88.0584962
  37.4529495  95.4319892  89.5319858  41.7193065  95.9532720  86.1153258
  41.0344103  96.3331622  85.5650291  41.8036914  96.5628047  86.8485205
  37.0205533  87.0554067  94.0371335  36.7766465  87.8096128  93.5005611
  37.2965464  87.4339415  94.8718583  38.9743996  93.5992679  92.7148601
  39.1860891  94.2424439  92.0382982  38.9273744  92.7654996  92.2470531
  33.3931795  94.7552691  86.0258979  33.8570140  95.0340394  85.2363601
  33.1288593  93.8536135  85.8432070  30.2855876  94.3024172  88.9638742
  30.8557233  94.7311441  88.3256227  30.8763987  94.0206757  89.6622928
  30.7781042  89.4687600  97.2099753  30.1479703  90.1503881  97.4435150
  30.6717130  89.3570681  96.2652892  26.0726015  89.1359396  88.1365678
  25.2825069  89.3916924  87.6605788  26.5637262  89.9507734  88.2417718
  40.0889824  96.4764635  90.8870958  40.9107268  96.0744822  90.6053640
  40.0852227  96.3732869  91.8387074  28.0240760  89.5003975  85.0949154
  27.2271923  89.6122669  85.6132650  27.7966352  89.8390627  84.2290045
  33.8546428  96.0248678  93.0431669  33.9190860  96.4869085  93.8789841
  33.1457351  95.3946043  93.1713979  24.3563718  89.3889886  90.5680668
  24.6071756  90.2736896  90.8338244  24.8923266  89.2094488  89.7955760
  33.5694445  97.6916786  82.9110649  33.4340120  98.5368321  83.3395497
  34.1104258  97.8936063  82.1476583  30.0561785  83.7708366  99.5725004
  29.6628730  83.2174564 100.2472649  30.8727925  84.0818944  99.9631522
  27.0223843  95.2092224  83.4838574  27.5348363  96.0035474  83.6344139
  27.6746555  94.5118514  83.4172176  28.8318727  98.3257980  85.5661327
  29.0085356  99.2475945  85.3782311  29.6275561  98.0116399  85.9955707
  32.9729746  85.1866245  97.1645261  33.7139459  85.7873398  97.0849723
  33.2047669  84.4443882  96.6063304  28.1171084  90.3722612  95.4423491
  28.0024599  89.4707869  95.7430590  27.2615602  90.6186309  95.0908307
  35.1962922  98.3140352  97.0410991  34.7526776  97.5276731  96.7231896
  35.8580135  98.5019503  96.3754882  29.9550043  99.8436154  91.5671670
  30.5057468  99.7153217  90.7948664  29.1161519 100.1431043  91.2166563
  37.2944160  98.5943152  95.0692393  37.2762635  99.4152033  94.5772662
  38.2164080  98.4697227  95.2942534  33.7517214  96.1087282  95.9115901
  34.2845551  95.3475570  95.6815209  33.2231295  95.8160933  96.6540055
  24.9872759  93.5380878  84.2598145  25.8247981  93.9477886  84.0431853
  25.1651027  92.5980320  84.2298339  36.8837192  91.2055959  79.9481978
  36.3683815  91.9760563  80.1870365  36.6114500  90.5321095  80.5715039
  32.2426335  83.6690732  88.4124958  33.1079332  83.4733541  88.0530847
  32.3103844  83.4401084  89.3394314  41.8571466  93.9588313  81.8835151
  41.0800908  93.6199473  81.4390313  42.5362947  93.9640936  81.2090116
  35.1169927  95.2373274  83.4234713  34.5891288  94.5026034  83.1107950
  34.6157429  96.0147950  83.1774681  40.0962773  93.4322295  88.5401759
  39.4386447  94.1221556  88.6281888  40.9003172  93.8218726  88.8835746
  38.9068231  91.7866667  86.5905701  39.4200113  92.4196659  87.0927411
  39.5569455  91.1867863  86.2249061  33.2622527  93.0553484  76.4269686
  32.3549588  92.8242738  76.6260835  33.7593559  92.2591104  76.6143668
  36.1690606 101.7650992  79.3466372  35.4952304 102.0682688  79.9551330
  36.5556428 102.5680072  78.9971829  35.3849062  89.2616123  88.8364042
  34.4671624  89.4831070  88.6785730  35.8009206  89.3362433  87.9775749
  34.4410760  93.1566079  80.9493676  33.5321979  92.8725112  81.0466146
  34.4705844  93.5765158  80.0896983  39.6730028  96.7672669  84.7184844
  39.2192355  95.9263579  84.7750034  39.0423994  97.4034067  85.0559624
  38.1162967  98.6049165  85.6534662  38.4085941  99.1654222  84.9347027
  38.6261587  98.8977726  86.4087821  25.0098931  90.8771593  84.9308878
  24.8123330  90.2840954  84.2059945  24.4545595  90.5723804  85.6484817
  32.9895654  90.7694700  87.0503471  33.0444264  89.8168536  86.9745948
  32.1786856  90.9254139  87.5344770  34.1386848  94.6974823  78.2881755
  33.7006278  93.9810682  77.8287392  34.8797289  94.9250938  77.7266846
  30.9288014  89.3871760  84.8093850  30.1155880  89.6865930  85.2159042
  31.4247008  88.9927448  85.5268333  33.0796592  99.3829516  86.7428115
  33.0372771  99.6090363  85.8136647  33.9959291  99.1492891  86.8913916
  36.5262226  89.8513584  93.6408744  36.8811614  90.0785057  94.5003210
  37.1734357  90.1831961  93.0186000  42.2559963  92.9732020  84.3458073
  42.1177861  93.1633616  83.4179262  41.8996182  93.7351403  84.8026124
  30.4202089  86.9590115  90.4255085  31.0601468  86.8178874  89.7278049
  29.5879619  86.6724628  90.0493687  42.2829342  95.0408547  89.3569345
  42.7165849  94.9483836  90.2052399  42.9960923  95.0166047  88.7189361
  31.1962393  96.2592545  86.5390078  31.9902991  95.7642866  86.3372653
  30.4854085  95.7310409  86.1757783  36.0157237  98.6410641  90.8902445
  36.0694260  99.2101577  91.6580161  35.1472019  98.8112526  90.5256482
  27.5045156  90.4035627  82.6149830  26.5742744  90.3420083  82.8319793
  27.6002628  89.8811580  81.8186472  27.4230705  86.9290440  85.2028072
  27.6837523  87.8435773  85.0937233  28.2447878  86.4614883  85.3524685
  28.8955631  88.3428197  92.3726897  29.5678684  88.1345559  91.7239546
  28.0685417  88.1450283  91.9332129  43.1444892  95.0832248  91.8902230
  43.3380782  95.9878058  92.1361505  43.0445510  94.6239667  92.7240815
  34.7981203  84.9690138  94.3892557  34.1509118  85.6680088  94.2957034
  35.5682218  85.4026282  94.7568806  38.2060001  95.2338990  97.4643111
  38.0545507  95.0049542  96.5473194  38.1964680  96.1909592  97.4774456
  34.9745337  92.8070903  92.4489377  35.9037397  92.9582063  92.2758345
  34.5536367  92.8954924  91.5938024  33.7733669  96.8321567  90.2187915
  33.6344754  96.4640352  91.0913853  32.9848265  97.3469207  90.0471873
  34.3681821 101.9330664  81.5613451  34.5433576 101.4618707  82.3759074
  33.6814609 102.5596430  81.7894712  35.3238884  96.2103170  87.6076753
  34.9888717  96.1703940  88.5034402  34.8242830  95.5447886  87.1347163
  29.2983128  91.6170800  93.1329334  29.1602926  90.8851039  93.7340873
  30.2088051  91.5279700  92.8513522  38.2598076  93.5559205  77.8813812
  37.6427246  92.8306033  77.7846865  37.7914564  94.3168565  77.5380887
  31.9265429  91.3290760  92.6213013  32.6365047  90.6883952  92.5799632
  31.8834737  91.5803654  93.5439194  39.9152207  98.2658113  95.5419593
  39.8564753  97.5817333  94.8750176  40.3171726  99.0077103  95.0900219
  30.6394363  88.3155977  94.4408653  30.1031720  87.8646716  95.0930249
  30.0511071  88.4501886  93.6979117  28.9342906 105.0820027  88.3353312
  29.1739504 105.7138551  89.0132330  28.0912103 104.7308067  88.6218671
  39.9169615  96.2297697  93.7733572  39.0296393  95.8923619  93.8959971
  40.4868166  95.4980728  94.0102338  21.5698762  92.5621789  87.0976624
  22.2569801  92.2483519  86.5097639  21.4146890  93.4663153  86.8243875
  26.3733484  87.4511985  91.5261647  26.2891673  86.8437655  90.7912057
  25.5516190  87.9421003  91.5271144  33.4470768 100.8899149  90.7394816
  33.3740939 101.6954121  91.2514120  33.0048161 101.0891115  89.9142837
  33.2360548 100.1270919  84.2497637  32.4528069 100.6692599  84.3435862
  33.9353293 100.6444899  84.6491878  35.9069451 100.7885983  92.8952974
  36.6197424 101.4233448  92.8228876  35.4159480 100.8849849  92.0792976
  37.6286978  94.6937236  84.4670266  36.6943257  94.8138698  84.2974970
  37.8063647  93.7909703  84.2030276  33.1292166  88.0782932  86.6203527
  32.7589954  87.5253972  87.3084433  33.6251259  87.4741065  86.0678527
  30.9581365  98.5380427  93.7158545  31.6590824  99.1716910  93.8687939
  30.4876480  98.8795158  92.9554184  39.0835761  96.8798376  82.0006452
  39.3595605  96.7654971  82.9100326  38.2140260  96.4815861  81.9618625
  38.7582651  91.0925034  91.5411095  38.1054101  91.3400942  90.8863548
  39.1363031  90.2789172  91.2073573  35.7189825 101.1284727  85.6439266
  35.9012219 100.3106383  86.1067018  36.5422811 101.3452420  85.2064156
  36.0531990 100.0552912  82.9054314  36.5819757  99.5445367  82.2924476
  36.3160210  99.7395443  83.7699847  34.8070224  91.8344845  98.0277132
  34.1310861  91.7338974  98.6979508  35.6297858  91.6784059  98.4913130
  26.5549083  98.0716782  90.6489648  27.1402520  97.3260470  90.7817552
  26.3573921  98.3820738  91.5326312  29.4087738 101.1068029  85.6652090
  28.7398114 101.5914157  85.1816130  29.2700608 101.3537250  86.5795469
  21.1466738  90.6422382  89.3694091  21.1850837  90.1085973  90.1631209
  20.6407031  90.1157587  88.7505068  33.5493007 103.1411773  92.2634748
  34.1011315 103.3043394  93.0283834  33.8899200 103.7316210  91.5914773
  28.5257500  85.4886922  92.8656633  28.5898827  86.3501753  92.4534031
  28.4624620  84.8760924  92.1328992  28.0009773  87.5610055  96.5129667
  28.6281811  87.1787132  97.1267192  27.1437691  87.3424257  96.8785360
  38.4003881  97.9673030  98.1183403  38.9443785  98.5802988  97.6238358
  37.8190726  98.5252609  98.6350416  24.7775315  89.3686484  82.4448022
  25.0728756  88.4597162  82.3915076  23.8763351  89.3474224  82.1229025
  36.6861394 101.0893748  89.2498431  36.5612534 100.2883488  88.7409376
  37.3440485 101.5839942  88.7612401  28.3069562  87.4442481  88.4275571
  27.5856148  88.0578448  88.2883044  29.0962818  87.9800245  88.3492217
  38.7496303  98.8902768  90.8777981  37.8026638  98.7708119  90.8056307
  39.0979076  98.0025266  90.9604242  31.1095876  84.7796907  94.7016223
  31.6330278  85.0259204  95.4642532  30.8908209  85.6116942  94.2819360
  26.5063157  87.0500582  82.5687347  26.1775863  86.1697961  82.3862453
  26.8602528  86.9948250  83.4563737  35.7542736  98.6855484  87.0782333
  35.6067698  97.7572192  87.2589903  36.5796229  98.7075575  86.5939408
  39.3576858  99.5084043  88.1647206  40.2823405  99.3026905  88.0271657
  39.1892161  99.2600444  89.0736547  32.3148421  85.7210602  92.3865893
  31.9745241  84.9218415  92.7886573  31.6087427  86.0212313  91.8142726
  32.9664893  82.8059915  90.8393216  33.7890962  82.3320393  90.7172106
  33.2102956  83.5850398  91.3391902  30.4903471  89.4979035  88.6485195
  30.3448052  89.8119338  89.5409476  30.0128675  90.1163936  88.0956093
  32.3499854  86.4881583  88.6966084  32.3361423  85.5922677  88.3598382
  33.0672282  86.4952247  89.3304370  34.2025985  86.9218924  90.7419212
  33.9443763  87.8435994  90.7403542  33.6711025  86.5249358  91.4319676
  39.1472174 100.0269711  83.5209297  39.3209051  99.4616133  82.7683150
  39.6401065 100.8270606  83.3388787  24.9649134  92.0384380  91.5872856
  24.4202602  92.8144188  91.7193130  25.8428484  92.3855184  91.4291977
  40.1347346  99.3436475  80.6206195  40.8298251  99.9643168  80.8393510
  40.4770496  98.4931826  80.8958573  25.7515156  91.1654276  94.4803013
  25.0096892  91.3136911  95.0667643  25.4307900  91.4262542  93.6169762
  42.0338769  96.7936181  82.1493526  42.5590094  97.1323453  81.4242846
  41.9461122  95.8583196  81.9656661  33.6958818 100.7070254  94.2783403
  34.0045945 100.4619401  95.1506102  34.4934300 100.9116893  93.7902273
  33.7179430 102.8608164  86.5088779  33.2784421 102.3684543  87.2021636
  34.4687547 102.3181131  86.2680855  26.1971769  99.0519705  86.5113407
  27.0229789  98.7523477  86.1312051  25.8465821  98.2827327  86.9603196
  31.1653302  98.4046173  88.5811081  30.5433312  97.7416878  88.2813309
  31.8358169  98.4307305  87.8984729  24.3980374  96.9706031  87.4702341
  23.5612283  96.5428206  87.2886342  24.3704020  97.1638474  88.4073132
  31.2377830  86.8827961  98.1743587  31.2865985  87.7590084  97.7921357
  31.7800344  86.3405354  97.6015230  41.7232676  97.4269084  97.4544724
  40.9328219  97.4093223  96.9149224  41.4866030  97.9657378  98.2093761
  41.8430551  94.2761551  94.7677453  41.8928556  94.1111558  95.7092975
  41.7344474  93.4088810  94.3775333  30.7266809  96.9550096  82.0569542
  30.8754930  97.6385561  81.4036214  31.5333253  96.9355186  82.5718997
  39.1334313  90.2592479  96.0836759  40.0344176  90.1198943  95.7920757
  39.2082287  90.4246933  97.0234937  33.4677118  87.6359333  94.9289946
  32.5980428  87.9292899  94.6572534  33.7036599  88.2199778  95.6497209
  43.3448747  96.6958492  95.0119474  43.0533556  97.0588473  95.8482935
  42.7320879  95.9825500  94.8332806  44.5444430  94.2611372  87.5322044
  45.3791321  94.7001176  87.6959605  44.6803559  93.7850025  86.7130290
  41.5935936  91.8191107  93.4799532  42.0690057  92.0118753  92.6718384
  40.6701501  91.8750293  93.2342916  28.4819442  92.9815274  83.0630610
  28.2365484  92.0777604  83.2610821  28.6515357  92.9832424  82.1210088
  36.1716152  83.8538950  92.4455366  36.6898096  84.5899977  92.1201855
  35.8171285  84.1602944  93.2802125  27.7515090  88.7143631  80.5616772
  27.0584335  88.7887986  79.9056808  27.5066842  87.9503975  81.0838289
  34.2262215  99.4498227  79.5281289  33.6536182 100.0688414  79.0751761
  34.7995008  99.9997588  80.0621211  37.4459475  99.7335377  80.6589871
  38.3790148  99.6680939  80.8622747  37.3582687 100.5691644  80.2004404
  40.0747491  99.0501247  77.6193819  39.9961123  98.7161111  78.5129577
  40.8957158  99.5423015  77.6185291  42.7725682  91.9162986  90.8270137
  42.7402003  90.9778987  91.0129821  43.3826306  91.9947023  90.0935962
  34.6109013  90.7859039  76.8697341  35.5568118  90.6565248  76.9385759
  34.2323258  90.0473701  77.3466770  34.4947706  94.8376786  98.3297998
  35.4150715  95.0155385  98.5238045  34.4597289  93.8932831  98.1777698
  23.7129871  90.0315379  87.2551273  23.3932655  89.1780687  86.9625647
  23.1663299  90.2463957  88.0109240  27.4909778  92.7477820  90.9720780
  27.7095788  93.6794928  90.9908813  27.9035552  92.3885795  91.7575583
  32.3637644  88.3211026 100.3623529  32.2634371  89.2705383 100.2935620
  32.1459186  87.9929265  99.4899599  23.5818131  93.6518291  89.2244395
  22.8881602  93.2372244  88.7114349  24.3291122  93.6938827  88.6277814
  32.2268914  91.7508165  99.1788590  31.7435995  92.5508525  99.3852479
  32.3129853  91.7616110  98.2256034  25.4954873  93.5836545  87.1010410
  25.4725561  93.6824232  86.1492293  25.8055510  94.4301695  87.4227576
  28.1542251  95.6412700  91.2157024  29.1085505  95.6096642  91.1486956
  27.9554775  95.1803323  92.0307250  28.7441633  94.2113816  93.7827822
  29.5634522  94.7057894  93.8062659  29.0178441  93.2945784  93.7545389
  26.5092480 101.1832319  88.2327222  26.3746948 100.4232720  87.6665220
  26.0924542 101.9073219  87.7656011  37.6451443  96.3669243  77.2403797
  38.3487293  96.5719245  77.8561453  36.9214092  96.9346004  77.5052881
  38.4749253  92.1179104  83.3606067  38.4184455  92.5747655  82.5213700
  39.0277596  91.3569788  83.1828910  29.6661606 102.0801636  88.4445664
  29.5493990 103.0247069  88.3424355  28.8454052 101.7775198  88.8331464
  39.5538140  96.8051772  79.2902257  40.3883744  96.3732970  79.1079732
  39.3922483  96.6333785  80.2179152  39.2084033  93.3083885  80.6558596
  39.1532836  93.1428157  79.7147041  38.5830088  94.0159918  80.8120786
  23.9976548  88.5451949  94.4820019  24.6435411  88.0350903  94.9707244
  23.7893699  89.2820631  95.0563444  36.5229940  95.6132797  99.9812159
  37.3921099  95.7873449  99.6198794  36.0436691  96.4327214  99.8587889
  30.6916120 102.7329898  91.6601593  31.5943367 102.7653508  91.9768088
  30.4653490 101.8030349  91.6747929  32.4469722 101.4860885  88.3211672
  31.4965353 101.4862746  88.2076044  32.7502208 100.7393619  87.8047706
  28.3374039  85.6919567  98.5795033  29.2005500  85.3356371  98.7898357
  27.7639449  85.3533461  99.2670437  48.1822416 107.3221423  89.3857434
  48.8200825 107.2028170  88.6820774  48.0643258 108.2702267  89.4445386
  44.9912122 107.2748851  89.3218959  44.6530633 107.1589916  88.4339493
  45.8601890 106.8740016  89.3019965  40.8498938 109.1284327  85.3115850
  40.2863803 109.0374264  84.5432137  40.7351333 108.3084232  85.7918342
  45.4731905 108.4283703  95.2805164  45.4620546 108.0336501  94.4085668
  45.6352544 107.6949775  95.8738936  38.3963369 110.6235519  88.1500070
  39.1884661 110.2826344  87.7346369  38.6360020 110.7330494  89.0702223
  46.4298496 112.7955295  80.6230314  45.7786476 113.3809376  80.2364328
  47.2242859 113.3261490  80.6825352  40.3554123 109.8844432  81.0217449
  41.1284999 109.3373419  80.8830325  40.7079522 110.7488682  81.2331910
  42.1939166 111.2120815  94.2284348  41.9029032 112.1166445  94.1131014
  42.8296150 111.2537342  94.9428418  43.1195373 108.5897663  90.8185708
  43.7158945 108.3653685  90.1042671  43.1770344 107.8482409  91.4211156
  42.6920401 106.0437098  78.6535899  42.9445922 105.5218620  77.8919362
  41.7544960 105.8803244  78.7562582  47.7363684 105.0472877  86.4610642
  48.5226773 104.6292300  86.1101059  48.0002388 105.9518969  86.6292290
  47.9073761 110.4845727  81.1599299  47.2719594 110.5580354  81.8720203
  47.5771168 111.0739326  80.4818378  53.1372111 104.9848110  87.3643620
  53.8697283 104.4147327  87.5981450  52.3811467 104.5969710  87.8050126
  42.4116690 107.9465204  80.8560274  42.2952948 107.2710108  81.5241358
  42.5218950 107.4597578  80.0392427  44.7548231 107.4075351  84.5606963
  44.3906438 106.8805972  85.2719884  45.6115347 107.0173820  84.3873448
  50.6597531  98.6969684  91.8238229  50.3280856  99.5665095  91.5999444
  50.0643145  98.3805968  92.5032259  44.3953718 102.4365251  79.5568311
  44.5628120 103.3045488  79.9238782  44.2050887 102.5992533  78.6329601
  47.1529051 110.8982230  91.2234142  46.8529774 111.8007269  91.1149949
  46.8080111 110.6314413  92.0755295  40.6041532 107.3496027  87.2570846
  39.6792029 107.2172241  87.4648538  40.8525946 108.1290246  87.7540789
  50.5526195 103.4164770  88.9031579  49.6443072 103.3480179  88.6090340
  50.5013791 103.8936715  89.7313405  44.3742939 104.8922909  80.5414978
  44.2542564 105.3379959  81.3800459  43.6795527 105.2408226  79.9828516
  37.9650344 106.9929300  88.0914635  38.0942725 107.2463779  89.0054047
  37.2847795 107.5857008  87.7719290  42.1349831 117.6626550  84.1905110
  42.0573861 118.6134375  84.2693590  41.5311474 117.3172423  84.8480036
  44.6267061 104.8354416  96.8466476  43.8500395 105.3948336  96.8369341
  45.2657624 105.3211199  97.3681347  52.4187841 101.6181209  90.6809453
  51.7762221 101.9113742  90.0349248  51.9142770 101.5034129  91.4862650
  50.0728005 105.3644382  81.3695312  50.9845861 105.5971769  81.1943010
  49.5637652 105.9481426  80.8070391  42.8813433 107.6439869  96.4084443
  43.6228117 108.1824913  96.1319267  42.1750418 108.2706158  96.5655995
  48.3568773 109.7869010  95.0056605  48.7652129 109.3451420  94.2611237
  47.6346034 109.2121637  95.2590798  44.7099843 104.7241616  92.3790162
  45.5561038 105.1481030  92.5224811  44.6498480 104.0675241  93.0728725
  48.6797587 110.3470200  88.7608894  48.0506450 110.5115914  88.0584962
  48.2923249 110.7611810  89.5319858  52.5586819 111.2824638  86.1153258
  51.8737857 111.6623539  85.5650291  52.6430668 111.8919965  86.8485205
  47.8599288 102.3845985  94.0371335  47.6160220 103.1388045  93.5005611
  48.1359218 102.7631332  94.8718583  49.8137751 108.9284597  92.7148601
  50.0254646 109.5716357  92.0382982  49.7667499 108.0946914  92.2470531
  47.4163980 101.5402418  89.6185173  46.5548459 101.8383671  89.9101911
  47.4426414 101.7572817  88.6866206  44.2325549 110.0844608  86.0258979
  44.6963895 110.3632311  85.2363601  43.9682347 109.1828053  85.8432070
  41.1249630 109.6316090  88.9638742  41.6950987 110.0603358  88.3256227
  41.7157742 109.3498675  89.6622928  43.1694435 106.2067761  82.8348544
  43.8718478 106.6588804  83.3022470  42.8375064 105.5651580  83.4628437
  41.6174797 104.7979517  97.2099753  40.9873457 105.4795798  97.4435150
  41.5110885 104.6862599  96.2652892  36.9119769 104.4651313  88.1365678
  36.1218823 104.7208842  87.6605788  37.4031016 105.2799651  88.2417718
  50.9283579 111.8056553  90.8870958  51.7501022 111.4036740  90.6053640
  50.9245982 111.7024787  91.8387074  38.8634514 104.8295893  85.0949154
  38.0665678 104.9414587  85.6132650  38.6360107 105.1682545  84.2290045
  44.6940182 111.3540596  93.0431669  44.7584615 111.8161003  93.8789841
  43.9851106 110.7237961  93.1713979  35.1957472 104.7181804  90.5680668
  35.4465510 105.6028814  90.8338244  35.7317020 104.5386405  89.7955760
  59.0189572 108.1495301  87.2355930  58.2653280 107.5802699  87.0799934
  59.1537113 108.1157966  88.1826565  44.4088200 113.0208703  82.9110649
  44.2733875 113.8660239  83.3395497  44.9498012 113.2227981  82.1476583
  40.8955539  99.1000283  99.5725004  40.5022485  98.5466482 100.2472649
  41.7121680  99.4110862  99.9631522  37.8617597 110.5384141  83.4838574
  38.3742118 111.3327392  83.6344139  38.5140310 109.8410432  83.4172176
  39.6712482 113.6549898  85.5661327  39.8479110 114.5767862  85.3782311
  40.4669315 113.3408317  85.9955707  43.8123500 100.5158162  97.1645261
  44.5533214 101.1165315  97.0849723  44.0441423  99.7735800  96.6063304
  38.9564838 105.7014530  95.4423491  38.8418354 104.7999787  95.7430590
  38.1009356 105.9478226  95.0908307  46.0356676 113.6432270  97.0410991
  45.5920530 112.8568648  96.7231896  46.6973890 113.8311420  96.3754882
  40.7943797 115.1728071  91.5671670  41.3451222 115.0445135  90.7948664
  39.9555273 115.4722960  91.2166563  48.1337914 113.9235070  95.0692393
  48.1156390 114.7443951  94.5772662  49.0557834 113.7989145  95.2942534
  44.5910968 111.4379199  95.9115901  45.1239305 110.6767487  95.6815209
  44.0625049 111.1452851  96.6540055  47.7580663  96.5439265  91.4409543
  47.4144933  97.4340907  91.3648653  48.1259626  96.3540923  90.5779128
  35.8266514 108.8672796  84.2598145  36.6641736 109.2769804  84.0431853
  36.0044782 107.9272238  84.2298339  47.7230946 106.5347876  79.9481978
  47.2077569 107.3052481  80.1870365  47.4508254 105.8613012  80.5715039
  45.3078057 101.3797577  85.0067216  44.4519653 100.9904428  84.8272855
  45.7205009 101.4589538  84.1467002  46.8377204  98.9143920  89.4058776
  46.3341999  98.8774056  88.5926581  47.1307811  99.8236663  89.4655433
  43.0820090  98.9982650  88.4124958  43.9473086  98.8025459  88.0530847
  43.1497598  98.7693002  89.3394314  52.6965220 109.2880231  81.8835151
  51.9194663 108.9491390  81.4390313  53.3756701 109.2932854  81.2090116
  47.5117249 104.4074968  81.7741759  47.2067385 104.7221118  82.6251902
  48.4647691 104.4856388  81.8169092  45.9563681 110.5665192  83.4234713
  45.4285043 109.8317951  83.1107950  45.4551184 111.3439868  83.1774681
  50.9356527 108.7614212  88.5401759  50.2780202 109.4513474  88.6281888
  51.7396926 109.1510644  88.8835746  40.6882409 101.2284858  85.7841324
  41.2626161 101.0060040  85.0514517  41.2753391 101.2973553  86.5369926
  49.7461986 107.1158585  86.5905701  50.2593868 107.7488577  87.0927411
  50.3963210 106.5159780  86.2249061  41.0151996 103.2589319  79.8037210
  40.1789308 103.5964006  80.1246484  40.8756765 103.1238299  78.8664347
  42.9905076  98.1026107  84.5116394  42.3369489  97.7875124  83.8873009
  42.9485551  97.4801847  85.2376217  44.1016281 108.3845402  76.4269686
  43.1943343 108.1534655  76.6260835  44.5987313 107.5883021  76.6143668
  47.0084360 117.0942909  79.3466372  46.3346059 117.3974606  79.9551330
  47.3950182 117.8971990  78.9971829  46.2242817 104.5908040  88.8364042
  45.3065378 104.8122987  88.6785730  46.6402960 104.6654351  87.9775749
  47.0077864 105.9899456  83.9666722  47.7549683 106.5020853  83.6573844
  47.2769454 105.6683509  84.8271115  45.2804515 108.4857997  80.9493676
  44.3715734 108.2017030  81.0466146  45.3099598 108.9057075  80.0896983
  50.5123782 112.0964586  84.7184844  50.0586109 111.2555496  84.7750034
  49.8817749 112.7325985  85.0559624  49.4556702 103.0256572  85.9485511
  48.7179458 102.5133959  86.2795754  49.7083475 102.5856954  85.1368788
  48.9556721 113.9341083  85.6534662  49.2479696 114.4946140  84.9347027
  49.4655342 114.2269644  86.4087821  49.5568329  95.8032824  86.5427280
  49.8627206  94.9430188  86.2553195  50.2820934  96.3950445  86.3426274
  35.8492685 106.2063511  84.9308878  35.6517085 105.6132872  84.2059945
  35.2939349 105.9015721  85.6484817  43.8289409 106.0986617  87.0503471
  43.8838018 105.1460454  86.9745948  43.0180611 106.2546057  87.5344770
  44.9780602 110.0266741  78.2881755  44.5400032 109.3102599  77.8287392
  45.7191043 110.2542855  77.7266846  41.7681769 104.7163677  84.8093850
  40.9549634 105.0157848  85.2159042  42.2640763 104.3219366  85.5268333
  43.9190347 114.7121434  86.7428115  43.8766525 114.9382280  85.8136647
  44.8353045 114.4784809  86.8913916  47.3655980 105.1805502  93.6408744
  47.7205368 105.4076975  94.5003210  48.0128112 105.5123878  93.0186000
  53.0953717 108.3023938  84.3458073  52.9571616 108.4925534  83.4179262
  52.7389936 109.0643320  84.8026124  41.2595843 102.2882033  90.4255085
  41.8995223 102.1470792  89.7278049  40.4273374 102.0016546  90.0493687
  53.1223097 110.3700465  89.3569345  53.5559604 110.2775754  90.2052399
  53.8354678 110.3457965  88.7189361  42.0356147 111.5884463  86.5390078
  42.8296746 111.0934783  86.3372653  41.3247840 111.0602326  86.1757783
  46.8550992 113.9702559  90.8902445  46.9088014 114.5393495  91.6580161
  45.9865773 114.1404444  90.5256482  38.3438911 105.7327545  82.6149830
  37.4136499 105.6712000  82.8319793  38.4396383 105.2103498  81.8186472
  38.2624460 102.2582358  85.2028072  38.5231277 103.1727691  85.0937233
  39.0841632 101.7906800  85.3524685  39.7349385 103.6720115  92.3726897
  40.4072439 103.4637477  91.7239546  38.9079172 103.4742201  91.9332129
  53.9838646 110.4124165  91.8902230  54.1774537 111.3169976  92.1361505
  53.8839265 109.9531584  92.7240815  45.6374957 100.2982056  94.3892557
  44.9902872 100.9972005  94.2957034  46.4075973 100.7318200  94.7568806
  49.0453755 110.5630908  97.4643111  48.8939262 110.3341460  96.5473194
  49.0358435 111.5201509  97.4774456  45.8139092 108.1362821  92.4489377
  46.7431152 108.2873980  92.2758345  45.3930122 108.2246842  91.5938024
  44.6127423 112.1613485  90.2187915  44.4738509 111.7932270  91.0913853
  43.8242020 112.6761125  90.0471873  45.2075575 117.2622582  81.5613451
  45.3827331 116.7910625  82.3759074  44.5208363 117.8888348  81.7894712
  46.1632638 111.5395088  87.6076753  45.8282471 111.4995858  88.5034402
  45.6636584 110.8739804  87.1347163  40.1376882 106.9462718  93.1329334
  39.9996680 106.2142957  93.7340873  41.0481806 106.8571618  92.8513522
  49.0991830 108.8851122  77.8813812  48.4821001 108.1597950  77.7846865
  48.6308319 109.6460482  77.5380887  42.7659183 106.6582677  92.6213013
  43.4758802 106.0175869  92.5799632  42.7228491 106.9095572  93.5439194
  50.7545962 113.5950031  95.5419593  50.6958508 112.9109251  94.8750176
  51.1565480 114.3369021  95.0900219  41.4788117 103.6447895  94.4408653
  40.9425474 103.1938634  95.0930249  40.8904825 103.7793804  93.6979117
  40.8890376 103.1036547  77.0035117  40.0119842 102.9825347  76.6397363
  41.3648129 102.3122625  76.7514005  50.7563369 111.5589614  93.7733572
  49.8690148 111.2215536  93.8959971  51.3261920 110.8272646  94.0102338
  32.4092516 107.8913706  87.0976624  33.0963556 107.5775436  86.5097639
  32.2540645 108.7955071  86.8243875  37.2127238 102.7803903  91.5261647
  37.1285427 102.1729572  90.7912057  36.3909945 103.2712921  91.5271144
  44.2864522 116.2191067  90.7394816  44.2134694 117.0246038  91.2514120
  43.8441916 116.4183033  89.9142837  44.0754302 115.4562837  84.2497637
  43.2921824 115.9984517  84.3435862  44.7747047 115.9736817  84.6491878
  47.3850952 101.2657466  86.8931842  47.8819652 100.5127429  86.5732913
  46.6137934 101.3021783  86.3275052  55.2380710 106.9697832  88.5350134
  55.2270586 107.8522547  88.1644067  54.3698089 106.6169383  88.3404671
  46.7463206 116.1177901  92.8952974  47.4591178 116.7525366  92.8228876
  46.2553235 116.2141767  92.0792976  48.4680733 110.0229154  84.4670266
  47.5337012 110.1430616  84.2974970  48.6457401 109.1201620  84.2030276
  43.9685921 103.4074849  86.6203527  43.5983708 102.8545890  87.3084433
  44.4645013 102.8032983  86.0678527  51.8553284 105.8646473  85.0020300
  52.3213736 106.6974464  84.9280603  52.3060785 105.3991454  85.7065558
  41.7975119 113.8672344  93.7158545  42.4984579 114.5008827  93.8687939
  41.3270234 114.2087076  92.9554184  49.9229515 112.2090294  82.0006452
  50.1989359 112.0946889  82.9100326  49.0534014 111.8107779  81.9618625
  49.8269947  98.2327060  89.0411201  48.9133027  98.4631287  89.2093408
  50.2563048  98.3165504  89.8925234  49.5976405 106.4216952  91.5411095
  48.9447856 106.6692859  90.8863548  49.9756785 105.6081090  91.2073573
  46.5583579 116.4576645  85.6439266  46.7405974 115.6398301  86.1067018
  47.3816565 116.6744337  85.2064156  46.8925745 115.3844830  82.9054314
  47.4213511 114.8737285  82.2924476  47.1553964 115.0687360  83.7699847
  45.6463978 107.1636763  98.0277132  44.9704615 107.0630892  98.6979508
  46.4691612 107.0075977  98.4913130  37.3942838 113.4008699  90.6489648
  37.9796274 112.6552387  90.7817552  37.1967676 113.7112656  91.5326312
  40.2481493 116.4359947  85.6652090  39.5791868 116.9206074  85.1816130
  40.1094362 116.6829167  86.5795469  31.9860492 105.9714300  89.3694091
  32.0244592 105.4377890  90.1631209  31.4800785 105.4449505  88.7505068
  44.3886761 118.4703690  92.2634748  44.9405069 118.6335312  93.0283834
  44.7292955 119.0608128  91.5914773  39.3651255 100.8178840  92.8656633
  39.4292581 101.6793671  92.4534031  39.3018375 100.2052842  92.1328992
  38.8403527 102.8901973  96.5129667  39.4675566 102.5079050  97.1267192
  37.9831446 102.6716175  96.8785360  49.2397636 113.2964948  98.1183403
  49.7837540 113.9094906  97.6238358  48.6584481 113.8544526  98.6350416
  35.6169070 104.6978402  82.4448022  35.9122511 103.7889080  82.3915076
  34.7157106 104.6766141  82.1229025  47.5255149 116.4185666  89.2498431
  47.4006288 115.6175406  88.7409376  48.1834240 116.9131859  88.7612401
  39.1463317 102.7734398  88.4275571  38.4249903 103.3870366  88.2883044
  39.9356573 103.3092163  88.3492217  49.5890057 114.2194686  90.8777981
  48.6420393 114.1000037  90.8056307  49.9372830 113.3317184  90.9604242
  41.9489630 100.1088825  94.7016223  42.4724032 100.3551121  95.4642532
  41.7301964 100.9408860  94.2819360  37.3456911 102.3792499  82.5687347
  37.0169618 101.4989878  82.3862453  37.6996282 102.3240168  83.4563737
  46.5936490 114.0147402  87.0782333  46.4461453 113.0864110  87.2589903
  47.4189984 114.0367493  86.5939408  40.4598735 102.6665469  82.9362825
  40.7994807 103.1951390  82.2141433  40.9070855 103.0045875  83.7121392
  50.1970612 114.8375961  88.1647206  51.1217160 114.6318822  88.0271657
  50.0285916 114.5892362  89.0736547  43.1542175 101.0502520  92.3865893
  42.8138996 100.2510333  92.7886573  42.4481182 101.3504231  91.8142726
  43.8058647  98.1351832  90.8393216  44.6284717  97.6612311  90.7172106
  44.0496711  98.9142316  91.3391902  42.4466882 101.1640091  81.1356118
  43.1675244 101.5421344  80.6319835  41.8232186 101.8828968  81.2391096
  46.5898005 101.8685240  82.0714450  46.8061619 102.7509878  81.7703278
  46.1092072 101.4771453  81.3420092  41.3297226 104.8270953  88.6485195
  41.1841807 105.1411256  89.5409476  40.8522430 105.4455853  88.0956093
  43.1893609 101.8173501  88.6966084  43.1755178 100.9214594  88.3598382
  43.9066037 101.8244165  89.3304370  45.0419740 102.2510841  90.7419212
  44.7837517 103.1727912  90.7403542  44.5104780 101.8541276  91.4319676
  49.9865928 115.3561628  83.5209297  50.1602806 114.7908051  82.7683150
  50.4794820 116.1562523  83.3388787  35.8042888 107.3676297  91.5872856
  35.2596356 108.1436105  91.7193130  36.6822238 107.7147102  91.4291977
  42.5930505 100.6987881  83.9653654  42.7146416  99.7704527  84.1644542
  42.3032547 100.7126567  83.0531970  45.4621695  98.3842792  87.1020374
  45.4843392  98.4482125  86.1472354  45.8789754  97.5447300  87.2960880
  55.8405320 108.1198051  85.1399597  56.2836466 107.3705376  84.7418720
  54.9631830 108.1108188  84.7573329  50.9741101 114.6728393  80.6206195
  51.6692005 115.2935085  80.8393510  51.3164251 113.8223744  80.8958573
  36.5908910 106.4946194  94.4803013  35.8490646 106.6428829  95.0667643
  36.2701654 106.7554459  93.6169762  52.8732524 112.1228098  82.1493526
  53.3983848 112.4615371  81.4242846  52.7854877 111.1875114  81.9656661
  44.5352573 116.0362172  94.2783403  44.8439699 115.7911319  95.1506102
  45.3328055 116.2408810  93.7902273  44.5573185 118.1900082  86.5088779
  44.1178175 117.6976460  87.2021636  45.3081302 117.6473049  86.2680855
  37.0365524 114.3811622  86.5113407  37.8623544 114.0815394  86.1312051
  36.6859576 113.6119245  86.9603196  42.0047057 113.7338091  88.5811081
  41.3827066 113.0708796  88.2813309  42.6751924 113.7599222  87.8984729
  35.2374129 112.2997949  87.4702341  34.4006037 111.8720123  87.2886342
  35.2097774 112.4930392  88.4073132  42.0771584 102.2119879  98.1743587
  42.1259740 103.0882001  97.7921357  42.6194099 101.6697272  97.6015230
  52.5626430 112.7561002  97.4544724  51.7721974 112.7385141  96.9149224
  52.3259785 113.2949296  98.2093761  52.6824305 109.6053468  94.7677453
  52.7322310 109.4403476  95.7092975  52.5738228 108.7380727  94.3775333
  41.5660564 112.2842014  82.0569542  41.7148684 112.9677478  81.4036214
  42.3727007 112.2647104  82.5718997  49.9728067 105.5884396  96.0836759
  50.8737930 105.4490861  95.7920757  50.0476042 105.7538851  97.0234937
  44.3070873 102.9651251  94.9289946  43.4374182 103.2584817  94.6572534
  44.5430353 103.5491696  95.6497209  54.1842502 112.0250410  95.0119474
  53.8927310 112.3880390  95.8482935  53.5714633 111.3117418  94.8332806
  55.3838184 109.5903290  87.5322044  56.2185076 110.0293094  87.6959605
  55.5197313 109.1141943  86.7130290  52.4329690 107.1483024  93.4799532
  52.9083812 107.3410671  92.6718384  51.5095256 107.2042210  93.2342916
  39.3213197 108.3107192  83.0630610  39.0759239 107.4069522  83.2610821
  39.4909111 108.3124342  82.1210088  47.0109907  99.1830868  92.4455366
  47.5291850  99.9191895  92.1201855  46.6565039  99.4894861  93.2802125
  38.5908844 104.0435549  80.5616772  37.8978089 104.1179904  79.9056808
  38.3460596 103.2795893  81.0838289  47.2622501  95.6031150  87.9656263
  47.5424255  94.9354340  88.5916689  48.0473108  95.7960246  87.4530926
  45.0655969 114.7790144  79.5281289  44.4929936 115.3980332  79.0751761
  45.6388763 115.3289506  80.0621211  51.1331359 104.0248784  91.7127838
  52.0848782 104.1246882  91.7340062  50.9634810 103.2327053  92.2225922
  49.1545739 101.1104368  91.8987239  48.5595671 101.3909380  91.2033727
  48.8695435 101.5998269  92.6703980  48.2853229 115.0627295  80.6589871
  49.2183902 114.9972856  80.8622747  48.1976442 115.8983561  80.2004404
  50.9141246 114.3793165  77.6193819  50.8354877 114.0453028  78.5129577
  51.7350913 114.8714933  77.6185291  53.6119437 107.2454904  90.8270137
  53.5795757 106.3070905  91.0129821  54.2220061 107.3238941  90.0935962
  45.4502768 106.1150957  76.8697341  46.3961873 105.9857165  76.9385759
  45.0717013 105.3765619  77.3466770  53.7613925 104.0365948  90.8728421
  53.2452974 103.2524404  90.6858349  54.6453874 103.7084664  91.0374940
  51.4224652  97.7806963  86.8324233  51.2249473  97.4722051  87.7167565
  52.0324358  98.5068602  86.9622163  59.4295987 108.3070911  89.9676174
  60.1599375 108.0456199  90.5283878  58.8202932 107.5699633  90.0078242
  57.5111284 106.4478774  90.5650625  56.7844447 106.3134739  89.9567117
  57.0958571 106.7555602  91.3707343  45.3341460 110.1668703  98.3297998
  46.2544470 110.3447302  98.5238045  45.2991043 109.2224749  98.1777698
  43.6345685 104.0400934  76.8052227  42.7277140 103.7434046  76.8814940
  43.9121666 103.7430752  75.9386513  34.5523625 105.3607297  87.2551273
  34.2326410 104.5072605  86.9625647  34.0057054 105.5755875  88.0109240
  38.3303533 108.0769738  90.9720780  38.5489543 109.0086846  90.9908813
  38.7429307 107.7177712  91.7575583  45.2507751  98.5837823  82.9596468
  44.4408479  98.2384908  83.3351714  45.9392168  98.2745367  83.5484080
  47.1798299  97.6615870  84.5820765  47.7329338  98.0811323  85.2410788
  47.4168385  96.7351618  84.6243721  43.2031398 103.6502944 100.3623529
  43.1028125 104.5997301 100.2935620  42.9852940 103.3221183  99.4899599
  42.4044470 100.8987869  76.9464206  43.2663634 101.2242767  77.2060023
  42.5894814 100.1119365  76.4337272  34.4211885 108.9810208  89.2244395
  33.7275357 108.5664161  88.7114349  35.1684876 109.0230745  88.6277814
  50.5577106  99.7716395  84.0899429  49.9775775 100.4301199  83.7077481
  50.2913039  98.9493740  83.6786846  49.0080672  99.1721453  86.2920749
  49.5080451  99.2837987  85.4835068  49.6516280  98.8682506  86.9321558
  43.0662668 107.0800083  99.1788590  42.5829750 107.8800443  99.3852479
  43.1523607 107.0908027  98.2256034  36.3348628 108.9128462  87.1010410
  36.3119316 109.0116149  86.1492293  36.6449264 109.7593613  87.4227576
  38.9936006 110.9704617  91.2157024  39.9479259 110.9388560  91.1486956
  38.7948529 110.5095241  92.0307250  39.5835388 109.5405733  93.7827822
  40.4028277 110.0349812  93.8062659  39.8572196 108.6237701  93.7545389
  49.3401984 101.9316486  83.1455777  48.4527839 102.2166136  82.9275972
  49.7555973 101.7710249  82.2983054  52.6916520 101.9563007  86.8610116
  53.4676910 102.4459459  87.1334733  51.9664654 102.3821061  87.3181986
  55.1289079 102.6690626  87.9184057  55.7233570 102.4286362  87.2077365
  55.2015663 101.9497756  88.5457593  37.3486235 116.5124237  88.2327222
  37.2140702 115.7524638  87.6665220  36.9318297 117.2365137  87.7656011
  48.4845198 111.6961160  77.2403797  49.1881048 111.9011163  77.8561453
  47.7607846 112.2637922  77.5052881  49.3143008 107.4471022  83.3606067
  49.2578209 107.9039573  82.5213700  49.8671350 106.6861706  83.1828910
  53.1247814 103.2360753  84.1856187  52.8684748 102.8357389  85.0164394
  52.5000682 103.9504547  84.0606326  57.4360152 105.9756827  86.6927478
  56.8759710 106.0450016  87.4659040  56.8303655 105.7997811  85.9726974
  40.5055360 117.4093554  88.4445664  40.3887745 118.3538986  88.3424355
  39.6847807 117.1067115  88.8331464  50.3931895 112.1343689  79.2902257
  51.2277499 111.7024888  79.1079732  50.2316238 111.9625703  80.2179152
  50.0477787 108.6375803  80.6558596  49.9926591 108.4720074  79.7147041
  49.4223842 109.3451836  80.8120786  34.8370302 103.8743867  94.4820019
  35.4829166 103.3642821  94.9707244  34.6287453 104.6112549  95.0563444
  47.3623694 110.9424715  99.9812159  48.2314854 111.1165367  99.6198794
  46.8830446 111.7619131  99.8587889  43.3573913  98.1383912  80.2343915
  43.3452582  99.0825752  80.3912186  44.2497334  97.9554057  79.9403376
  41.5309875 118.0621816  91.6601593  42.4337121 118.0945426  91.9768088
  41.3047245 117.1322267  91.6747929  43.2863477 116.8152802  88.3211672
  42.3359108 116.8154664  88.2076044  43.5895963 116.0685537  87.8047706
  39.1767793 101.0211484  98.5795033  40.0399255 100.6648289  98.7898357
  38.6033204 100.6825379  99.2670437  59.0216170 122.6513341  89.3857434
  59.6594580 122.5320088  88.6820774  58.9037013 123.5994185  89.4445386
  55.8305876 122.6040769  89.3218959  55.4924388 122.4881833  88.4339493
  56.6995644 122.2031934  89.3019965  56.3125659 123.7575620  95.2805164
  56.3014300 123.3628419  94.4085668  56.4746299 123.0241693  95.8738936
  53.5314156 121.3729016  78.6535899  53.7839676 120.8510537  77.8919362
  52.5938715 121.2095162  78.7562582  58.5757439 120.3764794  86.4610642
  59.3620528 119.9584218  86.1101059  58.8396143 121.2810887  86.6292290
  63.9765866 120.3140028  87.3643620  64.7091038 119.7439244  87.5981450
  63.2205221 119.9261628  87.8050126  55.5941985 122.7367269  84.5606963
  55.2300193 122.2097890  85.2719884  56.4509101 122.3465738  84.3873448
  61.4991286 114.0261602  91.8238229  61.1674611 114.8957013  91.5999444
  60.9036899 113.7097886  92.5032259  55.2347472 117.7657169  79.5568311
  55.4021875 118.6337405  79.9238782  55.0444641 117.9284451  78.6329601
  61.3919949 118.7456688  88.9031579  60.4836827 118.6772096  88.6090340
  61.3407545 119.2228633  89.7313405  55.2136693 120.2214826  80.5414978
  55.0936318 120.6671877  81.3800459  54.5189282 120.5700144  79.9828516
  55.4660815 120.1646333  96.8466476  54.6894149 120.7240254  96.8369341
  56.1051378 120.6503116  97.3681347  63.2581596 116.9473126  90.6809453
  62.6155976 117.2405659  90.0349248  62.7536524 116.8326047  91.4862650
  60.9121759 120.6936299  81.3695312  61.8239615 120.9263686  81.1943010
  60.4031406 121.2773344  80.8070391  59.1962527 125.1160927  95.0056605
  59.6045883 124.6743338  94.2611237  58.4739789 124.5413555  95.2590798
  55.5493597 120.0533534  92.3790162  56.3954792 120.4772948  92.5224811
  55.4892235 119.3967158  93.0728725  58.6993042 117.7137902  94.0371335
  58.4553974 118.4679963  93.5005611  58.9752973 118.0923250  94.8718583
  60.6531505 124.2576515  92.7148601  60.8648400 124.9008275  92.0382982
  60.6061253 123.4238831  92.2470531  58.2557734 116.8694335  89.6185173
  57.3942213 117.1675589  89.9101911  58.2820169 117.0864734  88.6866206
  54.0088190 121.5359678  82.8348544  54.7112233 121.9880722  83.3022470
  53.6768818 120.8943497  83.4628437  52.4568551 120.1271435  97.2099753
  51.8267212 120.8087716  97.4435150  52.3504639 120.0154517  96.2652892
  47.7513524 119.7943231  88.1365678  46.9612578 120.0500760  87.6605788
  48.2424771 120.6091569  88.2417718  49.7028269 120.1587810  85.0949154
  48.9059432 120.2706505  85.6132650  49.4753861 120.4974463  84.2290045
  69.8583326 123.4787219  87.2355930  69.1047035 122.9094617  87.0799934
  69.9930867 123.4449883  88.1826565  51.7349294 114.4292201  99.5725004
  51.3416239 113.8758399 100.2472649  52.5515434 114.7402779  99.9631522
  54.6517255 115.8450080  97.1645261  55.3926968 116.4457233  97.0849723
  54.8835178 115.1027718  96.6063304  49.7958593 121.0306447  95.4423491
  49.6812108 120.1291704  95.7430590  48.9403111 121.2770144  95.0908307
  58.5974418 111.8731183  91.4409543  58.2538687 112.7632825  91.3648653
  58.9653380 111.6832841  90.5779128  58.5624701 121.8639794  79.9481978
  58.0471324 122.6344399  80.1870365  58.2902009 121.1904930  80.5715039
  56.1471812 116.7089495  85.0067216  55.2913408 116.3196345  84.8272855
  56.5598763 116.7881456  84.1467002  57.6770958 114.2435838  89.4058776
  57.1735754 114.2065973  88.5926581  57.9701565 115.1528581  89.4655433
  53.9213844 114.3274568  88.4124958  54.7866841 114.1317376  88.0530847
  53.9891353 114.0984920  89.3394314  63.5358975 124.6172149  81.8835151
  62.7588417 124.2783308  81.4390313  64.2150456 124.6224772  81.2090116
  58.3511004 119.7366886  81.7741759  58.0461139 120.0513035  82.6251902
  59.3041446 119.8148306  81.8169092  61.7750282 124.0906130  88.5401759
  61.1173956 124.7805391  88.6281888  62.5790681 124.4802562  88.8835746
  51.5276163 116.5576776  85.7841324  52.1019915 116.3351957  85.0514517
  52.1147146 116.6265470  86.5369926  60.5855740 122.4450503  86.5905701
  61.0987622 123.0780494  87.0927411  61.2356964 121.8451698  86.2249061
  51.8545750 118.5881237  79.8037210  51.0183063 118.9255923  80.1246484
  51.7150520 118.4530217  78.8664347  53.8298831 113.4318025  84.5116394
  53.1763243 113.1167042  83.8873009  53.7879305 112.8093765  85.2376217
  54.9410036 123.7137320  76.4269686  54.0337097 123.4826573  76.6260835
  55.4381068 122.9174939  76.6143668  57.0636571 119.9199958  88.8364042
  56.1459133 120.1414905  88.6785730  57.4796715 119.9946269  87.9775749
  57.8471619 121.3191374  83.9666722  58.5943438 121.8312771  83.6573844
  58.1163209 120.9975427  84.8271115  56.1198269 123.8149915  80.9493676
  55.2109488 123.5308947  81.0466146  56.1493353 124.2348993  80.0896983
  60.2950456 118.3548490  85.9485511  59.5573213 117.8425876  86.2795754
  60.5477230 117.9148872  85.1368788  60.3962083 111.1324742  86.5427280
  60.7020960 110.2722106  86.2553195  61.1214688 111.7242362  86.3426274
  54.6683163 121.4278535  87.0503471  54.7231773 120.4752372  86.9745948
  53.8574365 121.5837974  87.5344770  52.6075523 120.0455595  84.8093850
  51.7943389 120.3449765  85.2159042  53.1034517 119.6511284  85.5268333
  58.2049735 120.5097419  93.6408744  58.5599123 120.7368893  94.5003210
  58.8521866 120.8415796  93.0186000  63.9347472 123.6315855  84.3458073
  63.7965370 123.8217451  83.4179262  63.5783691 124.3935238  84.8026124
  52.0989598 117.6173950  90.4255085  52.7388977 117.4762710  89.7278049
  51.2667128 117.3308464  90.0493687  63.9616851 125.6992382  89.3569345
  64.3953358 125.6067671  90.2052399  64.6748432 125.6749883  88.7189361
  49.1832665 121.0619463  82.6149830  48.2530253 121.0003918  82.8319793
  49.2790137 120.5395415  81.8186472  49.1018214 117.5874275  85.2028072
  49.3625032 118.5019609  85.0937233  49.9235387 117.1198718  85.3524685
  50.5743140 119.0012033  92.3726897  51.2466193 118.7929395  91.7239546
  49.7472926 118.8034119  91.9332129  64.8232401 125.7416083  91.8902230
  65.0168291 126.6461893  92.1361505  64.7233019 125.2823502  92.7240815
  56.4768712 115.6273974  94.3892557  55.8296627 116.3263923  94.2957034
  57.2469727 116.0610117  94.7568806  56.6532846 123.4654738  92.4489377
  57.5824906 123.6165898  92.2758345  56.2323876 123.5538759  91.5938024
  50.9770637 122.2754636  93.1329334  50.8390435 121.5434874  93.7340873
  51.8875560 122.1863536  92.8513522  59.9385585 124.2143040  77.8813812
  59.3214755 123.4889868  77.7846865  59.4702073 124.9752400  77.5380887
  53.6052938 121.9874595  92.6213013  54.3152556 121.3467787  92.5799632
  53.5622246 122.2387490  93.5439194  52.3181872 118.9739813  94.4408653
  51.7819229 118.5230551  95.0930249  51.7298580 119.1085722  93.6979117
  51.7284130 118.4328464  77.0035117  50.8513597 118.3117265  76.6397363
  52.2041884 117.6414542  76.7514005  48.0520993 118.1095820  91.5261647
  47.9679181 117.5021490  90.7912057  47.2303699 118.6004839  91.5271144
  58.2244707 116.5949384  86.8931842  58.7213406 115.8419346  86.5732913
  57.4531688 116.6313701  86.3275052  66.0774464 122.2989750  88.5350134
  66.0664340 123.1814465  88.1644067  65.2091843 121.9461300  88.3404671
  54.8079675 118.7366767  86.6203527  54.4377463 118.1837807  87.3084433
  55.3038768 118.1324900  86.0678527  62.6947039 121.1938390  85.0020300
  63.1607491 122.0266382  84.9280603  63.1454539 120.7283372  85.7065558
  60.6663701 113.5618977  89.0411201  59.7526781 113.7923204  89.2093408
  61.0956803 113.6457422  89.8925234  60.4370160 121.7508869  91.5411095
  59.7841610 121.9984777  90.8863548  60.8150540 120.9373008  91.2073573
  56.4857733 122.4928681  98.0277132  55.8098370 122.3922810  98.6979508
  57.3085367 122.3367894  98.4913130  50.2045009 116.1470758  92.8656633
  50.2686336 117.0085589  92.4534031  50.1412129 115.5344759  92.1328992
  49.6797282 118.2193890  96.5129667  50.3069320 117.8370968  97.1267192
  48.8225200 118.0008092  96.8785360  46.4562824 120.0270319  82.4448022
  46.7516265 119.1180998  82.3915076  45.5550860 120.0058059  82.1229025
  49.9857071 118.1026316  88.4275571  49.2643657 118.7162284  88.2883044
  50.7750327 118.6384081  88.3492217  52.7883385 115.4380742  94.7016223
  53.3117787 115.6843039  95.4642532  52.5695718 116.2700777  94.2819360
  48.1850666 117.7084417  82.5687347  47.8563372 116.8281796  82.3862453
  48.5390037 117.6532086  83.4563737  51.2992489 117.9957387  82.9362825
  51.6388562 118.5243308  82.2141433  51.7464610 118.3337793  83.7121392
  53.9935930 116.3794438  92.3865893  53.6532750 115.5802251  92.7886573
  53.2874936 116.6796148  91.8142726  54.6452402 113.4643750  90.8393216
  55.4678471 112.9904228  90.7172106  54.8890465 114.2434234  91.3391902
  53.2860636 116.4932008  81.1356118  54.0068999 116.8713261  80.6319835
  52.6625940 117.2120885  81.2391096  57.4291759 117.1977157  82.0714450
  57.6455373 118.0801795  81.7703278  56.9485826 116.8063371  81.3420092
  52.1690980 120.1562871  88.6485195  52.0235561 120.4703174  89.5409476
  51.6916184 120.7747771  88.0956093  54.0287363 117.1465419  88.6966084
  54.0148932 116.2506512  88.3598382  54.7459791 117.1536082  89.3304370
  55.8813494 117.5802759  90.7419212  55.6231272 118.5019829  90.7403542
  55.3498534 117.1833193  91.4319676  53.4324259 116.0279799  83.9653654
  53.5540170 115.0996445  84.1644542  53.1426302 116.0418485  83.0531970
  56.3015450 113.7134709  87.1020374  56.3237147 113.7774042  86.1472354
  56.7183509 112.8739218  87.2960880  66.6799074 123.4489969  85.1399597
  67.1230220 122.6997294  84.7418720  65.8025584 123.4400105  84.7573329
  52.9165339 117.5411796  98.1743587  52.9653494 118.4173919  97.7921357
  53.4587853 116.9989189  97.6015230  63.5218060 124.9345386  94.7677453
  63.5716064 124.7695393  95.7092975  63.4131983 124.0672645  94.3775333
  60.8121822 120.9176314  96.0836759  61.7131685 120.7782779  95.7920757
  60.8869796 121.0830769  97.0234937  55.1464627 118.2943169  94.9289946
  54.2767937 118.5876735  94.6572534  55.3824108 118.8783614  95.6497209
  66.2231939 124.9195207  87.5322044  67.0578830 125.3585011  87.6959605
  66.3591068 124.4433860  86.7130290  63.2723445 122.4774942  93.4799532
  63.7477566 122.6702588  92.6718384  62.3489010 122.5334128  93.2342916
  57.8503661 114.5122786  92.4455366  58.3685605 115.2483813  92.1201855
  57.4958794 114.8186779  93.2802125  49.4302599 119.3727467  80.5616772
  48.7371844 119.4471822  79.9056808  49.1854351 118.6087810  81.0838289
  58.1016255 110.9323068  87.9656263  58.3818009 110.2646257  88.5916689
  58.8866862 111.1252164  87.4530926  61.9725114 119.3540702  91.7127838
  62.9242537 119.4538800  91.7340062  61.8028564 118.5618971  92.2225922
  59.9939493 116.4396285  91.8987239  59.3989425 116.7201298  91.2033727
  59.7089190 116.9290186  92.6703980  64.4513191 122.5746822  90.8270137
  64.4189512 121.6362823  91.0129821  65.0613815 122.6530859  90.0935962
  56.2896522 121.4442875  76.8697341  57.2355627 121.3149083  76.9385759
  55.9110767 120.7057537  77.3466770  64.6007680 119.3657865  90.8728421
  64.0846729 118.5816322  90.6858349  65.4847628 119.0376582  91.0374940
  62.2618407 113.1098881  86.8324233  62.0643228 112.8013969  87.7167565
  62.8718112 113.8360520  86.9622163  70.2689741 123.6362829  89.9676174
  70.9993130 123.3748117  90.5283878  69.6596687 122.8991551  90.0078242
  68.3505038 121.7770691  90.5650625  67.6238202 121.6426656  89.9567117
  67.9352325 122.0847520  91.3707343  54.4739439 119.3692851  76.8052227
  53.5670895 119.0725964  76.8814940  54.7515420 119.0722669  75.9386513
  56.0901505 113.9129741  82.9596468  55.2802233 113.5676826  83.3351714
  56.7785922 113.6037285  83.5484080  58.0192053 112.9907788  84.5820765
  58.5723092 113.4103241  85.2410788  58.2562140 112.0643536  84.6243721
  54.0425153 118.9794861 100.3623529  53.9421880 119.9289218 100.2935620
  53.8246695 118.6513100  99.4899599  53.2438224 116.2279786  76.9464206
  54.1057388 116.5534685  77.2060023  53.4288568 115.4411282  76.4337272
  61.3970861 115.1008313  84.0899429  60.8169530 115.7593117  83.7077481
  61.1306793 114.2785657  83.6786846  59.8474427 114.5013371  86.2920749
  60.3474205 114.6129905  85.4835068  60.4910035 114.1974423  86.9321558
  53.9056423 122.4092000  99.1788590  53.4223504 123.2092360  99.3852479
  53.9917362 122.4199945  98.2256034  60.1795739 117.2608403  83.1455777
  59.2921594 117.5458054  82.9275972  60.5949728 117.1002167  82.2983054
  63.5310275 117.2854924  86.8610116  64.3070665 117.7751377  87.1334733
  62.8058409 117.7112978  87.3181986  65.9682833 117.9982543  87.9184057
  66.5627324 117.7578279  87.2077365  66.0409417 117.2789674  88.5457593
  60.1536762 122.7762939  83.3606067  60.0971964 123.2331491  82.5213700
  60.7065105 122.0153624  83.1828910  63.9641568 118.5652671  84.1856187
  63.7078502 118.1649307  85.0164394  63.3394436 119.2796465  84.0606326
  68.2753906 121.3048744  86.6927478  67.7153464 121.3741934  87.4659040
  67.6697409 121.1289729  85.9726974  60.8871542 123.9667720  80.6558596
  60.8320345 123.8011992  79.7147041  60.2617597 124.6743753  80.8120786
  45.6764057 119.2035785  94.4820019  46.3222920 118.6934739  94.9707244
  45.4681208 119.9404466  95.0563444  54.1967667 113.4675829  80.2343915
  54.1846337 114.4117669  80.3912186  55.0891089 113.2845975  79.9403376
  58.0119787 110.0618606  84.4889852  57.2452182 109.5077093  84.6346534
  58.4230491 110.1340475  85.3504003  50.0161548 116.3503402  98.5795033
  50.8793009 115.9940207  98.7898357  49.4426958 116.0117297  99.2670437
  69.4368172 127.2023101  91.4409543  69.0932442 128.0924742  91.3648653
  69.8047135 127.0124758  90.5779128  71.2355838 126.4616660  86.5427280
  71.5414715 125.6014023  86.2553195  71.9608443 127.0534280  86.3426274
  71.5057456 128.8910895  89.0411201  70.5920536 129.1215122  89.2093408
  71.9350557 128.9749339  89.8925234  68.9410010 126.2614986  87.9656263
  69.2211764 125.5938175  88.5916689  69.7260617 126.4544081  87.4530926
  73.1012161 128.4390799  86.8324233  72.9036982 128.1305887  87.7167565
  73.7111867 129.1652437  86.9622163  68.8585808 128.3199705  84.5820765
  69.4116847 128.7395159  85.2410788  69.0955894 127.3935454  84.6243721
  68.8513541 125.3910524  84.4889852  68.0845937 124.8369010  84.6346534
  69.2624246 125.4632393  85.3504003   4.8247399  23.0115875  76.1102741
   5.4625809  22.8922622  75.4066081   4.7068242  23.9596719  76.1690693
   1.6337105  22.9643303  76.0464265   1.2955617  22.8484368  75.1584800
   2.5026873  22.5634468  76.0265271   2.1156888  24.1178155  82.0050471
   2.1045529  23.7230953  81.1330974   2.2777528  23.3844227  82.5984242
   3.0723480  28.4849747  67.3475621   2.4211459  29.0703827  66.9609635
   3.8667842  29.0155942  67.4070659   4.3788667  20.7367329  73.1855949
   5.1651757  20.3186752  72.8346366   4.6427372  21.6413421  73.3537597
   4.5498745  26.1740179  67.8844605   3.9144578  26.2474805  68.5965510
   4.2196151  26.7633778  67.2063685   9.7797094  20.6742562  74.0888927
  10.5122266  20.1041779  74.3226757   9.0236450  20.2864162  74.5295433
   1.3973214  23.0969803  71.2852270   1.0331421  22.5700424  71.9965191
   2.2540330  22.7068272  71.1118755   7.3022515  14.3864136  78.5483536
   6.9705840  15.2559547  78.3244751   6.7068128  14.0700420  79.2277566
   1.0378701  18.1259703  66.2813618   1.2053104  18.9939939  66.6484089
   0.8475870  18.2886985  65.3574907   3.7954034  26.5876682  77.9479448
   3.4954757  27.4901721  77.8395256   3.4505094  26.3208865  78.8000601
   7.1951178  19.1059222  75.6276886   6.2868055  19.0374631  75.3335647
   7.1438774  19.5831167  76.4558711   1.2692044  20.5248868  83.5711783
   0.4925378  21.0842788  83.5614648   1.9082607  21.0105651  84.0926653
   9.0612825  17.3075661  77.4054760   8.4187205  17.6008194  76.7594554
   8.5567753  17.1928581  78.2107956   6.7152988  21.0538834  68.0940619
   7.6270844  21.2866220  67.9188317   6.2062635  21.6375878  67.5315698
   4.9993756  25.4763462  81.7301912   5.4077112  25.0345872  80.9856544
   4.2771017  24.9016089  81.9836104   1.3524826  20.4136068  79.1035468
   2.1986021  20.8375482  79.2470117   1.2923464  19.7569693  79.7974032
   5.3222570  26.0364652  75.4854200   4.6931433  26.2010366  74.7830268
   4.9348233  26.4506262  76.2565164   9.2011802  26.9719090  72.8398564
   8.5162841  27.3517991  72.2895597   9.2855652  27.5814417  73.5730512
   4.5024271  18.0740437  80.7616642   4.2585203  18.8282497  80.2250918
   4.7784202  18.4525784  81.5963889   6.4562734  24.6179049  79.4393908
   6.6679629  25.2610809  78.7628289   6.4092482  23.7841366  78.9715838
   4.0588963  17.2296870  76.3430480   3.1973442  17.5278123  76.6347217
   4.0851398  17.4467269  75.4111512   0.8750532  25.7739060  72.7504286
   1.3388878  26.0526763  71.9608908   0.6107330  24.8722505  72.5677376
   7.5708562  27.4951004  77.6116265   8.3926006  27.0931192  77.3298947
   7.5670965  27.3919239  78.5632381   1.3365165  27.0435048  79.7676976
   1.4009598  27.5055455  80.6035147   0.6276089  26.4132413  79.8959285
  15.6614555  23.8389753  73.9601237  14.9078263  23.2697151  73.8045241
  15.7962096  23.8052417  74.9071871   1.0513183  28.7103155  69.6355956
   0.9158858  29.5554691  70.0640804   1.5922996  28.9122433  68.8721890
   2.6781659  29.3326722  83.7656298   2.2345514  28.5463100  83.4477202
   3.3398873  29.5205872  83.1000189   4.7762897  29.6129522  81.7937699
   4.7581373  30.4338403  81.3017968   5.6982818  29.4883597  82.0187840
   1.2335952  27.1273651  82.6361208   1.7664288  26.3661939  82.4060516
   0.7050033  26.8347303  83.3785362   4.3655929  22.2242328  66.6727284
   3.8502553  22.9946933  66.9115672   4.0933238  21.5507464  67.2960346
   9.3390203  24.9774683  68.6080458   8.5619646  24.6385842  68.1635620
  10.0181684  24.9827306  67.9335423   4.1542232  20.0969420  68.4987066
   3.8492368  20.4115570  69.3497209   5.1072675  20.1750840  68.5414399
   2.5988664  26.2559644  70.1480020   2.0710026  25.5212403  69.8353257
   2.0976167  27.0334320  69.9019988   7.5781510  24.4508664  75.2647066
   6.9205185  25.1407926  75.3527195   8.3821910  24.8405096  75.6081052
   6.3886969  22.8053037  73.3151008   6.9018851  23.4383029  73.8172717
   7.0388193  22.2054232  72.9494368   3.6509343  32.7837361  66.0711679
   2.9771042  33.0869058  66.6796637   4.0375165  33.5866441  65.7217136
   2.8667800  20.2802492  75.5609348   1.9490361  20.5017439  75.4031036
   3.2827944  20.3548803  74.7021056   3.6502848  21.6793908  70.6912028
   4.3974667  22.1915305  70.3819150   3.9194437  21.3577961  71.5516422
   1.9229498  24.1752449  67.6738983   1.0140717  23.8911482  67.7711452
   1.9524582  24.5951527  66.8142290   7.1548765  27.7859038  71.4430150
   6.7011092  26.9449948  71.4995341   6.5242732  28.4220437  71.7804930
   6.0981685  18.7151024  72.6730818   5.3604442  18.2028411  73.0041060
   6.3508458  18.2751406  71.8614095   5.5981705  29.6235535  72.3779968
   5.8904679  30.1840592  71.6592334   6.1080325  29.9164096  73.1333128
   1.6205586  25.7161192  65.0127061   1.1825016  24.9997051  64.5532699
   2.3616027  25.9437307  64.4512153   0.5615330  30.4015886  73.4673422
   0.5191509  30.6276732  72.5381954   1.4778029  30.1679261  73.6159223
   4.0080964  20.8699954  80.3654051   4.3630351  21.0971427  81.2248517
   4.6553095  21.2018330  79.7431306   9.7378701  23.9918389  71.0703380
   9.5996599  24.1819985  70.1424569   9.3814919  24.7537772  71.5271431
   9.7648080  26.0594916  76.0814651  10.1984587  25.9670206  76.9297705
  10.4779661  26.0352417  75.4434667   3.4975975  29.6597011  77.6147752
   3.5512997  30.2287947  78.3825468   2.6290756  29.8298896  77.2501789
  10.6263630  26.1018617  78.6147537  10.8199520  27.0064428  78.8606812
  10.5264248  25.6426036  79.4486122   5.6878738  26.2525360  84.1888417
   5.5364245  26.0235912  83.2718501   5.6783418  27.2095961  84.2019762
   2.4564075  23.8257273  79.1734684   3.3856135  23.9768432  79.0003651
   2.0355105  23.9141293  78.3183330   1.8500559  32.9517034  68.2858758
   2.0252314  32.4805077  69.1004381   1.1633347  33.5782800  68.5140019
   2.8057622  27.2289540  74.3322059   2.4707454  27.1890310  75.2279709
   2.3061567  26.5634256  73.8592469   5.7416813  24.5745574  64.6059119
   5.1245984  23.8492402  64.5092172   5.2733302  25.3354934  64.2626193
   7.3970945  29.2844482  82.2664899   7.3383491  28.6003703  81.5995482
   7.7990463  30.0263472  81.8145525   7.3988352  27.2484066  80.4978879
   6.5115131  26.9109988  80.6205278   7.9686903  26.5167098  80.7347644
   0.9289506  31.9085519  77.4640122   0.8559677  32.7140490  77.9759427
   0.4866899  32.1077485  76.6388144   4.0275935  16.9551918  73.6177149
   4.5244635  16.2021881  73.2978219   3.2562917  16.9916235  73.0520358
  11.8805693  22.6592284  75.2595441  11.8695569  23.5416999  74.8889374
  11.0123072  22.3063835  75.0649978   3.3888189  31.8072353  79.6198281
   4.1016161  32.4419818  79.5474182   2.8978218  31.9036219  78.8038283
   5.1105716  25.7123605  71.1915572   4.1761995  25.8325068  71.0220277
   5.2882385  24.8096072  70.9275582   8.4978267  21.5540925  71.7265607
   8.9638720  22.3868916  71.6525909   8.9485768  21.0885906  72.4310865
   6.5654499  27.8984746  68.7251759   6.8414342  27.7841341  69.6345633
   5.6958997  27.5002231  68.6863932   6.2401389  22.1111404  78.2656402
   5.5872839  22.3587311  77.6108855   6.6181769  21.2975542  77.9318879
   3.2008563  32.1471097  72.3684572   3.3830957  31.3292753  72.8312325
   4.0241549  32.3638789  71.9309462   3.5350728  31.0739282  69.6299621
   4.0638495  30.5631737  69.0169783   3.7978948  30.7581812  70.4945154
   2.2888962  22.8531215  84.7522439   1.6129599  22.7525344  85.4224814
   3.1116596  22.6970428  85.2158436   1.0311745  34.1598142  78.9880055
   1.5830053  34.3229764  79.7529140   1.3717938  34.7502580  78.3160080
   5.8822619  28.9859400  84.8428709   6.4262523  29.5989358  84.3483664
   5.3009464  29.5438978  85.3595722   4.1680132  32.1080118  75.9743737
   4.0431271  31.3069858  75.4654683   4.8259223  32.6026311  75.4857707
   6.2315040  29.9089138  77.6023287   5.2845376  29.7894489  77.5301614
   6.5797813  29.0211636  77.6849549   3.2361474  29.7041854  73.8027640
   3.0886436  28.7758561  73.9835210   4.0614967  29.7261945  73.3184715
   6.8395595  30.5270413  74.8892512   7.7642143  30.3213274  74.7516963
   6.6710899  30.2786814  75.7981854   3.2322988  17.5579692  68.7959757
   3.4486602  18.4404330  68.4948585   2.7517055  17.1665905  68.0665399
   6.6290912  31.0456080  70.2454604   6.8027789  30.4802503  69.4928456
   7.1219803  31.8456975  70.0634094  12.4830303  23.8092503  71.8644903
  12.9261449  23.0599828  71.4664027  11.6056813  23.8002639  71.4818635
   7.6166084  30.3622845  67.3451502   8.3116989  30.9829537  67.5638817
   7.9589234  29.5118196  67.6203880   9.5157507  27.8122550  68.8738833
  10.0408831  28.1509823  68.1488153   9.4279860  26.8769565  68.6901967
   1.1777556  31.7256624  81.0028709   1.4864682  31.4805771  81.8751409
   1.9753038  31.9303262  80.5147580   1.1998168  33.8794533  73.2334086
   0.7603158  33.3870912  73.9266943   1.9506285  33.3367501  72.9926161
   9.2051413  28.4455454  84.1790031   8.4146957  28.4279593  83.6394530
   8.9684768  28.9843747  84.9339067   9.3249288  25.2947920  81.4922759
   9.3747293  25.1297928  82.4338282   9.2163212  24.4275179  81.1020640
   6.6153051  21.2778848  82.8082066   7.5162914  21.1385313  82.5166064
   6.6901025  21.4433303  83.7480243  10.8267485  27.7144862  81.7364781
  10.5352294  28.0774842  82.5728242  10.2139616  27.0011870  81.5578113
  12.0263168  25.2797741  74.2567351  12.8610059  25.7187545  74.4204911
  12.1622296  24.8036395  73.4375597   9.0754673  22.8377476  80.2044839
   9.5508795  23.0305123  79.3963690   8.1520239  22.8936662  79.9588222
   1.7080953  30.4684596  66.2526596   1.1354920  31.0874783  65.7997067
   2.2813746  31.0183958  66.7866518   7.7756342  19.7143236  78.4373144
   8.7273765  19.8141334  78.4585368   7.6059793  18.9221505  78.9471229
   5.7970722  16.7998820  78.6232545   5.2020654  17.0803832  77.9279034
   5.5120419  17.2892721  79.3949286   4.9278212  30.7521746  67.3835178
   5.8608886  30.6867308  67.5868053   4.8401425  31.5878013  66.9249711
   7.5566229  30.0687617  64.3439125   7.4779861  29.7347480  65.2374883
   8.3775896  30.5609385  64.3430598  10.2544420  22.9349356  77.5515444
  10.2220740  21.9965357  77.7375128  10.8645044  23.0133393  76.8181269
   2.0927751  21.8045409  63.5942648   3.0386856  21.6751617  63.6631066
   1.7141996  21.0660071  64.0712076  10.4038909  19.7260399  77.5973727
   9.8877957  18.9418856  77.4103656  11.2878857  19.3979116  77.7620247
   8.0649636  13.4701415  73.5569540   7.8674457  13.1616503  74.4412872
   8.6749341  14.1963054  73.6867470  16.0720970  23.9965363  76.6921481
  16.8024359  23.7350651  77.2529184  15.4627916  23.2594085  76.7323549
  14.1536267  22.1373225  77.2895932  13.4269431  22.0029190  76.6812424
  13.7383554  22.4450054  78.0952650   1.9766444  25.8563155  85.0543305
   2.8969453  26.0341754  85.2483352   1.9416027  24.9119201  84.9023004
   7.2002089  15.4610847  70.8144736   6.6200758  16.1195651  70.4322788
   6.9338022  14.6388192  70.4032153   5.6505656  14.8615905  73.0166056
   6.1505434  14.9732439  72.2080375   6.2941264  14.5576958  73.6566864
   5.9826967  17.6210937  69.8701084   5.0952822  17.9060588  69.6521279
   6.3980956  17.4604701  69.0228361   9.3341503  17.6457458  73.5855423
  10.1101894  18.1353911  73.8580040   8.6089638  18.0715513  74.0427293
  11.7714062  18.3585078  74.6429364  12.3658553  18.1180814  73.9322672
  11.8440646  17.6392208  75.2702900   5.1270181  27.3855612  63.9649104
   5.8306031  27.5905615  64.5806759   4.4032830  27.9532374  64.2298187
   5.9567991  23.1365473  70.0851374   5.9003193  23.5934025  69.2459006
   6.5096334  22.3756158  69.9074217   9.7672797  18.9255205  70.9101493
   9.5109731  18.5251841  71.7409701   9.1425665  19.6398999  70.7851633
  14.0785135  21.6651279  73.4172785  13.5184693  21.7344468  74.1904347
  13.4728638  21.4892263  72.6972281   7.0356878  27.8238141  66.0147564
   7.8702482  27.3919340  65.8325039   6.8741221  27.6520155  66.9424458
   6.6902770  24.3270255  67.3803903   6.6351574  24.1614526  66.4392347
   6.0648826  25.0346288  67.5366093   4.0048678  26.6319167  86.7057466
   4.8739837  26.8059819  86.3444101   3.5255429  27.4513583  86.5833195
  15.6641153  38.3407792  76.1102741  16.3019563  38.2214540  75.4066081
  15.5461996  39.2888636  76.1690693  12.4730860  38.2935221  76.0464265
  12.1349371  38.1776285  75.1584800  13.3420628  37.8926386  76.0265271
   8.3317675  40.1470697  72.0361156   7.7682540  40.0560634  71.2677444
   8.2170070  39.3270601  72.5163649  12.9550643  39.4470072  82.0050471
  12.9439283  39.0522871  81.1330974  13.1171282  38.7136145  82.5984242
   5.8782107  41.6421889  74.8745377   6.6703399  41.3012713  74.4591676
   6.1178757  41.7516864  75.7947530  13.9117234  43.8141665  67.3475621
  13.2605214  44.3995745  66.9609635  14.7061597  44.3447860  67.4070659
   7.8372861  40.9030802  67.7462755   8.6103737  40.3559789  67.6075631
   8.1898260  41.7675051  67.9577217   9.6757904  42.2307184  80.9529655
   9.3847770  43.1352815  80.8376321  10.3114888  42.2723712  81.6673724
  10.6014111  39.6084033  77.5431014  11.1977683  39.3840055  76.8287977
  10.6589082  38.8668778  78.1456462  10.1739139  37.0623468  65.3781205
  10.4264660  36.5404989  64.6164668   9.2363698  36.8989613  65.4807889
  15.2182422  36.0659246  73.1855949  16.0045511  35.6478669  72.8346366
  15.4821126  36.9705338  73.3537597  15.3892499  41.5032097  67.8844605
  14.7538332  41.5766723  68.5965510  15.0589906  42.0925695  67.2063685
  20.6190849  36.0034480  74.0888927  21.3516021  35.4333696  74.3226757
  19.8630205  35.6156080  74.5295433   9.8935428  38.9651574  67.5805580
   9.7771686  38.2896477  68.2486665  10.0037688  38.4783948  66.7637733
  12.2366969  38.4261721  71.2852270  11.8725176  37.8992342  71.9965191
  13.0934085  38.0360190  71.1118755  18.1416269  29.7156054  78.5483536
  17.8099594  30.5851465  78.3244751  17.5461883  29.3992338  79.2277566
  11.8772456  33.4551621  66.2813618  12.0446858  34.3231857  66.6484089
  11.6869625  33.6178902  65.3574907  14.6347789  41.9168600  77.9479448
  14.3348512  42.8193638  77.8395256  14.2898848  41.6500783  78.8000601
   8.0860270  38.3682396  73.9816153   7.1610767  38.2358611  74.1893845
   8.3344684  39.1476616  74.4786095  18.0344933  34.4351140  75.6276886
  17.1261810  34.3666548  75.3335647  17.9832528  34.9123085  76.4558711
  11.8561677  35.9109278  67.2660285  11.7361302  36.3566329  68.1045765
  11.1614265  36.2594596  66.7073823   5.4469081  38.0115670  74.8159942
   5.5761463  38.2650149  75.7299354   4.7666533  38.6043378  74.4964597
   9.6168569  48.6812920  70.9150416   9.5392598  49.6320745  70.9938897
   9.0130212  48.3358792  71.5725342  12.1085798  35.8540785  83.5711783
  11.3319132  36.4134706  83.5614648  12.7476361  36.3397568  84.0926653
  19.9006579  32.6367578  77.4054760  19.2580959  32.9300111  76.7594554
  19.3961508  32.5220499  78.2107956  17.5546743  36.3830751  68.0940619
  18.4664599  36.6158138  67.9188317  17.0456390  36.9667796  67.5315698
  10.3632171  38.6626239  83.1329750  11.1046855  39.2011283  82.8564574
   9.6569156  39.2892527  83.2901302  15.8387510  40.8055379  81.7301912
  16.2470866  40.3637790  80.9856544  15.1164772  40.2308007  81.9836104
  12.1918580  35.7427986  79.1035468  13.0379776  36.1667400  79.2470117
  12.1317218  35.0861610  79.7974032  16.1616325  41.3656570  75.4854200
  15.5325187  41.5302284  74.7830268  15.7741987  41.7798179  76.2565164
  20.0405557  42.3011008  72.8398564  19.3556595  42.6809909  72.2895597
  20.1249406  42.9106334  73.5730512  15.3418026  33.4032354  80.7616642
  15.0978958  34.1574415  80.2250918  15.6177956  33.7817702  81.5963889
  17.2956488  39.9470967  79.4393908  17.5073384  40.5902727  78.7628289
  17.2486237  39.1133283  78.9715838  14.8982717  32.5588787  76.3430480
  14.0367196  32.8570041  76.6347217  14.9245152  32.7759186  75.4111512
  11.7144287  41.1030978  72.7504286  12.1782632  41.3818681  71.9608908
  11.4501085  40.2014423  72.5677376   8.6068368  40.6502459  75.6884049
   9.1769725  41.0789728  75.0501533   9.1976480  40.3685044  76.3868234
  10.6513173  37.2254130  69.5593851  11.3537216  37.6775174  70.0267777
  10.3193801  36.5837949  70.1873744   9.0993534  35.8165887  83.9345060
   8.4692195  36.4982168  84.1680457   8.9929622  35.7048969  82.9898198
   4.3938507  35.4837683  74.8610984   3.6037561  35.7395211  74.3851095
   4.8849754  36.2986021  74.9663025  18.4102316  42.8242922  77.6116265
  19.2319760  42.4223109  77.3298947  18.4064719  42.7211156  78.5632381
   6.3453252  35.8482262  71.8194461   5.5484416  35.9600956  72.3377957
   6.1178844  36.1868914  70.9535351  12.1758920  42.3726965  79.7676976
  12.2403352  42.8347373  80.6035147  11.4669844  41.7424330  79.8959285
   2.6776210  35.7368173  77.2925975   2.9284248  36.6215183  77.5583551
   3.2135758  35.5572775  76.5201067  26.5008309  39.1681671  73.9601237
  25.7472018  38.5989069  73.8045241  26.6355851  39.1344335  74.9071871
  11.8906938  44.0395073  69.6355956  11.7552612  44.8846609  70.0640804
  12.4316750  44.2414351  68.8721890   8.3774277  30.1186653  86.2970311
   7.9841223  29.5652851  86.9717955   9.1940417  30.4297231  86.6876829
   5.3436335  41.5570511  70.2083881   5.8560855  42.3513761  70.3589446
   5.9959048  40.8596801  70.1417482   7.1531220  44.6736267  72.2906634
   7.3297848  45.5954232  72.1027618   7.9488053  44.3594686  72.7201014
  11.2942238  31.5344532  83.8890568  12.0351952  32.1351685  83.8095030
  11.5260161  30.7922170  83.3308610   6.4383576  36.7200899  82.1668797
   6.3237091  35.8186156  82.4675896   5.5828094  36.9664596  81.8153614
  13.5175414  44.6618639  83.7656298  13.0739268  43.8755018  83.4477202
  14.1792627  44.8497790  83.1000189   8.2762535  46.1914441  78.2916976
   8.8269960  46.0631504  77.5193970   7.4374011  46.4909330  77.9411869
  15.6156652  44.9421439  81.7937699  15.5975127  45.7630320  81.3017968
  16.5376572  44.8175515  82.0187840  12.0729706  42.4565569  82.6361208
  12.6058043  41.6953857  82.4060516  11.5443787  42.1639221  83.3785362
  15.2399401  27.5625635  78.1654849  14.8963670  28.4527276  78.0893960
  15.6078364  27.3727292  77.3024434   3.3085252  39.8859165  70.9843451
   4.1460474  40.2956174  70.7677159   3.4863519  38.9458607  70.9543645
  15.2049684  37.5534246  66.6727284  14.6896307  38.3238851  66.9115672
  14.9326992  36.8799382  67.2960346  12.7896795  32.3983947  71.7312523
  11.9338391  32.0090797  71.5518162  13.2023747  32.4775907  70.8712308
  14.3195941  29.9330290  76.1304083  13.8160737  29.8960425  75.3171888
  14.6126548  30.8423033  76.1900739  10.5638827  30.0169020  75.1370264
  11.4291824  29.8211828  74.7776154  10.6316336  29.7879371  76.0639621
  20.1783958  40.3066601  68.6080458  19.4013401  39.9677760  68.1635620
  20.8575439  40.3119224  67.9335423  14.9935987  35.4261338  68.4987066
  14.6886123  35.7407487  69.3497209  15.9466429  35.5042758  68.5414399
  13.4382419  41.5851561  70.1480020  12.9103780  40.8504321  69.8353257
  12.9369922  42.3626238  69.9019988  18.4175265  39.7800582  75.2647066
  17.7598939  40.4699843  75.3527195  19.2215664  40.1697014  75.6081052
   8.1701146  32.2471228  72.5086631   8.7444898  32.0246409  71.7759824
   8.7572129  32.3159922  73.2615232  17.2280724  38.1344954  73.3151008
  17.7412605  38.7674946  73.8172717  17.8781948  37.5346150  72.9494368
   8.4970734  34.2775689  66.5282516   7.6608046  34.6150375  66.8491791
   8.3575503  34.1424668  65.5909653  10.4723814  29.1212476  71.2361701
   9.8188226  28.8061494  70.6118315  10.4304288  28.4988217  71.9621523
  11.5835019  39.4031772  63.1514993  10.6762081  39.1721025  63.3506142
  12.0806051  38.6069391  63.3388974  14.4903098  48.1129279  66.0711679
  13.8164797  48.4160976  66.6796637  14.8768920  48.9158359  65.7217136
  13.7061555  35.6094410  75.5609348  12.7884116  35.8309357  75.4031036
  14.1221698  35.6840721  74.7021056  14.4896602  37.0085826  70.6912028
  15.2368421  37.5207223  70.3819150  14.7588192  36.6869878  71.5516422
  12.7623252  39.5044366  67.6738983  11.8534472  39.2203399  67.7711452
  12.7918336  39.9243445  66.8142290  17.9942520  43.1150956  71.4430150
  17.5404847  42.2741866  71.4995341  17.3636487  43.7512354  71.7804930
  16.9375439  34.0442942  72.6730818  16.1998196  33.5320328  73.0041060
  17.1902213  33.6043324  71.8614095  16.4375459  44.9527453  72.3779968
  16.7298433  45.5132510  71.6592334  16.9474080  45.2456014  73.1333128
  17.0387067  26.8219194  73.2672587  17.3445944  25.9616557  72.9798502
  17.7639672  27.4136814  73.0671581   3.3311423  37.2249881  71.6554185
   3.1335823  36.6319241  70.9305252   2.7758087  36.9202091  72.3730124
  11.3108146  37.1172987  73.7748778  11.3656756  36.1646823  73.6991255
  10.4999349  37.2732426  74.2590077  12.4599340  41.0453110  65.0127061
  12.0218770  40.3288969  64.5532699  13.2009781  41.2729225  64.4512153
   9.2500506  35.7350047  71.5339157   8.4368372  36.0344217  71.9404349
   9.7459501  35.3405736  72.2513639  11.4009084  45.7307804  73.4673422
  11.3585263  45.9568650  72.5381954  12.3171783  45.4971178  73.6159223
  14.8474718  36.1991871  80.3654051  15.2024106  36.4263344  81.2248517
  15.4946849  36.5310248  79.7431306  20.5772455  39.3210307  71.0703380
  20.4390354  39.5111903  70.1424569  20.2208674  40.0829690  71.5271431
   8.7414581  33.3068402  77.1500392   9.3813960  33.1657161  76.4523355
   7.9092112  33.0202916  76.7738994  20.6041835  41.3886834  76.0814651
  21.0378341  41.2962123  76.9297705  21.3173415  41.3644335  75.4434667
   9.5174885  42.6070833  73.2635384  10.3115484  42.1121153  73.0617959
   8.8066577  42.0788696  72.9003090  14.3369730  44.9888928  77.6147752
  14.3906752  45.5579865  78.3825468  13.4684511  45.1590813  77.2501789
   5.8257649  36.7513914  69.3395137   4.8955237  36.6898370  69.5565099
   5.9215121  36.2289867  68.5431778   5.7443198  33.2768727  71.9273379
   6.0050015  34.1914061  71.8182539   6.5660370  32.8093170  72.0769992
   7.2168123  34.6906484  79.0972203   7.8891176  34.4823847  78.4484852
   6.3897909  34.4928570  78.6577436  21.4657384  41.4310535  78.6147537
  21.6593274  42.3356345  78.8606812  21.3658002  40.9717954  79.4486122
  13.1193695  31.3168425  81.1137864  12.4721610  32.0158375  81.0202341
  13.8894710  31.7504569  81.4814112  16.5272493  41.5817278  84.1888417
  16.3757999  41.3527829  83.2718501  16.5177172  42.5387879  84.2019762
  13.2957829  39.1549190  79.1734684  14.2249889  39.3060350  79.0003651
  12.8748859  39.2433211  78.3183330  12.0946161  43.1799855  76.9433221
  11.9557247  42.8118639  77.8159160  11.3060757  43.6947494  76.7717179
  12.6894313  48.2808951  68.2858758  12.8646069  47.8096994  69.1004381
  12.0027101  48.9074717  68.5140019  13.6451376  42.5581457  74.3322059
  13.3101209  42.5182227  75.2279709  13.1455322  41.8926173  73.8592469
   7.6195620  37.9649087  79.8574640   7.4815418  37.2329326  80.4586179
   8.5300544  37.8757988  79.5758828  16.5810568  39.9037492  64.6059119
  15.9639739  39.1784320  64.5092172  16.1127056  40.6646852  64.2626193
  10.2477921  37.6769047  79.3458320  10.9577539  37.0362239  79.3044938
  10.2047229  37.9281942  80.2684501  18.2364700  44.6136400  82.2664899
  18.1777246  43.9295620  81.5995482  18.6384218  45.3555390  81.8145525
   8.9606855  34.6634265  81.1653960   8.4244212  34.2125003  81.8175556
   8.3723563  34.7980173  80.4224424   7.2555398  51.4298314  75.0598618
   7.4951997  52.0616838  75.7377637   6.4124595  51.0786354  75.3463977
   8.3709114  34.1222916  63.7280423   7.4938580  34.0011717  63.3642670
   8.8466867  33.3308994  63.4759312  18.2382107  42.5775984  80.4978879
  17.3508886  42.2401906  80.6205278  18.8080658  41.8459015  80.7347644
   4.6945976  33.7990272  78.2506954   4.6104165  33.1915942  77.5157364
   3.8728682  34.2899291  78.2516450  11.7683260  47.2377436  77.4640122
  11.6953432  48.0432408  77.9759427  11.3260653  47.4369402  76.6388144
  11.5573040  46.4749206  70.9742944  10.7740562  47.0170887  71.0681168
  12.2565785  46.9923186  71.3737185  14.8669690  32.2843836  73.6177149
  15.3638389  31.5313798  73.2978219  14.0956671  32.3208153  73.0520358
  22.7199447  37.9884201  75.2595441  22.7089324  38.8708917  74.8889374
  21.8516827  37.6355752  75.0649978  14.2281944  47.1364270  79.6198281
  14.9409916  47.7711735  79.5474182  13.7371972  47.2328136  78.8038283
  15.9499471  41.0415523  71.1915572  15.0155749  41.1616986  71.0220277
  16.1276139  40.1387990  70.9275582  11.4504659  34.4261219  73.3448834
  11.0802446  33.8732259  74.0329739  11.9463751  33.8219352  72.7923834
  19.3372022  36.8832842  71.7265607  19.8032474  37.7160834  71.6525909
  19.7879522  36.4177824  72.4310865   9.2793857  44.8858714  80.4403852
   9.9803317  45.5195197  80.5933246   8.8088972  45.2273445  79.6799491
  17.4048253  43.2276664  68.7251759  17.6808097  43.1133258  69.6345633
  16.5352752  42.8294149  68.6863932  17.3088685  29.2513429  75.7656508
  16.3951765  29.4817656  75.9338715  17.7381786  29.3351873  76.6170540
  17.0795143  37.4403321  78.2656402  16.4266593  37.6879229  77.6108855
  17.4575523  36.6267460  77.9318879  14.0402317  47.4763015  72.3684572
  14.2224712  46.6584670  72.8312325  14.8635303  47.6930707  71.9309462
  14.3744483  46.4031200  69.6299621  14.9032249  45.8923654  69.0169783
  14.6372702  46.0873730  70.4945154  13.1282716  38.1823132  84.7522439
  12.4523353  38.0817262  85.4224814  13.9510350  38.0262346  85.2158436
   4.8761575  44.4195069  77.3734954   5.4615012  43.6738757  77.5062859
   4.6786414  44.7299026  78.2571618   7.7300231  47.4546316  72.3897397
   7.0610606  47.9392444  71.9061437   7.5913100  47.7015537  73.3040775
  11.8705499  49.4890060  78.9880055  12.4223807  49.6521681  79.7529140
  12.2111693  50.0794498  78.3160080   6.8469992  31.8365210  79.5901940
   6.9111319  32.6980041  79.1779337   6.7837113  31.2239211  78.8574298
   6.3222265  33.9088342  83.2374974   6.9494304  33.5265420  83.8512498
   5.4650184  33.6902544  83.6030667  16.7216373  44.3151317  84.8428709
  17.2656277  44.9281276  84.3483664  16.1403218  44.8730896  85.3595722
   3.0987808  35.7164771  69.1693329   3.3941249  34.8075450  69.1160383
   2.1975843  35.6952511  68.8474331  15.0073886  47.4372035  75.9743737
  14.8825026  46.6361775  75.4654683  15.6652978  47.9318229  75.4857707
   6.6282055  33.7920768  75.1520877   5.9068640  34.4056736  75.0128351
   7.4175310  34.3278533  75.0737523  17.0708795  45.2381055  77.6023287
  16.1239130  45.1186407  77.5301614  17.4191568  44.3503554  77.6849549
   9.4308368  31.1275194  81.4261529   9.9542770  31.3737491  82.1887838
   9.2120701  31.9595229  81.0064667   4.8275649  33.3978869  69.2932654
   4.4988355  32.5176248  69.1107760   5.1815020  33.3426538  70.1809043
  14.0755228  45.0333772  73.8027640  13.9280191  44.1050479  73.9835210
  14.9008722  45.0553862  73.3184715   7.9417472  33.6851839  69.6608132
   8.2813545  34.2137760  68.9386740   8.3889593  34.0232245  70.4366698
  17.6789350  45.8562330  74.8892512  18.6035897  45.6505192  74.7516963
  17.5104653  45.6078732  75.7981854  10.6360913  32.0688889  79.1111200
  10.2957734  31.2696703  79.5131880   9.9299919  32.3690600  78.5388033
  11.2877385  29.1538202  77.5638523  12.1103454  28.6798680  77.4417413
  11.5315449  29.9328686  78.0637209   9.9285620  32.1826460  67.8601424
  10.6493982  32.5607713  67.3565141   9.3050924  32.9015337  67.9636402
  14.0716742  32.8871609  68.7959757  14.2880357  33.7696247  68.4948585
  13.5910810  32.4957823  68.0665399   8.8115964  35.8457323  75.3730501
   8.6660544  36.1597626  76.2654783   8.3341167  36.4642223  74.8201400
  10.6712347  32.8359871  75.4211391  10.6573915  31.9400964  75.0843689
  11.3884775  32.8430534  76.0549677  12.5238477  33.2697211  77.4664518
  12.2656255  34.1914281  77.4648849  11.9923518  32.8727645  78.1564982
  17.4684666  46.3747998  70.2454604  17.6421544  45.8094420  69.4928456
  17.9613557  47.1748893  70.0634094   3.2861626  38.3862667  78.3118163
   2.7415094  39.1622475  78.4438437   4.1640976  38.7333471  78.1537284
  10.0749243  31.7174251  70.6898961  10.1965154  30.7890897  70.8889849
   9.7851285  31.7312937  69.7777276  12.9440433  29.4029161  73.8265681
  12.9662130  29.4668494  72.8717660  13.3608492  28.5633670  74.0206187
  23.3224057  39.1384421  71.8644903  23.7655203  38.3891746  71.4664027
  22.4450568  39.1294557  71.4818635  18.4559839  45.6914762  67.3451502
  19.1510743  46.3121455  67.5638817  18.7982989  44.8410113  67.6203880
   4.0727648  37.5132563  81.2048319   3.3309384  37.6615199  81.7912950
   3.7520392  37.7740829  80.3415069  20.3551262  43.1414468  68.8738833
  20.8802586  43.4801741  68.1488153  20.2673614  42.2061483  68.6901967
  12.0171310  47.0548541  81.0028709  12.3258437  46.8097688  81.8751409
  12.8146792  47.2595180  80.5147580  12.0391922  49.2086451  73.2334086
  11.5996913  48.7162830  73.9266943  12.7900039  48.6659419  72.9926161
   4.5184261  45.3997992  73.2358714   5.3442281  45.1001764  72.8557358
   4.1678313  44.6305614  73.6848503   9.4865795  44.7524460  75.3056388
   8.8645804  44.0895165  75.0058615  10.1570662  44.7785592  74.6230035
   2.7192867  43.3184318  74.1947648   1.8824775  42.8906493  74.0131649
   2.6916512  43.5116762  75.1318439   9.5590322  33.2306248  84.8988894
   9.6078478  34.1068371  84.5166663  10.1012836  32.6883641  84.3260537
  20.0445168  43.7747371  84.1790031  19.2540712  43.7571510  83.6394530
  19.8078522  44.3135665  84.9339067  20.1643043  40.6239838  81.4922759
  20.2141048  40.4589845  82.4338282  20.0556966  39.7567097  81.1020640
   9.0479302  43.3028384  68.7814848   9.1967422  43.9863848  68.1281521
   9.8545745  43.2833474  69.2964304  17.4546805  36.6070766  82.8082066
  18.3556668  36.4677231  82.5166064  17.5294780  36.7725221  83.7480243
  11.7889611  33.9837621  81.6535252  10.9192920  34.2771187  81.3817841
  12.0249091  34.5678066  82.3742516  21.6661240  43.0436779  81.7364781
  21.3746048  43.4066760  82.5728242  21.0533371  42.3303788  81.5578113
  22.8656922  40.6089659  74.2567351  23.7003813  41.0479463  74.4204911
  23.0016051  40.1328312  73.4375597  19.9148428  38.1669394  80.2044839
  20.3902550  38.3597040  79.3963690  18.9913993  38.2228580  79.9588222
   6.8031935  39.3293561  69.7875917   6.5577976  38.4255891  69.9856127
   6.9727849  39.3310712  68.8455395  14.4928644  30.2017238  79.1700673
  15.0110588  30.9378264  78.8447161  14.1383777  30.5081231  80.0047432
   6.0727582  35.0621919  67.2862079   5.3796827  35.1366274  66.6302115
   5.8279334  34.2982262  67.8083595  14.7441239  26.6217520  74.6901569
  15.0242992  25.9540709  75.3161996  15.5291846  26.8146616  74.1776233
  12.5474707  45.7976514  66.2526596  11.9748674  46.4166701  65.7997067
  13.1207501  46.3475876  66.7866518  18.6150097  35.0435154  78.4373144
  19.5667520  35.1433252  78.4585368  18.4453547  34.2513423  78.9471229
  16.6364476  32.1290737  78.6232545  16.0414409  32.4095750  77.9279034
  16.3514173  32.6184638  79.3949286  15.7671967  46.0813664  67.3835178
  16.7002640  46.0159226  67.5868053  15.6795180  46.9169931  66.9249711
  18.3959984  45.3979534  64.3439125  18.3173615  45.0639398  65.2374883
  19.2169650  45.8901302  64.3430598  21.0938175  38.2641274  77.5515444
  21.0614495  37.3257274  77.7375128  21.7038798  38.3425310  76.8181269
  12.9321506  37.1337327  63.5942648  13.8780610  37.0043535  63.6631066
  12.5535751  36.3951989  64.0712076  21.2432663  35.0552317  77.5973727
  20.7271712  34.2710774  77.4103656  22.1272612  34.7271034  77.7620247
  18.9043390  28.7993333  73.5569540  18.7068211  28.4908421  74.4412872
  19.5143096  29.5254972  73.6867470  26.9114725  39.3257281  76.6921481
  27.6418113  39.0642569  77.2529184  26.3021670  38.5886003  76.7323549
  24.9930022  37.4665143  77.2895932  24.2663185  37.3321108  76.6812424
  24.5777309  37.7741972  78.0952650  12.8160198  41.1855073  85.0543305
  13.7363208  41.3633672  85.2483352  12.7809781  40.2411118  84.9023004
  11.1164423  35.0587303  63.5297533  10.2095878  34.7620416  63.6060247
  11.3940404  34.7617121  62.6631820   2.0342363  36.3793667  73.9796580
   1.7145147  35.5258975  73.6870954   1.4875791  36.5942245  74.7354547
   5.8122271  39.0956108  77.6966086   6.0308280  40.0273215  77.7154120
   6.2248044  38.7364082  78.4820890  12.7326488  29.6024193  69.6841775
  11.9227217  29.2571278  70.0597021  13.4210905  29.2931737  70.2729386
  14.6617037  28.6802240  71.3066071  15.2148075  29.0997693  71.9656094
  14.8987123  27.7537988  71.3489027  10.6850136  34.6689313  87.0868835
  10.5846863  35.6183670  87.0180926  10.4671678  34.3407552  86.2144905
   9.8863207  31.9174238  63.6709513  10.7482371  32.2429137  63.9305330
  10.0713552  31.1305734  63.1582578   1.9030623  39.9996578  75.9489701
   1.2094095  39.5850531  75.4359656   2.6503614  40.0417115  75.3523120
  18.0395844  30.7902765  70.8144736  17.4594513  31.4487569  70.4322788
  17.7731777  29.9680109  70.4032153  16.4899410  30.1907822  73.0166056
  16.9899189  30.3024357  72.2080375  17.1335018  29.8868875  73.6566864
  10.5481406  38.0986452  85.9033897  10.0648488  38.8986812  86.1097786
  10.6342345  38.1094397  84.9501341   3.8167366  39.9314832  73.8255716
   3.7938054  40.0302519  72.8737599   4.1268002  40.7779983  74.1472882
   6.4754744  41.9890987  77.9402331   7.4297997  41.9574929  77.8732262
   6.2767267  41.5281611  78.7552557   7.0654126  40.5592103  80.5073128
   7.8847015  41.0536182  80.5307966   7.3390933  39.6424071  80.4790696
  16.8220722  32.9502855  69.8701084  15.9346577  33.2352506  69.6521279
  17.2374711  32.7896619  69.0228361  20.1735258  32.9749376  73.5855423
  20.9495648  33.4645829  73.8580040  19.4483392  33.4007430  74.0427293
  22.6107817  33.6876995  74.6429364  23.2052307  33.4472731  73.9322672
  22.6834400  32.9684126  75.2702900   4.8304972  47.5310606  74.9572528
   4.6959440  46.7711007  74.3910527   4.4137035  48.2551506  74.4901317
  15.9663935  42.7147530  63.9649104  16.6699785  42.9197532  64.5806759
  15.2426584  43.2824292  64.2298187  16.7961746  38.4657391  70.0851374
  16.7396947  38.9225943  69.2459006  17.3490088  37.7048076  69.9074217
  20.6066552  34.2547123  70.9101493  20.3503486  33.8543759  71.7409701
  19.9819420  34.9690917  70.7851633  24.9178889  36.9943196  73.4172785
  24.3578447  37.0636386  74.1904347  24.3122393  36.8184181  72.6972281
   7.9874098  48.4279923  75.1690971   7.8706482  49.3725356  75.0669661
   7.1666544  48.1253485  75.5576770  17.8750633  43.1530059  66.0147564
  18.7096237  42.7211258  65.8325039  17.7134976  42.9812073  66.9424458
  17.5296525  39.6562172  67.3803903  17.4745329  39.4906444  66.4392347
  16.9042580  40.3638205  67.5366093   2.3189040  34.8930237  81.2065325
   2.9647903  34.3829191  81.6952551   2.1106191  35.6298918  81.7808751
  14.8442432  41.9611084  86.7057466  15.7133592  42.1351736  86.3444101
  14.3649184  42.7805501  86.5833195  10.8392650  29.1570281  66.9589222
  10.8271320  30.1012121  67.1157492  11.7316072  28.9740427  66.6648683
   9.0128612  49.0808185  78.3846900   9.9155859  49.1131795  78.7013394
   8.7865982  48.1508636  78.3993235  10.7682214  47.8339172  75.0456978
   9.8177845  47.8341033  74.9321350  11.0714700  47.0871906  74.5293013
  14.6544770  25.7513058  71.2135158  13.8877166  25.1971545  71.3591841
  15.0655475  25.8234927  72.0749310   6.6586531  32.0397854  85.3040340
   7.5217992  31.6834659  85.5143664   6.0851942  31.7011749  85.9915744
  26.5034908  53.6699710  76.1102741  27.1413318  53.5506457  75.4066081
  26.3855751  54.6180554  76.1690693  23.3124614  53.6227138  76.0464265
  22.9743126  53.5068203  75.1584800  24.1814382  53.2218303  76.0265271
  19.1711430  55.4762615  72.0361156  18.6076295  55.3852552  71.2677444
  19.0563825  54.6562519  72.5163649  23.7944397  54.7761990  82.0050471
  23.7833038  54.3814788  81.1330974  23.9565037  54.0428063  82.5984242
  16.7175862  56.9713806  74.8745377  17.5097154  56.6304631  74.4591676
  16.9572512  57.0808781  75.7947530  24.7510989  59.1433582  67.3475621
  24.0998968  59.7287663  66.9609635  25.5455351  59.6739777  67.4070659
  18.6766616  56.2322720  67.7462755  19.4497492  55.6851707  67.6075631
  19.0292015  57.0966969  67.9577217  20.5151658  57.5599102  80.9529655
  20.2241524  58.4644733  80.8376321  21.1508643  57.6015629  81.6673724
  21.4407865  54.9375950  77.5431014  22.0371437  54.7131973  76.8287977
  21.4982837  54.1960696  78.1456462  21.0132893  52.3915386  65.3781205
  21.2658414  51.8696907  64.6164668  20.0757453  52.2281531  65.4807889
  26.0576176  51.3951164  73.1855949  26.8439266  50.9770587  72.8346366
  26.3214881  52.2997256  73.3537597  26.2286254  56.8324014  67.8844605
  25.5932087  56.9058641  68.5965510  25.8983660  57.4217613  67.2063685
  31.4584603  51.3326397  74.0888927  32.1909775  50.7625614  74.3226757
  30.7023959  50.9447998  74.5295433  20.7329182  54.2943492  67.5805580
  20.6165440  53.6188395  68.2486665  20.8431442  53.8075866  66.7637733
  23.0760723  53.7553639  71.2852270  22.7118930  53.2284260  71.9965191
  23.9327839  53.3652108  71.1118755  28.9810024  45.0447971  78.5483536
  28.6493349  45.9143382  78.3244751  28.3855637  44.7284255  79.2277566
  22.7166210  48.7843538  66.2813618  22.8840612  49.6523775  66.6484089
  22.5263379  48.9470820  65.3574907  25.4741543  57.2460517  77.9479448
  25.1742266  58.1485556  77.8395256  25.1292603  56.9792700  78.8000601
  18.9254025  53.6974314  73.9816153  18.0004521  53.5650528  74.1893845
  19.1738438  54.4768533  74.4786095  28.8738687  49.7643057  75.6276886
  27.9655564  49.6958466  75.3335647  28.8226283  50.2415002  76.4558711
  22.6955431  51.2401196  67.2660285  22.5755056  51.6858247  68.1045765
  22.0008019  51.5886514  66.7073823  16.2862836  53.3407588  74.8159942
  16.4155217  53.5942067  75.7299354  15.6060287  53.9335296  74.4964597
  20.4562323  64.0104838  70.9150416  20.3786353  64.9612663  70.9938897
  19.8523967  63.6650710  71.5725342  22.9479553  51.1832703  83.5711783
  22.1712887  51.7426623  83.5614648  23.5870116  51.6689486  84.0926653
  30.7400334  47.9659496  77.4054760  30.0974714  48.2592029  76.7594554
  30.2355262  47.8512416  78.2107956  28.3940497  51.7122669  68.0940619
  29.3058353  51.9450056  67.9188317  27.8850144  52.2959713  67.5315698
  21.2025925  53.9918156  83.1329750  21.9440610  54.5303200  82.8564574
  20.4962911  54.6184445  83.2901302  26.6781265  56.1347297  81.7301912
  27.0864621  55.6929707  80.9856544  25.9558526  55.5599924  81.9836104
  23.0312335  51.0719904  79.1035468  23.8773530  51.4959317  79.2470117
  22.9710973  50.4153528  79.7974032  27.0010079  56.6948488  75.4854200
  26.3718942  56.8594202  74.7830268  26.6135742  57.1090097  76.2565164
  30.8799311  57.6302925  72.8398564  30.1950350  58.0101827  72.2895597
  30.9643161  58.2398252  73.5730512  26.1811780  48.7324272  80.7616642
  25.9372712  49.4866333  80.2250918  26.4571711  49.1109620  81.5963889
  28.1350243  55.2762884  79.4393908  28.3467138  55.9194644  78.7628289
  28.0879991  54.4425201  78.9715838  25.7376472  47.8880705  76.3430480
  24.8760951  48.1861959  76.6347217  25.7638907  48.1051104  75.4111512
  22.5538041  56.4322896  72.7504286  23.0176387  56.7110599  71.9608908
  22.2894839  55.5306340  72.5677376  19.4462122  55.9794377  75.6884049
  20.0163479  56.4081646  75.0501533  20.0370234  55.6976962  76.3868234
  21.4906927  52.5546048  69.5593851  22.1930971  53.0067092  70.0267777
  21.1587556  51.9129867  70.1873744  19.9387289  51.1457805  83.9345060
  19.3085950  51.8274085  84.1680457  19.8323377  51.0340886  82.9898198
  15.2332261  50.8129601  74.8610984  14.4431315  51.0687129  74.3851095
  15.7243509  51.6277938  74.9663025  29.2496071  58.1534840  77.6116265
  30.0713515  57.7515027  77.3298947  29.2458474  58.0503074  78.5632381
  17.1847007  51.1774180  71.8194461  16.3878170  51.2892874  72.3377957
  16.9572599  51.5160832  70.9535351  23.0152674  57.7018883  79.7676976
  23.0797107  58.1639290  80.6035147  22.3063598  57.0716248  79.8959285
  13.5169964  51.0660091  77.2925975  13.7678003  51.9507101  77.5583551
  14.0529513  50.8864693  76.5201067  22.7300692  59.3686991  69.6355956
  22.5946367  60.2138526  70.0640804  23.2710505  59.5706268  68.8721890
  19.2168032  45.4478570  86.2970311  18.8234977  44.8944769  86.9717955
  20.0334172  45.7589149  86.6876829  16.1830089  56.8862429  70.2083881
  16.6954610  57.6805679  70.3589446  16.8352802  56.1888719  70.1417482
  17.9924974  60.0028185  72.2906634  18.1691602  60.9246150  72.1027618
  18.7881808  59.6886604  72.7201014  22.1335993  46.8636450  83.8890568
  22.8745706  47.4643603  83.8095030  22.3653915  46.1214087  83.3308610
  17.2777331  52.0492817  82.1668797  17.1630846  51.1478074  82.4675896
  16.4221848  52.2956514  81.8153614  24.3569168  59.9910557  83.7656298
  23.9133023  59.2046936  83.4477202  25.0186382  60.1789708  83.1000189
  19.1156290  61.5206359  78.2916976  19.6663715  61.3923422  77.5193970
  18.2767765  61.8201248  77.9411869  26.4550406  60.2713357  81.7937699
  26.4368882  61.0922238  81.3017968  27.3770327  60.1467432  82.0187840
  22.9123461  57.7857487  82.6361208  23.4451797  57.0245775  82.4060516
  22.3837542  57.4931138  83.3785362  26.0793156  42.8917552  78.1654849
  25.7357425  43.7819194  78.0893960  26.4472118  42.7019210  77.3024434
  14.1479006  55.2151083  70.9843451  14.9854228  55.6248091  70.7677159
  14.3257274  54.2750525  70.9543645  26.0443438  52.8826164  66.6727284
  25.5290062  53.6530768  66.9115672  25.7720747  52.2091300  67.2960346
  23.6290549  47.7275864  71.7312523  22.7732146  47.3382715  71.5518162
  24.0417501  47.8067825  70.8712308  25.1589696  45.2622208  76.1304083
  24.6554492  45.2252343  75.3171888  25.4520303  46.1714950  76.1900739
  21.4032582  45.3460937  75.1370264  22.2685579  45.1503746  74.7776154
  21.4710091  45.1171289  76.0639621  31.0177712  55.6358518  68.6080458
  30.2407155  55.2969678  68.1635620  31.6969193  55.6411141  67.9335423
  25.8329741  50.7553256  68.4987066  25.5279877  51.0699405  69.3497209
  26.7860184  50.8334676  68.5414399  24.2776173  56.9143479  70.1480020
  23.7497535  56.1796239  69.8353257  23.7763676  57.6918155  69.9019988
  29.2569019  55.1092499  75.2647066  28.5992694  55.7991761  75.3527195
  30.0609419  55.4988931  75.6081052  19.0094901  47.5763145  72.5086631
  19.5838653  47.3538327  71.7759824  19.5965883  47.6451840  73.2615232
  28.0674478  53.4636872  73.3151008  28.5806360  54.0966864  73.8172717
  28.7175702  52.8638068  72.9494368  19.3364488  49.6067606  66.5282516
  18.5001800  49.9442293  66.8491791  19.1969258  49.4716586  65.5909653
  21.3117569  44.4504394  71.2361701  20.6581981  44.1353411  70.6118315
  21.2698043  43.8280135  71.9621523  22.4228774  54.7323689  63.1514993
  21.5155835  54.5012943  63.3506142  22.9199805  53.9361309  63.3388974
  25.3296852  63.4421196  66.0711679  24.6558551  63.7452893  66.6796637
  25.7162674  64.2450277  65.7217136  24.5455309  50.9386328  75.5609348
  23.6277870  51.1601275  75.4031036  24.9615453  51.0132638  74.7021056
  25.3290357  52.3377743  70.6912028  26.0762176  52.8499141  70.3819150
  25.5981946  52.0161796  71.5516422  23.6017007  54.8336284  67.6738983
  22.6928226  54.5495317  67.7711452  23.6312091  55.2535363  66.8142290
  28.8336274  58.4442874  71.4430150  28.3798601  57.6033784  71.4995341
  28.2030241  59.0804272  71.7804930  27.7769194  49.3734860  72.6730818
  27.0391951  48.8612246  73.0041060  28.0295967  48.9335241  71.8614095
  27.2769214  60.2819370  72.3779968  27.5692188  60.8424427  71.6592334
  27.7867834  60.5747931  73.1333128  27.8780821  42.1511112  73.2672587
  28.1839698  41.2908475  72.9798502  28.6033426  42.7428732  73.0671581
  14.1705177  52.5541798  71.6554185  13.9729577  51.9611159  70.9305252
  13.6151841  52.2494008  72.3730124  22.1501901  52.4464905  73.7748778
  22.2050511  51.4938741  73.6991255  21.3393103  52.6024344  74.2590077
  23.2993095  56.3745028  65.0127061  22.8612525  55.6580887  64.5532699
  24.0403536  56.6021143  64.4512153  20.0894261  51.0641964  71.5339157
  19.2762126  51.3636135  71.9404349  20.5853255  50.6697653  72.2513639
  22.2402839  61.0599721  73.4673422  22.1979018  61.2860568  72.5381954
  23.1565538  60.8263096  73.6159223  25.6868473  51.5283789  80.3654051
  26.0417860  51.7555262  81.2248517  26.3340604  51.8602166  79.7431306
  31.4166210  54.6502225  71.0703380  31.2784108  54.8403821  70.1424569
  31.0602428  55.4121608  71.5271431  19.5808336  48.6360320  77.1500392
  20.2207715  48.4949079  76.4523355  18.7485866  48.3494833  76.7738994
  31.4435589  56.7178752  76.0814651  31.8772096  56.6254041  76.9297705
  32.1567170  56.6936252  75.4434667  20.3568640  57.9362750  73.2635384
  21.1509238  57.4413071  73.0617959  19.6460332  57.4080614  72.9003090
  25.1763484  60.3180846  77.6147752  25.2300506  60.8871782  78.3825468
  24.3078265  60.4882731  77.2501789  16.6651403  52.0805832  69.3395137
  15.7348991  52.0190288  69.5565099  16.7608875  51.5581785  68.5431778
  16.5836952  48.6060645  71.9273379  16.8443769  49.5205978  71.8182539
  17.4054124  48.1385088  72.0769992  18.0561877  50.0198402  79.0972203
  18.7284931  49.8115764  78.4484852  17.2291664  49.8220488  78.6577436
  32.3051139  56.7602452  78.6147537  32.4987029  57.6648263  78.8606812
  32.2051757  56.3009872  79.4486122  23.9587449  46.6460343  81.1137864
  23.3115364  47.3450293  81.0202341  24.7288465  47.0796487  81.4814112
  27.3666247  56.9109195  84.1888417  27.2151754  56.6819747  83.2718501
  27.3570927  57.8679797  84.2019762  24.1351584  54.4841108  79.1734684
  25.0643644  54.6352268  79.0003651  23.7142614  54.5725129  78.3183330
  22.9339916  58.5091772  76.9433221  22.7951001  58.1410557  77.8159160
  22.1454512  59.0239412  76.7717179  23.5288068  63.6100869  68.2858758
  23.7039823  63.1388912  69.1004381  22.8420856  64.2366635  68.5140019
  24.4845131  57.8873375  74.3322059  24.1494963  57.8474145  75.2279709
  23.9849076  57.2218091  73.8592469  18.4589375  53.2941005  79.8574640
  18.3209173  52.5621244  80.4586179  19.3694298  53.2049905  79.5758828
  27.4204322  55.2329409  64.6059119  26.8033493  54.5076238  64.5092172
  26.9520811  55.9938770  64.2626193  21.0871675  53.0060964  79.3458320
  21.7971294  52.3654157  79.3044938  21.0440983  53.2573859  80.2684501
  29.0758454  59.9428318  82.2664899  29.0171000  59.2587538  81.5995482
  29.4777972  60.6847308  81.8145525  19.8000609  49.9926182  81.1653960
  19.2637966  49.5416921  81.8175556  19.2117318  50.1272091  80.4224424
  18.0949153  66.7590232  75.0598618  18.3345751  67.3908756  75.7377637
  17.2518349  66.4078272  75.3463977  19.2102868  49.4514834  63.7280423
  18.3332335  49.3303635  63.3642670  19.6860621  48.6600912  63.4759312
  29.0775861  57.9067902  80.4978879  28.1902640  57.5693824  80.6205278
  29.6474412  57.1750933  80.7347644  10.7305008  54.2391993  73.8221930
  11.4176048  53.9253724  73.2342946  10.5753137  55.1433358  73.5489182
  15.5339731  49.1282190  78.2506954  15.4497919  48.5207860  77.5157364
  14.7122437  49.6191208  78.2516450  22.6077015  62.5669354  77.4640122
  22.5347186  63.3724326  77.9759427  22.1654408  62.7661320  76.6388144
  22.3966794  61.8041124  70.9742944  21.6134316  62.3462804  71.0681168
  23.0959539  62.3215104  71.3737185  25.7063444  47.6135754  73.6177149
  26.2032144  46.8605716  73.2978219  24.9350426  47.6500070  73.0520358
  33.5593202  53.3176119  75.2595441  33.5483078  54.2000835  74.8889374
  32.6910581  52.9647670  75.0649978  26.7893225  56.3707441  71.1915572
  25.8549504  56.4908903  71.0220277  26.9669894  55.4679908  70.9275582
  22.2898413  49.7553137  73.3448834  21.9196201  49.2024177  74.0329739
  22.7857506  49.1511270  72.7923834  30.1765776  52.2124760  71.7265607
  30.6426229  53.0452752  71.6525909  30.6273277  51.7469742  72.4310865
  20.1187612  60.2150632  80.4403852  20.8197071  60.8487115  80.5933246
  19.6482727  60.5565363  79.6799491  28.2442008  58.5568581  68.7251759
  28.5201851  58.4425176  69.6345633  27.3746506  58.1586066  68.6863932
  28.1482439  44.5805347  75.7656508  27.2345519  44.8109574  75.9338715
  28.5775541  44.6643791  76.6170540  27.9188898  52.7695239  78.2656402
  27.2660348  53.0171146  77.6108855  28.2969278  51.9559377  77.9318879
  24.8796072  62.8054932  72.3684572  25.0618466  61.9876588  72.8312325
  25.7029058  63.0222624  71.9309462  25.2138237  61.7323117  69.6299621
  25.7426004  61.2215572  69.0169783  25.4766457  61.4165648  70.4945154
  23.9676471  53.5115050  84.7522439  23.2917108  53.4109179  85.4224814
  24.7904105  53.3554264  85.2158436  15.7155330  59.7486987  77.3734954
  16.3008767  59.0030675  77.5062859  15.5180168  60.0590943  78.2571618
  18.5693985  62.7838234  72.3897397  17.9004360  63.2684362  71.9061437
  18.4306855  63.0307454  73.3040775  10.3072985  52.3192587  76.0939397
  10.3457084  51.7856178  76.8876516   9.8013277  51.7927792  75.4750375
  17.6863747  47.1657127  79.5901940  17.7505073  48.0271958  79.1779337
  17.6230867  46.5531129  78.8574298  17.1616019  49.2380260  83.2374974
  17.7888058  48.8557337  83.8512498  16.3043938  49.0194462  83.6030667
  13.9381562  51.0456689  69.1693329  14.2335003  50.1367367  69.1160383
  13.0369598  51.0244428  68.8474331  17.4675809  49.1212686  75.1520877
  16.7462395  49.7348653  75.0128351  18.2569065  49.6570450  75.0737523
  27.9102549  60.5672973  77.6023287  26.9632885  60.4478324  77.5301614
  28.2585322  59.6795471  77.6849549  20.2702123  46.4567112  81.4261529
  20.7936524  46.7029409  82.1887838  20.0514456  47.2887147  81.0064667
  15.6669404  48.7270787  69.2932654  15.3382110  47.8468166  69.1107760
  16.0208774  48.6718455  70.1809043  24.9148983  60.3625689  73.8027640
  24.7673945  59.4342397  73.9835210  25.7402476  60.3845780  73.3184715
  18.7811227  49.0143756  69.6608132  19.1207299  49.5429678  68.9386740
  19.2283347  49.3524163  70.4366698  28.5183104  61.1854248  74.8892512
  29.4429652  60.9797109  74.7516963  28.3498408  60.9370649  75.7981854
  21.4754668  47.3980807  79.1111200  21.1351488  46.5988620  79.5131880
  20.7693674  47.6982518  78.5388033  22.1271139  44.4830120  77.5638523
  22.9497209  44.0090598  77.4417413  22.3709203  45.2620603  78.0637209
  20.7679374  47.5118378  67.8601424  21.4887736  47.8899631  67.3565141
  20.1444678  48.2307255  67.9636402  24.9110497  48.2163527  68.7959757
  25.1274111  49.0988165  68.4948585  24.4304564  47.8249740  68.0665399
  19.6509718  51.1749240  75.3730501  19.5054299  51.4889543  76.2654783
  19.1734922  51.7934141  74.8201400  21.5106101  48.1651788  75.4211391
  21.4967670  47.2692882  75.0843689  22.2278529  48.1722452  76.0549677
  23.3632232  48.5989128  77.4664518  23.1050010  49.5206199  77.4648849
  22.8317272  48.2019563  78.1564982  28.3078421  61.7039916  70.2454604
  28.4815298  61.1386338  69.4928456  28.8007312  62.5040810  70.0634094
  14.1255380  53.7154585  78.3118163  13.5808848  54.4914393  78.4438437
  15.0034730  54.0625389  78.1537284  20.9142997  47.0466168  70.6898961
  21.0358908  46.1182815  70.8889849  20.6245039  47.0604854  69.7777276
  23.7834187  44.7321079  73.8265681  23.8055884  44.7960412  72.8717660
  24.2002246  43.8925588  74.0206187  34.1617812  54.4676338  71.8644903
  34.6048958  53.7183664  71.4664027  33.2844322  54.4586475  71.4818635
  29.2953593  61.0206680  67.3451502  29.9904498  61.6413373  67.5638817
  29.6376743  60.1702031  67.6203880  14.9121402  52.8424481  81.2048319
  14.1703138  52.9907116  81.7912950  14.5914147  53.1032747  80.3415069
  31.1945016  58.4706385  68.8738833  31.7196340  58.8093658  68.1488153
  31.1067369  57.5353401  68.6901967  22.8565065  62.3840459  81.0028709
  23.1652191  62.1389606  81.8751409  23.6540547  62.5887098  80.5147580
  22.8785677  64.5378369  73.2334086  22.4390667  64.0454747  73.9266943
  23.6293794  63.9951336  72.9926161  15.3578016  60.7289910  73.2358714
  16.1836036  60.4293681  72.8557358  15.0072068  59.9597532  73.6848503
  20.3259549  60.0816378  75.3056388  19.7039558  59.4187083  75.0058615
  20.9964416  60.1077510  74.6230035  13.5586621  58.6476236  74.1947648
  12.7218529  58.2198410  74.0131649  13.5310266  58.8408679  75.1318439
  20.3984077  48.5598166  84.8988894  20.4472232  49.4360289  84.5166663
  20.9406591  48.0175559  84.3260537  31.0036797  55.9531755  81.4922759
  31.0534802  55.7881763  82.4338282  30.8950721  55.0859015  81.1020640
  19.8873056  58.6320301  68.7814848  20.0361176  59.3155766  68.1281521
  20.6939499  58.6125391  69.2964304  28.2940560  51.9362684  82.8082066
  29.1950422  51.7969148  82.5166064  28.3688534  52.1017138  83.7480243
  22.6283365  49.3129538  81.6535252  21.7586674  49.6063104  81.3817841
  22.8642845  49.8969983  82.3742516  32.5054994  58.3728697  81.7364781
  32.2139802  58.7358678  82.5728242  31.8927125  57.6595705  81.5578113
  33.7050676  55.9381577  74.2567351  34.5397568  56.3771381  74.4204911
  33.8409805  55.4620230  73.4375597  30.7542182  53.4961312  80.2044839
  31.2296304  53.6888958  79.3963690  29.8307748  53.5520497  79.9588222
  17.6425689  54.6585479  69.7875917  17.3971731  53.7547809  69.9856127
  17.8121604  54.6602629  68.8455395  25.3322399  45.5309155  79.1700673
  25.8504343  46.2670182  78.8447161  24.9777532  45.8373148  80.0047432
  16.9121337  50.3913836  67.2862079  16.2190581  50.4658191  66.6302115
  16.6673088  49.6274180  67.8083595  25.5834993  41.9509438  74.6901569
  25.8636747  41.2832627  75.3161996  26.3685600  42.1438533  74.1776233
  23.3868462  61.1268432  66.2526596  22.8142429  61.7458619  65.7997067
  23.9601255  61.6767793  66.7866518  29.4543851  50.3727072  78.4373144
  30.4061274  50.4725169  78.4585368  29.2847302  49.5805340  78.9471229
  27.4758231  47.4582655  78.6232545  26.8808163  47.7387668  77.9279034
  27.1907928  47.9476556  79.3949286  26.6065721  61.4105582  67.3835178
  27.5396395  61.3451143  67.5868053  26.5188934  62.2461849  66.9249711
  29.2353738  60.7271452  64.3439125  29.1567370  60.3931316  65.2374883
  30.0563405  61.2193220  64.3430598  31.9331929  53.5933191  77.5515444
  31.9008249  52.6549192  77.7375128  32.5432553  53.6717228  76.8181269
  23.7715260  52.4629244  63.5942648  24.7174365  52.3335452  63.6631066
  23.3929505  51.7243906  64.0712076  29.7437145  44.1285250  73.5569540
  29.5461966  43.8200339  74.4412872  30.3536850  44.8546889  73.6867470
  23.6553953  56.5146991  85.0543305  24.5756962  56.6925590  85.2483352
  23.6203536  55.5703036  84.9023004  21.9558177  50.3879221  63.5297533
  21.0489633  50.0912333  63.6060247  22.2334158  50.0909039  62.6631820
  12.8736118  51.7085584  73.9796580  12.5538902  50.8550892  73.6870954
  12.3269546  51.9234162  74.7354547  16.6516025  54.4248025  77.6966086
  16.8702035  55.3565133  77.7154120  17.0641799  54.0656000  78.4820890
  23.5720243  44.9316110  69.6841775  22.7620971  44.5863195  70.0597021
  24.2604660  44.6223654  70.2729386  25.5010791  44.0094157  71.3066071
  26.0541830  44.4289611  71.9656094  25.7380878  43.0829905  71.3489027
  21.5243890  49.9981231  87.0868835  21.4240617  50.9475588  87.0180926
  21.3065433  49.6699470  86.2144905  20.7256962  47.2466156  63.6709513
  21.5876126  47.5721054  63.9305330  20.9107306  46.4597652  63.1582578
  12.7424378  55.3288496  75.9489701  12.0487849  54.9142448  75.4359656
  13.4897369  55.3709032  75.3523120  28.8789598  46.1194682  70.8144736
  28.2988267  46.7779486  70.4322788  28.6125531  45.2972027  70.4032153
  27.3293165  45.5199740  73.0166056  27.8292943  45.6316275  72.2080375
  27.9728773  45.2160793  73.6566864  21.3875161  53.4278370  85.9033897
  20.9042242  54.2278730  86.1097786  21.4736100  53.4386315  84.9501341
  14.6561120  55.2606749  73.8255716  14.6331808  55.3594437  72.8737599
  14.9661757  56.1071900  74.1472882  17.3148498  57.3182904  77.9402331
  18.2691752  57.2866847  77.8732262  17.1161022  56.8573528  78.7552557
  17.9047880  55.8884021  80.5073128  18.7240769  56.3828099  80.5307966
  18.1784688  54.9715989  80.4790696  27.6614476  48.2794773  69.8701084
  26.7740331  48.5644423  69.6521279  28.0768465  48.1188536  69.0228361
  31.0129012  48.3041294  73.5855423  31.7889403  48.7937746  73.8580040
  30.2877147  48.7299348  74.0427293  33.4501571  49.0168913  74.6429364
  34.0446062  48.7764649  73.9322672  33.5228155  48.2976044  75.2702900
  15.6698727  62.8602524  74.9572528  15.5353195  62.1002925  74.3910527
  15.2530789  63.5843424  74.4901317  26.8057690  58.0439447  63.9649104
  27.5093540  58.2489450  64.5806759  26.0820339  58.6116209  64.2298187
  27.6355500  53.7949309  70.0851374  27.5790701  54.2517860  69.2459006
  28.1883843  53.0339993  69.9074217  31.4460306  49.5839041  70.9101493
  31.1897240  49.1835676  71.7409701  30.8213174  50.2982835  70.7851633
  18.8267853  63.7571841  75.1690971  18.7100237  64.7017273  75.0669661
  18.0060299  63.4545403  75.5576770  28.7144387  58.4821977  66.0147564
  29.5489991  58.0503175  65.8325039  28.5528730  58.3103990  66.9424458
  28.3690279  54.9854090  67.3803903  28.3139083  54.8198361  66.4392347
  27.7436335  55.6930123  67.5366093  13.1582794  50.2222154  81.2065325
  13.8041658  49.7121108  81.6952551  12.9499945  50.9590836  81.7808751
  25.6836187  57.2903002  86.7057466  26.5527346  57.4643654  86.3444101
  25.2042938  58.1097419  86.5833195  21.6786405  44.4862199  66.9589222
  21.6665075  45.4304039  67.1157492  22.5709827  44.3032344  66.6648683
  19.8522367  64.4100103  78.3846900  20.7549614  64.4423713  78.7013394
  19.6259737  63.4800554  78.3993235  21.6075969  63.1631089  75.0456978
  20.6571600  63.1632951  74.9321350  21.9108455  62.4163824  74.5293013
  25.4938524  41.0804976  71.2135158  24.7270920  40.5263462  71.3591841
  25.9049229  41.1526844  72.0749310  17.4980285  47.3689771  85.3040340
  18.3611747  47.0126576  85.5143664  16.9245696  47.0303666  85.9915744
  29.5160370  71.5614637  67.7462755  30.2891246  71.0143624  67.6075631
  29.8685769  72.4258887  67.9577217  31.8526648  67.7207303  65.3781205
  32.1052169  67.1988825  64.6164668  30.9151207  67.5573449  65.4807889
  31.5722937  69.6235409  67.5805580  31.4559195  68.9480313  68.2486665
  31.6825197  69.1367783  66.7637733  33.5559965  64.1135456  66.2813618
  33.7234367  64.9815692  66.6484089  33.3657134  64.2762738  65.3574907
  33.5349185  66.5693114  67.2660285  33.4148811  67.0150164  68.1045765
  32.8401774  66.9178431  66.7073823  32.3300682  67.8837966  69.5593851
  33.0324725  68.3359009  70.0267777  31.9981310  67.2421785  70.1873744
  28.0240761  66.5066098  71.8194461  27.2271925  66.6184792  72.3377957
  27.7966353  66.8452750  70.9535351  36.9186910  58.2209470  78.1654849
  36.5751179  59.1111112  78.0893960  37.2865873  58.0311128  77.3024434
  34.4684304  63.0567782  71.7312523  33.6125900  62.6674632  71.5518162
  34.8811256  63.1359743  70.8712308  35.9983450  60.5914125  76.1304083
  35.4948246  60.5544260  75.3171888  36.2914057  61.5006868  76.1900739
  29.8488655  62.9055063  72.5086631  30.4232407  62.6830244  71.7759824
  30.4359638  62.9743757  73.2615232  30.1758243  64.9359524  66.5282516
  29.3395555  65.2734211  66.8491791  30.0363012  64.8008504  65.5909653
  32.1511323  59.7796312  71.2361701  31.4975735  59.4645329  70.6118315
  32.1091797  59.1572052  71.9621523  25.0098932  67.8833716  71.6554185
  24.8123332  67.2903077  70.9305252  24.4545596  67.5785926  72.3730124
  30.9288015  66.3933882  71.5339157  30.1155881  66.6928053  71.9404349
  31.4247010  65.9989571  72.2513639  27.5045158  67.4097750  69.3395137
  26.5742746  67.3482205  69.5565099  27.6002630  66.8873703  68.5431778
  27.4230707  63.9352563  71.9273379  27.6837524  64.8497896  71.8182539
  28.2447879  63.4677005  72.0769992  30.0496623  64.7806751  63.7280423
  29.1726089  64.6595552  63.3642670  30.5254376  63.9892830  63.4759312
  21.5698763  69.5683911  73.8221930  22.2569803  69.2545641  73.2342946
  21.4146892  70.4725276  73.5489182  36.5457199  62.9427671  73.6177149
  37.0425898  62.1897634  73.2978219  35.7744180  62.9791988  73.0520358
  21.1466739  67.6484505  76.0939397  21.1850839  67.1148095  76.8876516
  20.6407032  67.1219710  75.4750375  28.5257501  62.4949045  79.5901940
  28.5898828  63.3563876  79.1779337  28.4624622  61.8823047  78.8574298
  24.7775317  66.3748607  69.1693329  25.0728758  65.4659285  69.1160383
  23.8763352  66.3536346  68.8474331  28.3069564  64.4504603  75.1520877
  27.5856149  65.0640571  75.0128351  29.0962819  64.9862368  75.0737523
  26.5063158  64.0562704  69.2932654  26.1775864  63.1760083  69.1107760
  26.8602529  64.0010373  70.1809043  29.6204981  64.3435674  69.6608132
  29.9601054  64.8721595  68.9386740  30.0677102  64.6816080  70.4366698
  32.3148422  62.7272725  79.1111200  31.9745243  61.9280538  79.5131880
  31.6087428  63.0274436  78.5388033  32.9664894  59.8122037  77.5638523
  33.7890963  59.3382515  77.4417413  33.2102958  60.5912521  78.0637209
  31.6073128  62.8410296  67.8601424  32.3281491  63.2191548  67.3565141
  30.9838433  63.5599173  67.9636402  32.3499856  63.4943706  75.4211391
  32.3361424  62.5984799  75.0843689  33.0672284  63.5014370  76.0549677
  31.7536752  62.3758086  70.6898961  31.8752663  61.4474732  70.8889849
  31.4638794  62.3896772  69.7777276  34.6227942  60.0612997  73.8265681
  34.6449639  60.1252330  72.8717660  35.0396001  59.2217505  74.0206187
  28.4819444  69.9877396  69.7875917  28.2365485  69.0839726  69.9856127
  28.6515358  69.9894547  68.8455395  36.1716153  60.8601073  79.1700673
  36.6898097  61.5962100  78.8447161  35.8171286  61.1665066  80.0047432
  27.7515091  65.7205754  67.2862079  27.0584336  65.7950109  66.6302115
  27.5066843  64.9566098  67.8083595  36.4228748  57.2801355  74.6901569
  36.7030501  56.6124544  75.3161996  37.2079354  57.4730451  74.1776233
  34.6109015  67.7921162  63.5942648  35.5568119  67.6627370  63.6631066
  34.2323260  67.0535824  64.0712076  32.7951932  65.7171138  63.5297533
  31.8883387  65.4204251  63.6060247  33.0727913  65.4200957  62.6631820
  23.7129872  67.0377502  73.9796580  23.3932656  66.1842810  73.6870954
  23.1663300  67.2526080  74.7354547  34.4113997  60.2608028  69.6841775
  33.6014726  59.9155113  70.0597021  35.0998414  59.9515572  70.2729386
  36.3404546  59.3386075  71.3066071  36.8935584  59.7581528  71.9656094
  36.5774632  58.4121823  71.3489027  31.5650716  62.5758074  63.6709513
  32.4269880  62.9012972  63.9305330  31.7501060  61.7889570  63.1582578
  32.5180159  59.8154117  66.9589222  32.5058829  60.7595957  67.1157492
  33.4103581  59.6324262  66.6648683  36.3332279  56.4096893  71.2135158
  35.5664675  55.8555380  71.3591841  36.7442984  56.4818762  72.0749310
  40.8498939  86.1346450  72.0361156  40.2863804  86.0436387  71.2677444
  40.7351334  85.3146354  72.5163649  46.4298497  89.8017418  67.3475621
  45.7786477  90.3871498  66.9609635  47.2242860  90.3323613  67.4070659
  40.3554125  86.8906555  67.7462755  41.1285001  86.3435542  67.6075631
  40.7079524  87.7550804  67.9577217  42.6920402  83.0499221  65.3781205
  42.9445923  82.5280742  64.6164668  41.7544962  82.8865366  65.4807889
  47.9073763  87.4907850  67.8844605  47.2719596  87.5642476  68.5965510
  47.5771169  88.0801448  67.2063685  42.4116691  84.9527327  67.5805580
  42.2952949  84.2772230  68.2486665  42.5218951  84.4659701  66.7637733
  44.7548232  84.4137474  71.2852270  44.3906439  83.8868095  71.9965191
  45.6115348  84.0235943  71.1118755  42.1349832  94.6688673  70.9150416
  42.0573862  95.6196498  70.9938897  41.5311476  94.3234545  71.5725342
  50.0728006  82.3706504  68.0940619  50.9845862  82.6033891  67.9188317
  49.5637653  82.9543549  67.5315698  59.0189573  85.1557424  73.9601237
  58.2653281  84.5864822  73.8045241  59.1537114  85.1220088  74.9071871
  44.4088201  90.0270826  69.6355956  44.2733876  90.8722362  70.0640804
  44.9498014  90.2290104  68.8721890  37.8617598  87.5446264  70.2083881
  38.3742119  88.3389514  70.3589446  38.5140311  86.8472554  70.1417482
  39.6712483  90.6612020  72.2906634  39.8479111  91.5829985  72.1027618
  40.4669317  90.3470439  72.7201014  40.7943799  92.1790194  78.2916976
  41.3451224  92.0507257  77.5193970  39.9555274  92.4785083  77.9411869
  35.8266515  85.8734918  70.9843451  36.6641737  86.2831927  70.7677159
  36.0044783  84.9334360  70.9543645  47.7230947  83.5409999  66.6727284
  47.2077571  84.3114604  66.9115672  47.4508256  82.8675135  67.2960346
  52.6965221  86.2942354  68.6080458  51.9194664  85.9553513  68.1635620
  53.3756702  86.2994977  67.9335423  45.9563682  87.5727314  70.1480020
  45.4285044  86.8380074  69.8353257  45.4551185  88.3501991  69.9019988
  44.1016282  85.3907525  63.1514993  43.1943344  85.1596778  63.3506142
  44.5987314  84.5945144  63.3388974  47.0084361  94.1005032  66.0711679
  46.3346060  94.4036729  66.6796637  47.3950183  94.9034112  65.7217136
  45.2804516  85.4920119  67.6738983  44.3715735  85.2079152  67.7711452
  45.3099600  85.9119198  66.8142290  48.9556723  90.9403206  72.3779968
  49.2479697  91.5008263  71.6592334  49.4655343  91.2331767  73.1333128
  35.8492686  83.2125634  71.6554185  35.6517086  82.6194994  70.9305252
  35.2939350  82.9077844  72.3730124  44.9780604  87.0328863  65.0127061
  44.5400034  86.3164722  64.5532699  45.7191045  87.2604978  64.4512153
  43.9190348  91.7183557  73.4673422  43.8766527  91.9444403  72.5381954
  44.8353047  91.4846931  73.6159223  53.0953719  85.3086060  71.0703380
  52.9571617  85.4987656  70.1424569  52.7389937  86.0705443  71.5271431
  42.0356149  88.5946586  73.2635384  42.8296747  88.0996906  73.0617959
  41.3247841  88.0664449  72.9003090  45.2075577  94.2684704  68.2858758
  45.3827332  93.7972747  69.1004381  44.5208365  94.8950470  68.5140019
  49.0991831  85.8913245  64.6059119  48.4821002  85.1660073  64.5092172
  48.6308320  86.6522605  64.2626193  39.7736662  97.4174067  75.0598618
  40.0133260  98.0492591  75.7377637  38.9305858  97.0662107  75.3463977
  44.0754303  92.4624959  70.9742944  43.2921825  93.0046640  71.0681168
  44.7747048  92.9798939  71.3737185  48.4680734  87.0291276  71.1915572
  47.5337013  87.1492739  71.0220277  48.6457403  86.1263743  70.9275582
  51.8553285  82.8708595  71.7265607  52.3213738  83.7036587  71.6525909
  52.3060786  82.4053577  72.4310865  49.9229517  89.2152417  68.7251759
  50.1989360  89.1009011  69.6345633  49.0534015  88.8169902  68.6863932
  46.5583581  93.4638768  72.3684572  46.7405975  92.6460423  72.8312325
  47.3816567  93.6806460  71.9309462  46.8925746  92.3906953  69.6299621
  47.4213512  91.8799407  69.0169783  47.1553966  92.0749483  70.4945154
  37.3942839  90.4070822  77.3734954  37.9796276  89.6614510  77.5062859
  37.1967677  90.7174779  78.2571618  40.2481494  93.4422069  72.3897397
  39.5791869  93.9268197  71.9061437  40.1094364  93.6891290  73.3040775
  44.3886763  95.4765813  78.9880055  44.9405071  95.6397434  79.7529140
  44.7292956  96.0670251  78.3160080  47.5255150  93.4247788  75.9743737
  47.4006289  92.6237528  75.4654683  48.1834241  93.9193982  75.4857707
  46.5936492  91.0209525  73.8027640  46.4461454  90.0926232  73.9835210
  47.4189985  91.0429615  73.3184715  49.9865930  92.3623751  70.2454604
  50.1602807  91.7970173  69.4928456  50.4794821  93.1624646  70.0634094
  55.8405321  85.1260174  71.8644903  56.2836467  84.3767499  71.4664027
  54.9631831  85.1170310  71.4818635  50.9741102  91.6790515  67.3451502
  51.6692007  92.2997208  67.5638817  51.3164252  90.8285867  67.6203880
  52.8732525  89.1290221  68.8738833  53.3983849  89.4677494  68.1488153
  52.7854878  88.1937236  68.6901967  44.5573186  95.1962204  73.2334086
  44.1178176  94.7038583  73.9266943  45.3081303  94.6535172  72.9926161
  37.0365525  91.3873745  73.2358714  37.8623545  91.0877517  72.8557358
  36.6859577  90.6181367  73.6848503  42.0047058  90.7400213  75.3056388
  41.3827067  90.0770918  75.0058615  42.6751925  90.7661345  74.6230035
  35.2374130  89.3060071  74.1947648  34.4006038  88.8782246  74.0131649
  35.2097775  89.4992515  75.1318439  41.5660565  89.2904137  68.7814848
  41.7148685  89.9739601  68.1281521  42.3727008  89.2709227  69.2964304
  39.3213198  85.3169314  69.7875917  39.0759240  84.4131644  69.9856127
  39.4909113  85.3186465  68.8455395  45.0655971  91.7852267  66.2526596
  44.4929938  92.4042454  65.7997067  45.6388764  92.3351629  66.7866518
  48.2853230  92.0689417  67.3835178  49.2183903  92.0034979  67.5868053
  48.1976443  92.9045684  66.9249711  50.9141247  91.3855287  64.3439125
  50.8354879  91.0515151  65.2374883  51.7350914  91.8777055  64.3430598
  45.4502769  83.1213080  63.5942648  46.3961874  82.9919288  63.6631066
  45.0717014  82.3827742  64.0712076  37.3486236  93.5186359  74.9572528
  37.2140704  92.7586760  74.3910527  36.9318298  94.2427259  74.4901317
  48.4845199  88.7023283  63.9649104  49.1881049  88.9073285  64.5806759
  47.7607848  89.2700045  64.2298187  53.1247815  80.2422876  70.9101493
  52.8684749  79.8419512  71.7409701  52.5000683  80.9566670  70.7851633
  40.5055362  94.4155676  75.1690971  40.3887746  95.3601109  75.0669661
  39.6847808  94.1129238  75.5576770  50.3931896  89.1405812  66.0147564
  51.2277500  88.7087011  65.8325039  50.2316239  88.9687826  66.9424458
  50.0477788  85.6437925  67.3803903  49.9926592  85.4782197  66.4392347
  49.4223844  86.3513958  67.5366093  41.5309876  95.0683938  78.3846900
  42.4337122  95.1007549  78.7013394  41.3047246  94.1384389  78.3993235
  43.2863478  93.8214925  75.0456978  42.3359109  93.8216786  74.9321350
  43.5895964  93.0747659  74.5293013  59.0216171  99.6575463  76.1102741
  59.6594581  99.5382211  75.4066081  58.9037014 100.6056307  76.1690693
  55.8305878  99.6102891  76.0464265  55.4924389  99.4943956  75.1584800
  56.6995646  99.2094056  76.0265271  51.6892693 101.4638368  72.0361156
  51.1257558 101.3728305  71.2677444  51.5745088 100.6438272  72.5163649
  56.3125661 100.7637743  82.0050471  56.3014301 100.3690541  81.1330974
  56.4746300 100.0303816  82.5984242  49.2357125 102.9589559  74.8745377
  50.0278417 102.6180384  74.4591676  49.4753775 103.0684534  75.7947530
  57.2692252 105.1309335  67.3475621  56.6180232 105.7163416  66.9609635
  58.0636615 105.6615530  67.4070659  51.1947879 102.2198473  67.7462755
  51.9678755 101.6727460  67.6075631  51.5473278 103.0842722  67.9577217
  53.0332922 103.5474855  80.9529655  52.7422788 104.4520486  80.8376321
  53.6689906 103.5891382  81.6673724  53.9589129 100.9251703  77.5431014
  54.5552701 100.7007726  76.8287977  54.0164100 100.1836449  78.1456462
  53.5314157  98.3791139  65.3781205  53.7839678  97.8572660  64.6164668
  52.5938716  98.2157284  65.4807889  58.5757440  97.3826917  73.1855949
  59.3620529  96.9646340  72.8346366  58.8396144  98.2873009  73.3537597
  58.7467517 102.8199767  67.8844605  58.1113350 102.8934394  68.5965510
  58.4164924 103.4093366  67.2063685  63.9765867  97.3202150  74.0888927
  64.7091039  96.7501367  74.3226757  63.2205223  96.9323751  74.5295433
  53.2510446 100.2819245  67.5805580  53.1346704  99.6064148  68.2486665
  53.3612706  99.7951619  66.7637733  55.5941987  99.7429392  71.2852270
  55.2300194  99.2160013  71.9965191  56.4509103  99.3527861  71.1118755
  55.2347474  94.7719291  66.2813618  55.4021876  95.6399528  66.6484089
  55.0444643  94.9346573  65.3574907  57.9922807 103.2336270  77.9479448
  57.6923530 104.1361309  77.8395256  57.6473866 102.9668454  78.8000601
  51.4435288  99.6850067  73.9816153  50.5185785  99.5526281  74.1893845
  51.6919701 100.4644286  74.4786095  61.3919951  95.7518811  75.6276886
  60.4836828  95.6834219  75.3335647  61.3407546  96.2290755  76.4558711
  55.2136694  97.2276949  67.2660285  55.0936320  97.6734000  68.1045765
  54.5189283  97.5762267  66.7073823  48.8044099  99.3283341  74.8159942
  48.9336480  99.5817820  75.7299354  48.1241551  99.9211049  74.4964597
  52.9743587 109.9980591  70.9150416  52.8967616 110.9488416  70.9938897
  52.3705230 109.6526463  71.5725342  63.2581597  93.9535249  77.4054760
  62.6155977  94.2467782  76.7594554  62.7536525  93.8388169  78.2107956
  60.9121761  97.6998422  68.0940619  61.8239617  97.9325809  67.9188317
  60.4031408  98.2835466  67.5315698  53.7207189  99.9793909  83.1329750
  54.4621873 100.5178953  82.8564574  53.0144174 100.6060198  83.2901302
  59.1962528 102.1223050  81.7301912  59.6045884 101.6805460  80.9856544
  58.4739790 101.5475677  81.9836104  55.5493598  97.0595657  79.1035468
  56.3954794  97.4835070  79.2470117  55.4892236  96.4029281  79.7974032
  59.5191343 102.6824241  75.4854200  58.8900205 102.8469955  74.7830268
  59.1317005 103.0965850  76.2565164  63.3980575 103.6178678  72.8398564
  62.7131613 103.9977580  72.2895597  63.4824424 104.2274005  73.5730512
  60.6531506 101.2638637  79.4393908  60.8648402 101.9070397  78.7628289
  60.6061255 100.4300954  78.9715838  58.2557735  93.8756458  76.3430480
  57.3942214  94.1737712  76.6347217  58.2820170  94.0926857  75.4111512
  55.0719305 102.4198649  72.7504286  55.5357650 102.6986352  71.9608908
  54.8076103 101.5182093  72.5677376  51.9643386 101.9670130  75.6884049
  52.5344743 102.3957399  75.0501533  52.5551498 101.6852715  76.3868234
  54.0088191  98.5421801  69.5593851  54.7112234  98.9942845  70.0267777
  53.6768819  97.9005620  70.1873744  52.4568552  97.1333558  83.9345060
  51.8267213  97.8149838  84.1680457  52.3504640  97.0216639  82.9898198
  47.7513525  96.8005354  74.8610984  46.9612579  97.0562882  74.3851095
  48.2424772  97.6153692  74.9663025  61.7677334 104.1410593  77.6116265
  62.5894778 103.7390780  77.3298947  61.7639737 104.0378827  78.5632381
  49.7028270  97.1649933  71.8194461  48.9059433  97.2768627  72.3377957
  49.4753862  97.5036585  70.9535351  55.5333938 103.6894636  79.7676976
  55.5978370 104.1515043  80.6035147  54.8244862 103.0592001  79.8959285
  46.0351228  97.0535844  77.2925975  46.2859266  97.9382854  77.5583551
  46.5710776  96.8740446  76.5201067  69.8583327 100.4849341  73.9601237
  69.1047036  99.9156739  73.8045241  69.9930869 100.4512006  74.9071871
  55.2481955 105.3562744  69.6355956  55.1127630 106.2014279  70.0640804
  55.7891768 105.5582021  68.8721890  48.7011353 102.8738182  70.2083881
  49.2135873 103.6681432  70.3589446  49.3534066 102.1764472  70.1417482
  50.5106238 105.9903938  72.2906634  50.6872866 106.9121903  72.1027618
  51.3063071 105.6762357  72.7201014  49.7958594  98.0368570  82.1668797
  49.6812109  97.1353827  82.4675896  48.9403112  98.2832267  81.8153614
  56.8750432 105.9786310  83.7656298  56.4314286 105.1922689  83.4477202
  57.5367645 106.1665461  83.1000189  51.6337553 107.5082112  78.2916976
  52.1844978 107.3799175  77.5193970  50.7949029 107.8077001  77.9411869
  58.9731670 106.2589110  81.7937699  58.9550145 107.0797991  81.3017968
  59.8951590 106.1343185  82.0187840  55.4304724 103.7733240  82.6361208
  55.9633061 103.0121528  82.4060516  54.9018805 103.4806891  83.3785362
  46.6660270 101.2026836  70.9843451  47.5035492 101.6123844  70.7677159
  46.8438537 100.2626278  70.9543645  58.5624702  98.8701917  66.6727284
  58.0471325  99.6406521  66.9115672  58.2902010  98.1967053  67.2960346
  56.1471813  93.7151617  71.7312523  55.2913409  93.3258468  71.5518162
  56.5598765  93.7943578  70.8712308  57.6770959  91.2497961  76.1304083
  57.1735755  91.2128096  75.3171888  57.9701566  92.1590703  76.1900739
  63.5358976 101.6234271  68.6080458  62.7588419 101.2845431  68.1635620
  64.2150457 101.6286894  67.9335423  58.3511005  96.7429009  68.4987066
  58.0461141  97.0575158  69.3497209  59.3041447  96.8210429  68.5414399
  56.7957437 102.9019232  70.1480020  56.2678798 102.1671992  69.8353257
  56.2944940 103.6793908  69.9019988  61.7750283 101.0968253  75.2647066
  61.1173957 101.7867514  75.3527195  62.5790682 101.4864684  75.6081052
  51.5276164  93.5638898  72.5086631  52.1019916  93.3414080  71.7759824
  52.1147147  93.6327593  73.2615232  60.5855742  99.4512625  73.3151008
  61.0987623 100.0842617  73.8172717  61.2356966  98.8513821  72.9494368
  51.8545752  95.5943359  66.5282516  51.0183064  95.9318046  66.8491791
  51.7150521  95.4592339  65.5909653  53.8298832  90.4380147  71.2361701
  53.1763244  90.1229164  70.6118315  53.7879306  89.8155888  71.9621523
  54.9410037 100.7199442  63.1514993  54.0337099 100.4888696  63.3506142
  55.4381069  99.9237062  63.3388974  57.8478116 109.4296949  66.0711679
  57.1739815 109.7328646  66.6796637  58.2343938 110.2326030  65.7217136
  57.0636572  96.9262081  75.5609348  56.1459134  97.1477028  75.4031036
  57.4796716  97.0008391  74.7021056  57.8471620  98.3253496  70.6912028
  58.5943439  98.8374894  70.3819150  58.1163210  98.0037549  71.5516422
  56.1198270 100.8212037  67.6738983  55.2109490 100.5371070  67.7711452
  56.1493354 101.2411116  66.8142290  61.3517538 104.4318627  71.4430150
  60.8979865 103.5909537  71.4995341  60.7211505 105.0680025  71.7804930
  60.2950457  95.3610613  72.6730818  59.5573214  94.8487999  73.0041060
  60.5477231  94.9210994  71.8614095  59.7950477 106.2695123  72.3779968
  60.0873451 106.8300180  71.6592334  60.3049098 106.5623684  73.1333128
  60.3962085  88.1386865  73.2672587  60.7020962  87.2784228  72.9798502
  61.1214690  88.7304485  73.0671581  46.6886441  98.5417551  71.6554185
  46.4910841  97.9486912  70.9305252  46.1333105  98.2369761  72.3730124
  54.6683164  98.4340658  73.7748778  54.7231774  97.4814494  73.6991255
  53.8574366  98.5900097  74.2590077  55.8174358 102.3620781  65.0127061
  55.3793788 101.6456640  64.5532699  56.5584799 102.5896896  64.4512153
  52.6075524  97.0517717  71.5339157  51.7943390  97.3511888  71.9404349
  53.1034519  96.6573406  72.2513639  54.7584102 107.0475474  73.4673422
  54.7160281 107.2736321  72.5381954  55.6746801 106.8138849  73.6159223
  58.2049736  97.5159542  80.3654051  58.5599124  97.7431015  81.2248517
  58.8521867  97.8477919  79.7431306  63.9347473 100.6377978  71.0703380
  63.7965372 100.8279574  70.1424569  63.5783692 101.3997361  71.5271431
  52.0989599  94.6236073  77.1500392  52.7388978  94.4824832  76.4523355
  51.2667130  94.3370586  76.7738994  63.9616853 102.7054505  76.0814651
  64.3953359 102.6129794  76.9297705  64.6748433 102.6812005  75.4434667
  52.8749903 103.9238503  73.2635384  53.6690502 103.4288824  73.0617959
  52.1641595 103.3956367  72.9003090  57.6944748 106.3056599  77.6147752
  57.7481770 106.8747535  78.3825468  56.8259529 106.4758484  77.2501789
  49.1832667  98.0681585  69.3395137  48.2530255  98.0066041  69.5565099
  49.2790138  97.5457538  68.5431778  49.1018216  94.5936398  71.9273379
  49.3625033  95.5081731  71.8182539  49.9235388  94.1260841  72.0769992
  50.5743141  96.0074155  79.0972203  51.2466194  95.7991517  78.4484852
  49.7472927  95.8096241  78.6577436  64.8232402 102.7478206  78.6147537
  65.0168292 103.6524016  78.8606812  64.7233020 102.2885625  79.4486122
  59.8847511 102.8984948  84.1888417  59.7333017 102.6695500  83.2718501
  59.8752190 103.8555550  84.2019762  56.6532847 100.4716861  79.1734684
  57.5824907 100.6228021  79.0003651  56.2323877 100.5600882  78.3183330
  55.4521179 104.4967525  76.9433221  55.3132265 104.1286310  77.8159160
  54.6635775 105.0115165  76.7717179  56.0469331 109.5976622  68.2858758
  56.2221087 109.1264665  69.1004381  55.3602119 110.2242388  68.5140019
  57.0026394 103.8749128  74.3322059  56.6676227 103.8349898  75.2279709
  56.5030340 103.2093844  73.8592469  50.9770638  99.2816758  79.8574640
  50.8390436  98.5496997  80.4586179  51.8875562  99.1925658  79.5758828
  59.9385586 101.2205162  64.6059119  59.3214756 100.4951991  64.5092172
  59.4702074 101.9814523  64.2626193  53.6052939  98.9936717  79.3458320
  54.3152557  98.3529910  79.3044938  53.5622247  99.2449612  80.2684501
  61.5939717 105.9304071  82.2664899  61.5352264 105.2463291  81.5995482
  61.9959236 106.6723061  81.8145525  52.3181873  95.9801935  81.1653960
  51.7819230  95.5292674  81.8175556  51.7298581  96.1147844  80.4224424
  50.6130416 112.7465985  75.0598618  50.8527015 113.3784509  75.7377637
  49.7699613 112.3954025  75.3463977  51.7284132  95.4390587  63.7280423
  50.8513598  95.3179388  63.3642670  52.2041885  94.6476665  63.4759312
  61.5957125 103.8943655  80.4978879  60.7083904 103.5569577  80.6205278
  62.1655676 103.1626686  80.7347644  43.2486272 100.2267746  73.8221930
  43.9357312  99.9129477  73.2342946  43.0934401 101.1309111  73.5489182
  48.0520994  95.1157943  78.2506954  47.9679183  94.5083613  77.5157364
  47.2303700  95.6066961  78.2516450  55.1258278 108.5545107  77.4640122
  55.0528450 109.3600079  77.9759427  54.6835671 108.7537073  76.6388144
  54.9148058 107.7916877  70.9742944  54.1315580 108.3338557  71.0681168
  55.6140803 108.3090857  71.3737185  58.2244708  93.6011507  73.6177149
  58.7213407  92.8481469  73.2978219  57.4531689  93.6375823  73.0520358
  66.0774465  99.3051872  75.2595441  66.0664342 100.1876588  74.8889374
  65.2091845  98.9523423  75.0649978  57.5856962 108.4531941  79.6198281
  58.2984934 109.0879406  79.5474182  57.0946990 108.5495807  78.8038283
  59.3074489 102.3583194  71.1915572  58.3730767 102.4784656  71.0220277
  59.4851157 101.4555661  70.9275582  54.8079677  95.7428890  73.3448834
  54.4377464  95.1899930  74.0329739  55.3038769  95.1387023  72.7923834
  62.6947040  98.2000513  71.7265607  63.1607492  99.0328505  71.6525909
  63.1454540  97.7345495  72.4310865  52.6368875 106.2026385  80.4403852
  53.3378335 106.8362868  80.5933246  52.1663990 106.5441116  79.6799491
  60.7623271 104.5444334  68.7251759  61.0383115 104.4300929  69.6345633
  59.8927770 104.1461819  68.6863932  60.4370161  98.7570992  78.2656402
  59.7841611  99.0046899  77.6108855  60.8150541  97.9435130  77.9318879
  57.3977335 108.7930685  72.3684572  57.5799730 107.9752341  72.8312325
  58.2210321 109.0098377  71.9309462  57.7319501 107.7198870  69.6299621
  58.2607267 107.2091325  69.0169783  57.9947720 107.4041401  70.4945154
  48.2336593 105.7362740  77.3734954  48.8190030 104.9906428  77.5062859
  48.0361432 106.0466696  78.2571618  51.0875248 108.7713987  72.3897397
  50.4185624 109.2560115  71.9061437  50.9488118 109.0183207  73.3040775
  42.8254248  98.3068340  76.0939397  42.8638348  97.7731931  76.8876516
  42.3194541  97.7803545  75.4750375  55.2280517 110.8057731  78.9880055
  55.7798825 110.9689352  79.7529140  55.5686711 111.3962168  78.3160080
  49.6797283  95.2256013  83.2374974  50.3069322  94.8433090  83.8512498
  48.8225202  95.0070215  83.6030667  60.0791391 105.6318988  84.8428709
  60.6231295 106.2448946  84.3483664  59.4978236 106.1898566  85.3595722
  46.4562826  97.0332442  69.1693329  46.7516267  96.1243120  69.1160383
  45.5550861  97.0120181  68.8474331  58.3648904 108.7539706  75.9743737
  58.2400044 107.9529446  75.4654683  59.0227995 109.2485899  75.4857707
  49.9857073  95.1088439  75.1520877  49.2643658  95.7224406  75.0128351
  50.7750328  95.6446203  75.0737523  60.4283813 106.5548726  77.6023287
  59.4814148 106.4354077  77.5301614  60.7766586 105.6671224  77.6849549
  48.1850667  94.7146540  69.2932654  47.8563373  93.8343919  69.1107760
  48.5390038  94.6594208  70.1809043  57.4330246 106.3501442  73.8027640
  57.2855208 105.4218150  73.9835210  58.2583740 106.3721533  73.3184715
  51.2992490  95.0019509  69.6608132  51.6388563  95.5305431  68.9386740
  51.7464611  95.3399916  70.4366698  61.0364368 107.1730001  74.8892512
  61.9610915 106.9672862  74.7516963  60.8679671 106.9246402  75.7981854
  53.2860637  93.4994131  67.8601424  54.0069000  93.8775384  67.3565141
  52.6625942  94.2183008  67.9636402  57.4291760  94.2039280  68.7959757
  57.6455375  95.0863918  68.4948585  56.9485827  93.8125493  68.0665399
  52.1690982  97.1624993  75.3730501  52.0235562  97.4765296  76.2654783
  51.6916185  97.7809894  74.8201400  54.0287365  94.1527541  75.4211391
  54.0148933  93.2568635  75.0843689  54.7459793  94.1598205  76.0549677
  55.8813495  94.5864881  77.4664518  55.6231273  95.5081952  77.4648849
  55.3498536  94.1895316  78.1564982  60.8259684 107.6915669  70.2454604
  60.9996562 107.1262091  69.4928456  61.3188575 108.4916563  70.0634094
  46.6436644  99.7030338  78.3118163  46.0990112 100.4790146  78.4438437
  47.5215994 100.0501142  78.1537284  53.4324261  93.0341922  70.6898961
  53.5540172  92.1058568  70.8889849  53.1426303  93.0480607  69.7777276
  56.3015451  90.7196832  73.8265681  56.3237148  90.7836165  72.8717660
  56.7183510  89.8801341  74.0206187  66.6799075 100.4552092  71.8644903
  67.1230221  99.7059417  71.4664027  65.8025586 100.4462228  71.4818635
  61.8134857 107.0082433  67.3451502  62.5085761 107.6289126  67.5638817
  62.1558007 106.1577784  67.6203880  47.4302666  98.8300234  81.2048319
  46.6884402  98.9782869  81.7912950  47.1095410  99.0908500  80.3415069
  63.7126280 104.4582139  68.8738833  64.2377604 104.7969411  68.1488153
  63.6248632 103.5229154  68.6901967  55.3746328 108.3716212  81.0028709
  55.6833455 108.1265359  81.8751409  56.1721810 108.5762851  80.5147580
  55.3966940 110.5254122  73.2334086  54.9571931 110.0330500  73.9266943
  56.1475057 109.9827089  72.9926161  47.8759279 106.7165663  73.2358714
  48.7017299 106.4169435  72.8557358  47.5253331 105.9473285  73.6848503
  52.8440813 106.0692131  75.3056388  52.2220822 105.4062836  75.0058615
  53.5145679 106.0953263  74.6230035  46.0767884 104.6351989  74.1947648
  45.2399793 104.2074163  74.0131649  46.0491530 104.8284432  75.1318439
  63.4020186 105.0915042  84.1790031  62.6115729 105.0739181  83.6394530
  63.1653540 105.6303336  84.9339067  63.5218061 101.9407509  81.4922759
  63.5716066 101.7757516  82.4338282  63.4131984 101.0734768  81.1020640
  52.4054320 104.6196054  68.7814848  52.5542440 105.3031519  68.1281521
  53.2120763 104.6001144  69.2964304  60.8121823  97.9238437  82.8082066
  61.7131686  97.7844901  82.5166064  60.8869798  98.0892891  83.7480243
  65.0236258 104.3604450  81.7364781  64.7321066 104.7234431  82.5728242
  64.4108389 103.6471458  81.5578113  66.2231940 101.9257330  74.2567351
  67.0578831 102.3647134  74.4204911  66.3591069 101.4495983  73.4375597
  63.2723446  99.4837065  80.2044839  63.7477567  99.6764711  79.3963690
  62.3489011  99.5396250  79.9588222  50.1606952 100.6461232  69.7875917
  49.9152994  99.7423562  69.9856127  50.3302867 100.6478382  68.8455395
  49.4302600  96.3789589  67.2862079  48.7371845  96.4533944  66.6302115
  49.1854352  95.6149933  67.8083595  55.9049725 107.1144185  66.2526596
  55.3323692 107.7334372  65.7997067  56.4782519 107.6643546  66.7866518
  61.9725115  96.3602825  78.4373144  62.9242538  96.4600922  78.4585368
  61.8028565  95.5681093  78.9471229  59.1246985 107.3981335  67.3835178
  60.0577658 107.3326896  67.5868053  59.0370198 108.2337602  66.9249711
  61.7535001 106.7147205  64.3439125  61.6748633 106.3807069  65.2374883
  62.5744668 107.2068973  64.3430598  64.4513193  99.5808944  77.5515444
  64.4189513  98.6424945  77.7375128  65.0613816  99.6592981  76.8181269
  56.2896524  98.4504997  63.5942648  57.2355628  98.3211206  63.6631066
  55.9110768  97.7119659  64.0712076  64.6007681  96.3719988  77.5973727
  64.0846730  95.5878445  77.4103656  65.4847630  96.0438704  77.7620247
  62.2618408  90.1161003  73.5569540  62.0643229  89.8076092  74.4412872
  62.8718114  90.8422642  73.6867470  70.2689743 100.6424951  76.6921481
  70.9993131 100.3810239  77.2529184  69.6596688  99.9053673  76.7323549
  68.3505040  98.7832814  77.2895932  67.6238203  98.6488779  76.6812424
  67.9352327  99.0909642  78.0952650  56.1735216 102.5022744  85.0543305
  57.0938226 102.6801343  85.2483352  56.1384799 101.5578789  84.9023004
  54.4739441  96.3754974  63.5297533  53.5670896  96.0788087  63.6060247
  54.7515422  96.0784792  62.6631820  45.3917381  97.6961337  73.9796580
  45.0720165  96.8426645  73.6870954  44.8450809  97.9109915  74.7354547
  49.1697289 100.4123778  77.6966086  49.3883298 101.3440886  77.7154120
  49.5823062 100.0531753  78.4820890  56.0901506  90.9191864  69.6841775
  55.2802235  90.5738948  70.0597021  56.7785923  90.6099407  70.2729386
  58.0192055  89.9969910  71.3066071  58.5723093  90.4165364  71.9656094
  58.2562141  89.0705658  71.3489027  53.2438225  93.2341909  63.6709513
  54.1057389  93.5596807  63.9305330  53.4288569  92.4473405  63.1582578
  45.2605641 101.3164249  75.9489701  44.5669112 100.9018201  75.4359656
  46.0078632 101.3584785  75.3523120  61.3970862  92.1070435  70.8144736
  60.8169531  92.7655240  70.4322788  61.1306794  91.2847780  70.4032153
  59.8474428  91.5075493  73.0166056  60.3474207  91.6192028  72.2080375
  60.4910036  91.2036546  73.6566864  47.1742384 101.2482502  73.8255716
  47.1513072 101.3470190  72.8737599  47.4843020 102.0947653  74.1472882
  49.8329761 103.3058658  77.9402331  50.7873015 103.2742600  77.8732262
  49.6342285 102.8449281  78.7552557  50.4229144 101.8759774  80.5073128
  51.2422033 102.3703852  80.5307966  50.6965951 100.9591742  80.4790696
  60.1795740  94.2670526  69.8701084  59.2921595  94.5520176  69.6521279
  60.5949729  94.1064289  69.0228361  63.5310276  94.2917047  73.5855423
  64.3070666  94.7813499  73.8580040  62.8058410  94.7175101  74.0427293
  65.9682835  95.0044666  74.6429364  66.5627325  94.7640402  73.9322672
  66.0409418  94.2851797  75.2702900  48.1879990 108.8478277  74.9572528
  48.0534458 108.0878678  74.3910527  47.7712053 109.5719177  74.4901317
  59.3238953 104.0315201  63.9649104  60.0274803 104.2365203  64.5806759
  58.6001602 104.5991962  64.2298187  60.1536764  99.7825062  70.0851374
  60.0971965 100.2393613  69.2459006  60.7065106  99.0215746  69.9074217
  63.9641569  95.5714794  70.9101493  63.7078504  95.1711429  71.7409701
  63.3394437  96.2858588  70.7851633  68.2753907  98.3110867  73.4172785
  67.7153465  98.3804056  74.1904347  67.6697411  98.1351852  72.6972281
  51.3449116 109.7447594  75.1690971  51.2281500 110.6893027  75.0669661
  50.5241562 109.4421156  75.5576770  61.2325651 104.4697730  66.0147564
  62.0671255 104.0378928  65.8325039  61.0709994 104.2979743  66.9424458
  60.8871543 100.9729843  67.3803903  60.8320347 100.8074114  66.4392347
  60.2617598 101.6805876  67.5366093  45.6764058  96.2097907  81.2065325
  46.3222921  95.6996861  81.6952551  45.4681209  96.9466589  81.7808751
  58.2017450 103.2778755  86.7057466  59.0708610 103.4519407  86.3444101
  57.7224202 104.0973172  86.5833195  54.1967668  90.4737952  66.9589222
  54.1846338  91.4179792  67.1157492  55.0891090  90.2908097  66.6648683
  52.3703630 110.3975856  78.3846900  53.2730877 110.4299466  78.7013394
  52.1441000 109.4676307  78.3993235  54.1257232 109.1506842  75.0456978
  53.1752863 109.1508704  74.9321350  54.4289718 108.4039577  74.5293013
  58.0119788  87.0680729  71.2135158  57.2452184  86.5139215  71.3591841
  58.4230493  87.1402597  72.0749310  50.0161549  93.3565524  85.3040340
  50.8793010  93.0002329  85.5143664  49.4426959  93.0179419  85.9915744
  69.8609926 114.9867381  76.1102741  70.4988336 114.8674128  75.4066081
  69.7430769 115.9348225  76.1690693  66.6699632 114.9394809  76.0464265
  66.3318144 114.8235874  75.1584800  67.5389400 114.5385974  76.0265271
  62.5286448 116.7930285  72.0361156  61.9651313 116.7020222  71.2677444
  62.4138843 115.9730190  72.5163649  67.1519415 116.0929661  82.0050471
  67.1408056 115.6982459  81.1330974  67.3140055 115.3595733  82.5984242
  60.0750880 118.2881477  74.8745377  60.8672172 117.9472302  74.4591676
  60.3147530 118.3976452  75.7947530  68.1086006 120.4601253  67.3475621
  67.4573986 121.0455333  66.9609635  68.9030369 120.9907448  67.4070659
  62.0341634 117.5490390  67.7462755  62.8072510 117.0019377  67.6075631
  62.3867032 118.4134640  67.9577217  63.8726676 118.8766772  80.9529655
  63.5816542 119.7812403  80.8376321  64.5083661 118.9183300  81.6673724
  64.7982883 116.2543621  77.5431014  65.3946455 116.0299643  76.8287977
  64.8557855 115.5128366  78.1456462  64.3707911 113.7083056  65.3781205
  64.6233432 113.1864578  64.6164668  63.4332471 113.5449202  65.4807889
  69.4151194 112.7118835  73.1855949  70.2014283 112.2938258  72.8346366
  69.6789899 113.6164927  73.3537597  69.5861272 118.1491685  67.8844605
  68.9507105 118.2226312  68.5965510  69.2558678 118.7385284  67.2063685
  74.8159621 112.6494068  74.0888927  75.5484793 112.0793285  74.3226757
  74.0598977 112.2615668  74.5295433  64.0904200 115.6111162  67.5805580
  63.9740458 114.9356066  68.2486665  64.2006460 115.1243536  66.7637733
  66.4335741 115.0721309  71.2852270  66.0693948 114.5451930  71.9965191
  67.2902857 114.6819778  71.1118755  72.3385042 106.3615642  78.5483536
  72.0068367 107.2311053  78.3244751  71.7430655 106.0451926  79.2277566
  66.0741228 110.1011209  66.2813618  66.2415630 110.9691445  66.6484089
  65.8838397 110.2638491  65.3574907  68.8316561 118.5628188  77.9479448
  68.5317284 119.4653227  77.8395256  68.4867621 118.2960371  78.8000601
  62.2829043 115.0141985  73.9816153  61.3579539 114.8818199  74.1893845
  62.5313456 115.7936204  74.4786095  72.2313705 111.0810728  75.6276886
  71.3230582 111.0126137  75.3335647  72.1801301 111.5582673  76.4558711
  66.0530449 112.5568867  67.2660285  65.9330074 113.0025917  68.1045765
  65.3583037 112.9054184  66.7073823  59.6437854 114.6575258  74.8159942
  59.7730235 114.9109737  75.7299354  58.9635305 115.2502966  74.4964597
  63.8137341 125.3272508  70.9150416  63.7361371 126.2780333  70.9938897
  63.2098985 124.9818381  71.5725342  66.3054571 112.5000374  83.5711783
  65.5287905 113.0594294  83.5614648  66.9445134 112.9857157  84.0926653
  74.0975351 109.2827167  77.4054760  73.4549732 109.5759700  76.7594554
  73.5930280 109.1680087  78.2107956  71.7515515 113.0290340  68.0940619
  72.6633371 113.2617727  67.9188317  71.2425162 113.6127384  67.5315698
  64.5600943 115.3085827  83.1329750  65.3015628 115.8470871  82.8564574
  63.8537929 115.9352116  83.2901302  70.0356283 117.4514968  81.7301912
  70.4439639 117.0097378  80.9856544  69.3133544 116.8767595  81.9836104
  66.3887353 112.3887574  79.1035468  67.2348548 112.8126988  79.2470117
  66.3285990 111.7321199  79.7974032  70.3585097 118.0116158  75.4854200
  69.7293960 118.1761872  74.7830268  69.9710760 118.4257768  76.2565164
  74.2374329 118.9470596  72.8398564  73.5525367 119.3269497  72.2895597
  74.3218179 119.5565923  73.5730512  69.5386798 110.0491943  80.7616642
  69.2947730 110.8034003  80.2250918  69.8146729 110.4277290  81.5963889
  71.4925261 116.5930555  79.4393908  71.7042156 117.2362315  78.7628289
  71.4455009 115.7592872  78.9715838  69.0951490 109.2048376  76.3430480
  68.2335969 109.5029629  76.6347217  69.1213925 109.4218775  75.4111512
  65.9113059 117.7490566  72.7504286  66.3751405 118.0278269  71.9608908
  65.6469857 116.8474011  72.5677376  62.8037140 117.2962048  75.6884049
  63.3738497 117.7249316  75.0501533  63.3945252 117.0144633  76.3868234
  64.8481945 113.8713719  69.5593851  65.5505989 114.3234762  70.0267777
  64.5162574 113.2297538  70.1873744  63.2962307 112.4625475  83.9345060
  62.6660967 113.1441756  84.1680457  63.1898395 112.3508557  82.9898198
  58.5907279 112.1297271  74.8610984  57.8006333 112.3854800  74.3851095
  59.0818527 112.9445609  74.9663025  72.6071089 119.4702511  77.6116265
  73.4288533 119.0682698  77.3298947  72.6033492 119.3670745  78.5632381
  60.5422025 112.4941851  71.8194461  59.7453188 112.6060545  72.3377957
  60.3147617 112.8328503  70.9535351  66.3727692 119.0186554  79.7676976
  66.4372125 119.4806961  80.6035147  65.6638616 118.3883919  79.8959285
  56.8744982 112.3827762  77.2925975  57.1253021 113.2674772  77.5583551
  57.4104531 112.2032363  76.5201067  80.6977082 115.8141259  73.9601237
  79.9440790 115.2448657  73.8045241  80.8324623 115.7803923  74.9071871
  66.0875710 120.6854661  69.6355956  65.9521385 121.5306197  70.0640804
  66.6285522 120.8873939  68.8721890  62.5743050 106.7646241  86.2970311
  62.1809995 106.2112440  86.9717955  63.3909190 107.0756820  86.6876829
  59.5405107 118.2030099  70.2083881  60.0529628 118.9973350  70.3589446
  60.1927820 117.5056390  70.1417482  61.3499992 121.3195856  72.2906634
  61.5266620 122.2413820  72.1027618  62.1456826 121.0054275  72.7201014
  65.4911011 108.1804120  83.8890568  66.2320724 108.7811273  83.8095030
  65.7228933 107.4381758  83.3308610  60.6352349 113.3660488  82.1668797
  60.5205864 112.4645745  82.4675896  59.7796866 113.6124184  81.8153614
  67.7144186 121.3078228  83.7656298  67.2708041 120.5214606  83.4477202
  68.3761400 121.4957378  83.1000189  62.4731308 122.8374029  78.2916976
  63.0238733 122.7091093  77.5193970  61.6342783 123.1368918  77.9411869
  69.8125424 121.5881028  81.7937699  69.7943900 122.4089909  81.3017968
  70.7345344 121.4635103  82.0187840  66.2698479 119.1025157  82.6361208
  66.8026815 118.3413445  82.4060516  65.7412560 118.8098809  83.3785362
  69.4368174 104.2085223  78.1654849  69.0932443 105.0986865  78.0893960
  69.8047136 104.0186881  77.3024434  57.5054024 116.5318754  70.9843451
  58.3429246 116.9415762  70.7677159  57.6832292 115.5918196  70.9543645
  69.4018456 114.1993834  66.6727284  68.8865080 114.9698439  66.9115672
  69.1295765 113.5258970  67.2960346  66.9865567 109.0443535  71.7312523
  66.1307164 108.6550385  71.5518162  67.3992519 109.1235496  70.8712308
  68.5164714 106.5789878  76.1304083  68.0129510 106.5420013  75.3171888
  68.8095321 107.4882621  76.1900739  64.7607600 106.6628608  75.1370264
  65.6260597 106.4671417  74.7776154  64.8285109 106.4338960  76.0639621
  74.3752730 116.9526189  68.6080458  73.5982173 116.6137348  68.1635620
  75.0544211 116.9578812  67.9335423  69.1904759 112.0720926  68.4987066
  68.8854895 112.3867076  69.3497209  70.1435202 112.1502346  68.5414399
  67.6351191 118.2311150  70.1480020  67.1072553 117.4963909  69.8353257
  67.1338694 119.0085826  69.9019988  72.6144037 116.4260170  75.2647066
  71.9567712 117.1159432  75.3527195  73.4184437 116.8156602  75.6081052
  62.3669919 108.8930816  72.5086631  62.9413671 108.6705997  71.7759824
  62.9540901 108.9619510  73.2615232  71.4249496 114.7804543  73.3151008
  71.9381378 115.4134535  73.8172717  72.0750720 114.1805738  72.9494368
  62.6939506 110.9235277  66.5282516  61.8576818 111.2609964  66.8491791
  62.5544276 110.7884257  65.5909653  64.6692587 105.7672065  71.2361701
  64.0156999 105.4521082  70.6118315  64.6273061 105.1447805  71.9621523
  65.7803791 116.0491360  63.1514993  64.8730853 115.8180613  63.3506142
  66.2774823 115.2528979  63.3388974  68.6871870 124.7588867  66.0711679
  68.0133569 125.0620564  66.6796637  69.0737692 125.5617947  65.7217136
  67.9030327 112.2553998  75.5609348  66.9852888 112.4768945  75.4031036
  68.3190471 112.3300309  74.7021056  68.6865375 113.6545414  70.6912028
  69.4337194 114.1666811  70.3819150  68.9556964 113.3329467  71.5516422
  66.9592025 116.1503955  67.6738983  66.0503244 115.8662988  67.7711452
  66.9887109 116.5703033  66.8142290  72.1911292 119.7610544  71.4430150
  71.7373619 118.9201454  71.4995341  71.5605259 120.3971943  71.7804930
  71.1344212 110.6902530  72.6730818  70.3966969 110.1779917  73.0041060
  71.3870985 110.2502912  71.8614095  70.6344232 121.5987041  72.3779968
  70.9267206 122.1592098  71.6592334  71.1442852 121.8915602  73.1333128
  71.2355839 103.4678782  73.2672587  71.5414716 102.6076146  72.9798502
  71.9608444 104.0596403  73.0671581  57.5280195 113.8709469  71.6554185
  57.3304595 113.2778830  70.9305252  56.9726859 113.5661679  72.3730124
  65.5076919 113.7632575  73.7748778  65.5625529 112.8106412  73.6991255
  64.6968121 113.9192015  74.2590077  66.6568113 117.6912698  65.0127061
  66.2187543 116.9748557  64.5532699  67.3978554 117.9188813  64.4512153
  63.4469279 112.3809635  71.5339157  62.6337144 112.6803806  71.9404349
  63.9428273 111.9865324  72.2513639  65.5977857 122.3767392  73.4673422
  65.5554036 122.6028238  72.5381954  66.5140556 122.1430767  73.6159223
  69.0443491 112.8451460  80.3654051  69.3992878 113.0722933  81.2248517
  69.6915622 113.1769836  79.7431306  74.7741227 115.9669896  71.0703380
  74.6359126 116.1571492  70.1424569  74.4177446 116.7289278  71.5271431
  62.9383354 109.9527991  77.1500392  63.5782733 109.8116750  76.4523355
  62.1060884 109.6662504  76.7738994  74.8010607 118.0346423  76.0814651
  75.2347114 117.9421712  76.9297705  75.5142188 118.0103923  75.4434667
  63.7143658 119.2530421  73.2635384  64.5084256 118.7580741  73.0617959
  63.0035350 118.7248284  72.9003090  68.5338502 121.6348517  77.6147752
  68.5875524 122.2039453  78.3825468  67.6653283 121.8050402  77.2501789
  60.0226421 113.3973503  69.3395137  59.0924009 113.3357958  69.5565099
  60.1183893 112.8749456  68.5431778  59.9411970 109.9228316  71.9273379
  60.2018787 110.8373649  71.8182539  60.7629142 109.4552758  72.0769992
  61.4136895 111.3366073  79.0972203  62.0859949 111.1283435  78.4484852
  60.5866682 111.1388159  78.6577436  75.6626157 118.0770123  78.6147537
  75.8562047 118.9815934  78.8606812  75.5626775 117.6177542  79.4486122
  67.3162467 107.9628014  81.1137864  66.6690382 108.6617963  81.0202341
  68.0863483 108.3964158  81.4814112  70.7241265 118.2276866  84.1888417
  70.5726772 117.9987418  83.2718501  70.7145945 119.1847467  84.2019762
  67.4926602 115.8008779  79.1734684  68.4218662 115.9519938  79.0003651
  67.0717632 115.8892799  78.3183330  66.2914934 119.8259443  76.9433221
  66.1526019 119.4578228  77.8159160  65.5029530 120.3407083  76.7717179
  66.8863085 124.9268540  68.2858758  67.0614841 124.4556583  69.1004381
  66.1995874 125.5534306  68.5140019  67.8420149 119.2041046  74.3322059
  67.5069981 119.1641816  75.2279709  67.3424094 118.5385762  73.8592469
  61.8164393 114.6108676  79.8574640  61.6784191 113.8788915  80.4586179
  62.7269316 114.5217576  79.5758828  70.7779340 116.5497080  64.6059119
  70.1608511 115.8243908  64.5092172  70.3095829 117.3106440  64.2626193
  64.4446693 114.3228635  79.3458320  65.1546312 113.6821827  79.3044938
  64.4016001 114.5741530  80.2684501  72.4333472 121.2595988  82.2664899
  72.3746018 120.5755209  81.5995482  72.8352990 122.0014979  81.8145525
  63.1575627 111.3093853  81.1653960  62.6212984 110.8584591  81.8175556
  62.5692336 111.4439762  80.4224424  62.5677886 110.7682504  63.7280423
  61.6907353 110.6471305  63.3642670  63.0435639 109.9768583  63.4759312
  72.4350879 119.2235572  80.4978879  71.5477658 118.8861494  80.6205278
  73.0049430 118.4918604  80.7347644  54.0880026 115.5559664  73.8221930
  54.7751066 115.2421394  73.2342946  53.9328155 116.4601029  73.5489182
  58.8914749 110.4449861  78.2506954  58.8072937 109.8375530  77.5157364
  58.0697455 110.9358879  78.2516450  65.9652033 123.8837025  77.4640122
  65.8922204 124.6891996  77.9759427  65.5229426 124.0828991  76.6388144
  65.7541812 123.1208795  70.9742944  64.9709334 123.6630475  71.0681168
  66.4534557 123.6382774  71.3737185  69.0638462 108.9303424  73.6177149
  69.5607162 108.1773387  73.2978219  68.2925444 108.9667741  73.0520358
  76.9168220 114.6343790  75.2595441  76.9058096 115.5168505  74.8889374
  76.0485599 114.2815341  75.0649978  68.4250716 123.7823859  79.6198281
  69.1378688 124.4171324  79.5474182  67.9340745 123.8787725  78.8038283
  70.1468243 117.6875111  71.1915572  69.2124522 117.8076574  71.0220277
  70.3244912 116.7847578  70.9275582  65.6473431 111.0720807  73.3448834
  65.2771219 110.5191848  74.0329739  66.1432524 110.4678941  72.7923834
  73.5340794 113.5292431  71.7265607  74.0001247 114.3620422  71.6525909
  73.9848295 113.0637412  72.4310865  63.4762630 121.5318302  80.4403852
  64.1772089 122.1654785  80.5933246  63.0057745 121.8733034  79.6799491
  71.6017026 119.8736252  68.7251759  71.8776869 119.7592847  69.6345633
  70.7321524 119.4753737  68.6863932  71.5057457 105.8973018  75.7656508
  70.5920537 106.1277245  75.9338715  71.9350559 105.9811462  76.6170540
  71.2763916 114.0862910  78.2656402  70.6235366 114.3338817  77.6108855
  71.6544296 113.2727048  77.9318879  68.2371090 124.1222603  72.3684572
  68.4193484 123.3044259  72.8312325  69.0604076 124.3390295  71.9309462
  68.5713255 123.0490788  69.6299621  69.1001021 122.5383243  69.0169783
  68.8341475 122.7333318  70.4945154  67.3251489 114.8282721  84.7522439
  66.6492126 114.7276850  85.4224814  68.1479123 114.6721935  85.2158436
  59.0730348 121.0654657  77.3734954  59.6583785 120.3198345  77.5062859
  58.8755186 121.3758614  78.2571618  61.9269003 124.1005905  72.3897397
  61.2579378 124.5852032  71.9061437  61.7881873 124.3475125  73.3040775
  53.6648002 113.6360258  76.0939397  53.7032102 113.1023848  76.8876516
  53.1588295 113.1095463  75.4750375  66.0674272 126.1349648  78.9880055
  66.6192580 126.2981270  79.7529140  66.4080465 126.7254086  78.3160080
  61.0438765 108.4824798  79.5901940  61.1080091 109.3439629  79.1779337
  60.9805885 107.8698800  78.8574298  60.5191037 110.5547931  83.2374974
  61.1463076 110.1725008  83.8512498  59.6618956 110.3362133  83.6030667
  70.9185146 120.9610906  84.8428709  71.4625050 121.5740864  84.3483664
  70.3371991 121.5190484  85.3595722  57.2956580 112.3624360  69.1693329
  57.5910021 111.4535038  69.1160383  56.3944616 112.3412099  68.8474331
  69.2042659 124.0831624  75.9743737  69.0793798 123.2821364  75.4654683
  69.8621750 124.5777817  75.4857707  60.8250827 110.4380356  75.1520877
  60.1037413 111.0516324  75.0128351  61.6144083 110.9738121  75.0737523
  71.2677567 121.8840644  77.6023287  70.3207903 121.7645995  77.5301614
  71.6160340 120.9963142  77.6849549  63.6277141 107.7734783  81.4261529
  64.1511542 108.0197079  82.1887838  63.4089474 108.6054818  81.0064667
  59.0244422 110.0438457  69.2932654  58.6957128 109.1635836  69.1107760
  59.3783792 109.9886126  70.1809043  68.2724001 121.6793360  73.8027640
  68.1248963 120.7510067  73.9835210  69.0977494 121.7013451  73.3184715
  62.1386245 110.3311427  69.6608132  62.4782317 110.8597348  68.9386740
  62.5858365 110.6691833  70.4366698  71.8758122 122.5021919  74.8892512
  72.8004670 122.2964780  74.7516963  71.7073426 122.2538320  75.7981854
  64.8329686 108.7148478  79.1111200  64.4926506 107.9156291  79.5131880
  64.1268692 109.0150189  78.5388033  65.4846157 105.7997790  77.5638523
  66.3072227 105.3258268  77.4417413  65.7284221 106.5788274  78.0637209
  64.1254392 108.8286049  67.8601424  64.8462754 109.2067302  67.3565141
  63.5019696 109.5474926  67.9636402  68.2685515 109.5331198  68.7959757
  68.4849129 110.4155836  68.4948585  67.7879582 109.1417411  68.0665399
  63.0084736 112.4916911  75.3730501  62.8629317 112.8057214  76.2654783
  62.5309940 113.1101811  74.8201400  64.8681119 109.4819459  75.4211391
  64.8542688 108.5860552  75.0843689  65.5853547 109.4890123  76.0549677
  66.7207250 109.9156799  77.4664518  66.4625028 110.8373870  77.4648849
  66.1892290 109.5187234  78.1564982  71.6653439 123.0207586  70.2454604
  71.8390316 122.4554009  69.4928456  72.1582330 123.8208481  70.0634094
  57.4830398 115.0322255  78.3118163  56.9383866 115.8082063  78.4438437
  58.3609748 115.3793060  78.1537284  64.2718015 108.3633839  70.6898961
  64.3933926 107.4350485  70.8889849  63.9820057 108.3772525  69.7777276
  67.1409205 106.0488750  73.8265681  67.1630902 106.1128083  72.8717660
  67.5577264 105.2093258  74.0206187  77.5192830 115.7844009  71.8644903
  77.9623976 115.0351334  71.4664027  76.6419340 115.7754146  71.4818635
  72.6528611 122.3374351  67.3451502  73.3479516 122.9581043  67.5638817
  72.9951761 121.4869702  67.6203880  58.2696420 114.1592152  81.2048319
  57.5278156 114.3074787  81.7912950  57.9489165 114.4200417  80.3415069
  74.5520034 119.7874056  68.8738833  75.0771358 120.1261329  68.1488153
  74.4642387 118.8521072  68.6901967  66.2140083 123.7008130  81.0028709
  66.5227209 123.4557277  81.8751409  67.0115565 123.9054768  80.5147580
  66.2360695 125.8546039  73.2334086  65.7965685 125.3622418  73.9266943
  66.9868812 125.3119007  72.9926161  58.7153034 122.0457580  73.2358714
  59.5411054 121.7461352  72.8557358  58.3647086 121.2765203  73.6848503
  63.6834567 121.3984049  75.3056388  63.0614576 120.7354754  75.0058615
  64.3539434 121.4245180  74.6230035  56.9161639 119.9643907  74.1947648
  56.0793547 119.5366081  74.0131649  56.8885284 120.1576350  75.1318439
  63.7559095 109.8765837  84.8988894  63.8047250 110.7527959  84.5166663
  64.2981609 109.3343230  84.3260537  74.2413940 120.4206960  84.1790031
  73.4509484 120.4031099  83.6394530  74.0047295 120.9595254  84.9339067
  74.3611815 117.2699426  81.4922759  74.4109820 117.1049434  82.4338282
  74.2525739 116.4026685  81.1020640  63.2448074 119.9487972  68.7814848
  63.3936194 120.6323436  68.1281521  64.0514517 119.9293062  69.2964304
  71.6515578 113.2530354  82.8082066  72.5525440 113.1136819  82.5166064
  71.7263552 113.4184809  83.7480243  65.9858383 110.6297209  81.6535252
  65.1161692 110.9230775  81.3817841  66.2217863 111.2137654  82.3742516
  75.8630012 119.6896368  81.7364781  75.5714820 120.0526348  82.5728242
  75.2502143 118.9763376  81.5578113  77.0625694 117.2549247  74.2567351
  77.8972586 117.6939052  74.4204911  77.1984823 116.7787901  73.4375597
  74.1117200 114.8128982  80.2044839  74.5871322 115.0056629  79.3963690
  73.1882766 114.8688168  79.9588222  61.0000707 115.9753150  69.7875917
  60.7546749 115.0715480  69.9856127  61.1696622 115.9770300  68.8455395
  68.6897417 106.8476826  79.1700673  69.2079361 107.5837853  78.8447161
  68.3352550 107.1540819  80.0047432  60.2696355 111.7081507  67.2862079
  59.5765599 111.7825862  66.6302115  60.0248106 110.9441851  67.8083595
  68.9410011 103.2677108  74.6901569  69.2211765 102.6000297  75.3161996
  69.7260618 103.4606204  74.1776233  66.7443480 122.4436102  66.2526596
  66.1717447 123.0626289  65.7997067  67.3176273 122.9935464  66.7866518
  72.8118869 111.6894742  78.4373144  73.7636292 111.7892840  78.4585368
  72.6422320 110.8973011  78.9471229  70.8333249 108.7750326  78.6232545
  70.2383181 109.0555338  77.9279034  70.5482946 109.2644227  79.3949286
  69.9640739 122.7273252  67.3835178  70.8971412 122.6618814  67.5868053
  69.8763952 123.5629519  66.9249711  72.5928756 122.0439123  64.3439125
  72.5142388 121.7098986  65.2374883  73.4138423 122.5360891  64.3430598
  75.2906947 114.9100862  77.5515444  75.2583267 113.9716863  77.7375128
  75.9007571 114.9884899  76.8181269  67.1290278 113.7796915  63.5942648
  68.0749383 113.6503123  63.6631066  66.7504523 113.0411577  64.0712076
  75.4401436 111.7011906  77.5973727  74.9240484 110.9170362  77.4103656
  76.3241384 111.3730622  77.7620247  73.1012163 105.4452921  73.5569540
  72.9036984 105.1368009  74.4412872  73.7111868 106.1714560  73.6867470
  81.1083497 115.9716869  76.6921481  81.8386885 115.7102157  77.2529184
  80.4990442 115.2345591  76.7323549  79.1898794 114.1124732  77.2895932
  78.4631958 113.9780696  76.6812424  78.7746081 114.4201560  78.0952650
  67.0128971 117.8314661  85.0543305  67.9331980 118.0093260  85.2483352
  66.9778554 116.8870707  84.9023004  65.3133195 111.7046891  63.5297533
  64.4064651 111.4080004  63.6060247  65.5909176 111.4076710  62.6631820
  56.2311136 113.0253255  73.9796580  55.9113920 112.1718563  73.6870954
  55.6844564 113.2401833  74.7354547  60.0091043 115.7415696  77.6966086
  60.2277053 116.6732804  77.7154120  60.4216817 115.3823670  78.4820890
  66.9295261 106.2483781  69.6841775  66.1195989 105.9030866  70.0597021
  67.6179678 105.9391325  70.2729386  68.8585809 105.3261828  71.3066071
  69.4116848 105.7457281  71.9656094  69.0955896 104.3997576  71.3489027
  64.8818908 111.3148902  87.0868835  64.7815635 112.2643259  87.0180926
  64.6640450 110.9867141  86.2144905  64.0831980 108.5633827  63.6709513
  64.9451144 108.8888725  63.9305330  64.2682324 107.7765323  63.1582578
  56.0999396 116.6456166  75.9489701  55.4062867 116.2310119  75.4359656
  56.8472387 116.6876703  75.3523120  72.2364616 107.4362353  70.8144736
  71.6563285 108.0947157  70.4322788  71.9700549 106.6139698  70.4032153
  70.6868183 106.8367411  73.0166056  71.1867961 106.9483945  72.2080375
  71.3303791 106.5328464  73.6566864  64.7450178 114.7446040  85.9033897
  64.2617260 115.5446401  86.1097786  64.8311118 114.7553985  84.9501341
  58.0136138 116.5774420  73.8255716  57.9906826 116.6762107  72.8737599
  58.3236775 117.4239571  74.1472882  60.6723516 118.6350575  77.9402331
  61.6266770 118.6034518  77.8732262  60.4736040 118.1741199  78.7552557
  61.2622898 117.2051691  80.5073128  62.0815787 117.6995770  80.5307966
  61.5359706 116.2883659  80.4790696  71.0189494 109.5962444  69.8701084
  70.1315349 109.8812094  69.6521279  71.4343483 109.4356207  69.0228361
  74.3704030 109.6208965  73.5855423  75.1464421 110.1105417  73.8580040
  73.6452165 110.0467019  74.0427293  76.8076589 110.3336584  74.6429364
  77.4021080 110.0932320  73.9322672  76.8803173 109.6143714  75.2702900
  59.0273745 124.1770195  74.9572528  58.8928213 123.4170596  74.3910527
  58.6105807 124.9011095  74.4901317  70.1632708 119.3607118  63.9649104
  70.8668558 119.5657121  64.5806759  69.4395357 119.9283880  64.2298187
  70.9930518 115.1116979  70.0851374  70.9365719 115.5685531  69.2459006
  71.5458861 114.3507664  69.9074217  74.8035324 110.9006711  70.9101493
  74.5472258 110.5003347  71.7409701  74.1788192 111.6150505  70.7851633
  79.1147662 113.6402785  73.4172785  78.5547220 113.7095974  74.1904347
  78.5091165 113.4643769  72.6972281  62.1842871 125.0739512  75.1690971
  62.0675255 126.0184944  75.0669661  61.3635317 124.7713073  75.5576770
  72.0719405 119.7989647  66.0147564  72.9065009 119.3670846  65.8325039
  71.9103748 119.6271661  66.9424458  71.7265297 116.3021761  67.3803903
  71.6714101 116.1366032  66.4392347  71.1011353 117.0097794  67.5366093
  56.5157812 111.5389825  81.2065325  57.1616676 111.0288779  81.6952551
  56.3074963 112.2758507  81.7808751  69.0411205 118.6070673  86.7057466
  69.9102364 118.7811325  86.3444101  68.5617956 119.4265089  86.5833195
  65.0361423 105.8029870  66.9589222  65.0240093 106.7471710  67.1157492
  65.9284845 105.6200015  66.6648683  63.2097385 125.7267774  78.3846900
  64.1124631 125.7591384  78.7013394  62.9834755 124.7968225  78.3993235
  64.9650987 124.4798760  75.0456978  64.0146618 124.4800622  74.9321350
  65.2683473 123.7331495  74.5293013  68.8513542 102.3972646  71.2135158
  68.0845938 101.8431133  71.3591841  69.2624247 102.4694515  72.0749310
  60.8555303 108.6857442  85.3040340  61.7186765 108.3294247  85.5143664
  60.2820714 108.3471337  85.9915744  80.7003680 130.3159299  76.1102741
  81.3382090 130.1966046  75.4066081  80.5824523 131.2640142  76.1690693
  77.5093387 130.2686727  76.0464265  77.1711898 130.1527791  75.1584800
  78.3783155 129.8677892  76.0265271  77.9913170 131.4221578  82.0050471
  77.9801810 131.0274377  81.1330974  78.1533809 130.6887651  82.5984242
  75.2101666 129.0374974  65.3781205  75.4627187 128.5156495  64.6164668
  74.2726225 128.8741119  65.4807889  80.2544949 128.0410752  73.1855949
  81.0408038 127.6230176  72.8346366  80.5183653 128.9456845  73.3537597
  85.6553376 127.9785986  74.0888927  86.3878548 127.4085202  74.3226757
  84.8992732 127.5907586  74.5295433  77.2729496 130.4013227  71.2852270
  76.9087703 129.8743848  71.9965191  78.1296612 130.0111696  71.1118755
  83.1778796 121.6907560  78.5483536  82.8462121 122.5602971  78.3244751
  82.5824410 121.3743844  79.2277566  76.9134983 125.4303127  66.2813618
  77.0809385 126.2983363  66.6484089  76.7232152 125.5930408  65.3574907
  83.0707460 126.4102646  75.6276886  82.1624337 126.3418054  75.3335647
  83.0195055 126.8874591  76.4558711  76.8924203 127.8860784  67.2660285
  76.7723829 128.3317835  68.1045765  76.1976792 128.2346102  66.7073823
  77.1448325 127.8292291  83.5711783  76.3681659 128.3886212  83.5614648
  77.7838888 128.3149074  84.0926653  84.9369106 124.6119084  77.4054760
  84.2943486 124.9051617  76.7594554  84.4324034 124.4972005  78.2107956
  82.5909270 128.3582257  68.0940619  83.5027126 128.5909644  67.9188317
  82.0818917 128.9419302  67.5315698  80.8750037 132.7806885  81.7301912
  81.2833393 132.3389296  80.9856544  80.1527299 132.2059513  81.9836104
  77.2281107 127.7179492  79.1035468  78.0742303 128.1418906  79.2470117
  77.1679745 127.0613116  79.7974032  80.3780553 125.3783860  80.7616642
  80.1341485 126.1325921  80.2250918  80.6540483 125.7569208  81.5963889
  82.3319015 131.9222473  79.4393908  82.5435911 132.5654233  78.7628289
  82.2848764 131.0884789  78.9715838  79.9345244 124.5340293  76.3430480
  79.0729723 124.8321547  76.6347217  79.9607679 124.7510692  75.4111512
  75.6875700 129.2005636  69.5593851  76.3899743 129.6526680  70.0267777
  75.3556328 128.5589455  70.1873744  74.1356061 127.7917393  83.9345060
  73.5054722 128.4733674  84.1680457  74.0292149 127.6800475  82.9898198
  69.4301034 127.4589189  74.8610984  68.6400088 127.7146718  74.3851095
  69.9212281 128.2737527  74.9663025  71.3815779 127.8233768  71.8194461
  70.5846942 127.9352463  72.3377957  71.1541371 128.1620420  70.9535351
  73.4136804 122.0938159  86.2970311  73.0203750 121.5404357  86.9717955
  74.2302944 122.4048737  86.6876829  76.3304765 123.5096038  83.8890568
  77.0714478 124.1103191  83.8095030  76.5622688 122.7673676  83.3308610
  71.4746103 128.6952405  82.1668797  71.3599618 127.7937662  82.4675896
  70.6190621 128.9416102  81.8153614  80.2761928 119.5377141  78.1654849
  79.9326197 120.4278783  78.0893960  80.6440891 119.3478798  77.3024434
  80.2412211 129.5285752  66.6727284  79.7258834 130.2990357  66.9115672
  79.9689519 128.8550888  67.2960346  77.8259322 124.3735453  71.7312523
  76.9700918 123.9842303  71.5518162  78.2386274 124.4527414  70.8712308
  79.3558468 121.9081796  76.1304083  78.8523264 121.8711931  75.3171888
  79.6489075 122.8174539  76.1900739  75.6001354 121.9920526  75.1370264
  76.4654351 121.7963334  74.7776154  75.6678863 121.7630878  76.0639621
  80.0298514 127.4012844  68.4987066  79.7248650 127.7158993  69.3497209
  80.9828956 127.4794264  68.5414399  73.2063673 124.2222734  72.5086631
  73.7807425 123.9997915  71.7759824  73.7934656 124.2911428  73.2615232
  82.2643251 130.1096461  73.3151008  82.7775132 130.7426452  73.8172717
  82.9144474 129.5097656  72.9494368  73.5333260 126.2527195  66.5282516
  72.6970573 126.5901881  66.8491791  73.3938030 126.1176174  65.5909653
  75.5086341 121.0963983  71.2361701  74.8550753 120.7813000  70.6118315
  75.4666815 120.4739723  71.9621523  76.6197546 131.3783278  63.1514993
  75.7124608 131.1472531  63.3506142  77.1168578 130.5820897  63.3388974
  78.7424081 127.5845916  75.5609348  77.8246643 127.8060863  75.4031036
  79.1584225 127.6592227  74.7021056  79.5259129 128.9837332  70.6912028
  80.2730948 129.4958729  70.3819150  79.7950719 128.6621385  71.5516422
  77.7985779 131.4795873  67.6738983  76.8896999 131.1954905  67.7711452
  77.8280863 131.8994951  66.8142290  81.9737966 126.0194448  72.6730818
  81.2360723 125.5071834  73.0041060  82.2264740 125.5794830  71.8614095
  82.0749594 118.7970700  73.2672587  82.3808471 117.9368063  72.9798502
  82.8002199 119.3888320  73.0671581  76.3470673 129.0924493  73.7748778
  76.4019283 128.1398330  73.6991255  75.5361875 129.2483932  74.2590077
  74.2863033 127.7101553  71.5339157  73.4730899 128.0095723  71.9404349
  74.7822028 127.3157242  72.2513639  79.8837245 128.1743377  80.3654051
  80.2386633 128.4014850  81.2248517  80.5309376 128.5061754  79.7431306
  73.7777108 125.2819908  77.1500392  74.4176487 125.1408667  76.4523355
  72.9454639 124.9954422  76.7738994  70.8620175 128.7265421  69.3395137
  69.9317764 128.6649876  69.5565099  70.9577647 128.2041373  68.5431778
  70.7805725 125.2520233  71.9273379  71.0412542 126.1665567  71.8182539
  71.6022897 124.7844676  72.0769992  72.2530650 126.6657991  79.0972203
  72.9253703 126.4575353  78.4484852  71.4260436 126.4680077  78.6577436
  78.1556222 123.2919931  81.1137864  77.5084137 123.9909881  81.0202341
  78.9257237 123.7256075  81.4814112  78.3320356 131.1300696  79.1734684
  79.2612416 131.2811856  79.0003651  77.9111386 131.2184717  78.3183330
  72.6558147 129.9400594  79.8574640  72.5177945 129.2080832  80.4586179
  73.5663071 129.8509494  79.5758828  81.6173095 131.8788998  64.6059119
  81.0002265 131.1535826  64.5092172  81.1489583 132.6398358  64.2626193
  75.2840448 129.6520553  79.3458320  75.9940066 129.0113745  79.3044938
  75.2409756 129.9033448  80.2684501  73.9969382 126.6385771  81.1653960
  73.4606739 126.1876509  81.8175556  73.4086090 126.7731680  80.4224424
  73.4071641 126.0974422  63.7280423  72.5301107 125.9763223  63.3642670
  73.8829394 125.3060500  63.4759312  69.7308503 125.7741778  78.2506954
  69.6466692 125.1667448  77.5157364  68.9091209 126.2650797  78.2516450
  79.9032217 124.2595342  73.6177149  80.4000916 123.5065304  73.2978219
  79.1319198 124.2959659  73.0520358  76.4867186 126.4012725  73.3448834
  76.1164973 125.8483765  74.0329739  76.9826278 125.7970858  72.7923834
  84.3734549 128.8584348  71.7265607  84.8395001 129.6912340  71.6525909
  84.8242049 128.3929330  72.4310865  82.3451212 121.2264935  75.7656508
  81.4314291 121.4569162  75.9338715  82.7744313 121.3103380  76.6170540
  82.1157670 129.4154827  78.2656402  81.4629120 129.6630735  77.6108855
  82.4938050 128.6018966  77.9318879  78.1645243 130.1574638  84.7522439
  77.4885880 130.0568768  85.4224814  78.9872877 130.0013852  85.2158436
  71.8832519 123.8116716  79.5901940  71.9473846 124.6731547  79.1779337
  71.8199640 123.1990717  78.8574298  71.3584792 125.8839848  83.2374974
  71.9856831 125.5016926  83.8512498  70.5012711 125.6654050  83.6030667
  68.1350335 127.6916277  69.1693329  68.4303776 126.7826956  69.1160383
  67.2338370 127.6704017  68.8474331  71.6644582 125.7672274  75.1520877
  70.9431167 126.3808242  75.0128351  72.4537837 126.3030039  75.0737523
  74.4670895 123.1026700  81.4261529  74.9905297 123.3488997  82.1887838
  74.2483228 123.9346735  81.0064667  69.8638176 125.3730375  69.2932654
  69.5350882 124.4927754  69.1107760  70.2177547 125.3178044  70.1809043
  72.9779999 125.6603345  69.6608132  73.3176072 126.1889266  68.9386740
  73.4252120 125.9983751  70.4366698  75.6723440 124.0440396  79.1111200
  75.3320260 123.2448209  79.5131880  74.9662446 124.3442106  78.5388033
  76.3239912 121.1289708  77.5638523  77.1465981 120.6550186  77.4417413
  76.5677975 121.9080192  78.0637209  74.9648146 124.1577966  67.8601424
  75.6856509 124.5359219  67.3565141  74.3413451 124.8766843  67.9636402
  79.1079269 124.8623115  68.7959757  79.3242884 125.7447753  68.4948585
  78.6273336 124.4709329  68.0665399  73.8478491 127.8208829  75.3730501
  73.7023071 128.1349132  76.2654783  73.3703694 128.4393729  74.8201400
  75.7074874 124.8111377  75.4211391  75.6936442 123.9152470  75.0843689
  76.4247302 124.8182040  76.0549677  77.5601004 125.2448717  77.4664518
  77.3018782 126.1665787  77.4648849  77.0286045 124.8479151  78.1564982
  75.1111770 123.6925757  70.6898961  75.2327681 122.7642403  70.8889849
  74.8213812 123.7064443  69.7777276  77.9802960 121.3780667  73.8265681
  78.0024657 121.4420000  72.8717660  78.3971019 120.5385176  74.0206187
  74.5952849 125.2057754  84.8988894  74.6441005 126.0819877  84.5166663
  75.1375363 124.6635147  84.3260537  82.4909332 128.5822272  82.8082066
  83.3919195 128.4428737  82.5166064  82.5657307 128.7476727  83.7480243
  76.8252138 125.9589127  81.6535252  75.9555447 126.2522693  81.3817841
  77.0611618 126.5429572  82.3742516  84.9510955 130.1420900  80.2044839
  85.4265076 130.3348546  79.3963690  84.0276520 130.1980086  79.9588222
  79.5291171 122.1768744  79.1700673  80.0473115 122.9129771  78.8447161
  79.1746304 122.4832737  80.0047432  71.1090109 127.0373425  67.2862079
  70.4159354 127.1117780  66.6302115  70.8641861 126.2733768  67.8083595
  79.7803766 118.5969026  74.6901569  80.0605519 117.9292215  75.3161996
  80.5654372 118.7898122  74.1776233  83.6512624 127.0186660  78.4373144
  84.6030047 127.1184758  78.4585368  83.4816074 126.2264929  78.9471229
  81.6727003 124.1042243  78.6232545  81.0776935 124.3847256  77.9279034
  81.3876700 124.5936144  79.3949286  77.9684033 129.1088833  63.5942648
  78.9143137 128.9795041  63.6631066  77.5898277 128.3703495  64.0712076
  86.2795190 127.0303823  77.5973727  85.7634239 126.2462280  77.4103656
  87.1635139 126.7022540  77.7620247  83.9405917 120.7744839  73.5569540
  83.7430738 120.4659927  74.4412872  84.5505623 121.5006478  73.6867470
  76.1526950 127.0338809  63.5297533  75.2458405 126.7371922  63.6060247
  76.4302931 126.7368627  62.6631820  77.7689015 121.5775699  69.6841775
  76.9589744 121.2322784  70.0597021  78.4573432 121.2683243  70.2729386
  79.6979564 120.6553746  71.3066071  80.2510602 121.0749199  71.9656094
  79.9349650 119.7289494  71.3489027  75.7212663 126.6440819  87.0868835
  75.6209390 127.5935176  87.0180926  75.5034205 126.3159058  86.2144905
  74.9225734 123.8925744  63.6709513  75.7844898 124.2180643  63.9305330
  75.1076078 123.1057240  63.1582578  83.0758371 122.7654271  70.8144736
  82.4957040 123.4239075  70.4322788  82.8094303 121.9431615  70.4032153
  81.5261937 122.1659329  73.0166056  82.0261715 122.2775863  72.2080375
  82.1697545 121.8620381  73.6566864  75.5843933 130.0737958  85.9033897
  75.1011015 130.8738318  86.1097786  75.6704872 130.0845903  84.9501341
  81.8583249 124.9254361  69.8701084  80.9709104 125.2104012  69.6521279
  82.2737238 124.7648125  69.0228361  85.2097785 124.9500882  73.5855423
  85.9858175 125.4397335  73.8580040  84.4845919 125.3758936  74.0427293
  87.6470344 125.6628501  74.6429364  88.2414834 125.4224237  73.9322672
  87.7196927 124.9435632  75.2702900  81.8324273 130.4408897  70.0851374
  81.7759474 130.8977449  69.2459006  82.3852615 129.6799582  69.9074217
  85.6429078 126.2298629  70.9101493  85.3866013 125.8295265  71.7409701
  85.0181946 126.9442423  70.7851633  82.5659052 131.6313678  67.3803903
  82.5107856 131.4657950  66.4392347  81.9405107 132.3389711  67.5366093
  67.3551567 126.8681743  81.2065325  68.0010430 126.3580697  81.6952551
  67.1468718 127.6050424  81.7808751  75.8755177 121.1321787  66.9589222
  75.8633847 122.0763627  67.1157492  76.7678599 120.9491933  66.6648683
  79.6907297 117.7264564  71.2135158  78.9239693 117.1723051  71.3591841
  80.1018002 117.7986433  72.0749310  71.6949058 124.0149360  85.3040340
  72.5580519 123.6586165  85.5143664  71.1214468 123.6763255  85.9915744
  15.6641155  15.3469915  62.8348047  16.3019565  15.2276662  62.1311387
  15.5461997  16.2950759  62.8935999  12.4730861  15.2997343  62.7709572
  12.1349372  15.1838408  61.8830107  13.3420629  14.8988508  62.7510578
   8.3317677  17.1532820  58.7606463   7.7682542  17.0622757  57.9922751
   8.2170072  16.3332724  59.2408955  12.9550644  16.4532195  68.7295777
  12.9439285  16.0584993  67.8576281  13.1171283  15.7198268  69.3229549
   5.8782108  18.6484011  61.5990683   6.6703400  18.3074836  61.1836983
   6.1178759  18.7578986  62.5192837  13.9117235  20.8203787  54.0720928
  13.2605215  21.4057868  53.6854942  14.7061598  21.3509982  54.1315965
   7.8372862  17.9092924  54.4708062   8.6103738  17.3621912  54.3320938
   8.1898261  18.7737174  54.6822523   9.6757905  19.2369307  67.6774961
   9.3847771  20.1414938  67.5621628  10.3114889  19.2785834  68.3919031
  10.6014112  16.6146155  64.2676321  11.1977684  16.3902178  63.5533284
  10.6589083  15.8730901  64.8701769  10.1739140  14.0685591  52.1026512
  10.4264661  13.5467112  51.3409975   9.2363699  13.9051736  52.2053196
  15.2182423  13.0721369  59.9101255  16.0045512  12.6540792  59.5591672
  15.4821127  13.9767461  60.0782904  15.3892500  18.5094219  54.6089912
  14.7538333  18.5828846  55.3210817  15.0589907  19.0987818  53.9308991
  20.6190850  13.0096602  60.8134234  21.3516022  12.4395819  61.0472063
  19.8630206  12.6218203  61.2540739   9.8935429  15.9713697  54.3050887
   9.7771687  15.2958600  54.9731971  10.0037689  15.4846070  53.4883040
  12.2366970  15.4323844  58.0097576  11.8725177  14.9054465  58.7210498
  13.0934086  15.0422313  57.8364062  18.1416271   6.7218176  65.2728842
  17.8099595   7.5913587  65.0490057  17.5461884   6.4054460  65.9522873
  11.8772457  10.4613743  53.0058925  12.0446859  11.3293980  53.3729396
  11.6869626  10.6241025  52.0820214  14.6347790  18.9230722  64.6724755
  14.3348513  19.8255761  64.5640562  14.2898850  18.6562905  65.5245908
   8.0860272  15.3744519  60.7061460   7.1610768  15.2420733  60.9139151
   8.3344685  16.1538738  61.2031402  18.0344934  11.4413262  62.3522192
  17.1261811  11.3728671  62.0580953  17.9832530  11.9185207  63.1804018
  11.8561678  12.9171401  53.9905592  11.7361303  13.3628452  54.8291072
  11.1614266  13.2656718  53.4319130   5.4469083  15.0177793  61.5405249
   5.5761464  15.2712272  62.4544660   4.7666534  15.6105501  61.2209904
   9.6168570  25.6875043  57.6395723   9.5392600  26.6382868  57.7184203
   9.0130213  25.3420915  58.2970649  12.1085800  12.8602908  70.2957090
  11.3319134  13.4196828  70.2859954  12.7476363  13.3459691  70.8171960
  19.9006580   9.6429701  64.1300066  19.2580961   9.9362234  63.4839861
  19.3961509   9.5282621  64.9353263  17.5546744  13.3892874  54.8185926
  18.4664600  13.6220261  54.6433623  17.0456391  13.9729918  54.2561004
  10.3632172  15.6688361  69.8575057  11.1046856  16.2073405  69.5809880
   9.6569157  16.2954650  70.0146608  15.8387512  17.8117502  68.4547218
  16.2470868  17.3699912  67.7101851  15.1164773  17.2370129  68.7081411
  12.1918582  12.7490109  65.8280775  13.0379777  13.1729522  65.9715424
  12.1317219  12.0923733  66.5219338  16.1616326  18.3718692  62.2099507
  15.5325189  18.5364407  61.5075575  15.7741988  18.7860302  62.9810471
  20.0405558  19.3073130  59.5643871  19.3556596  19.6872032  59.0140904
  20.1249407  19.9168457  60.2975819  15.3418027  10.4094477  67.4861949
  15.0978959  11.1636537  66.9496224  15.6177957  10.7879825  68.3209196
  17.2956490  16.9533089  66.1639214  17.5073385  17.5964849  65.4873595
  17.2486238  16.1195406  65.6961144  14.8982719   9.5650910  63.0675786
  14.0367198   9.8632164  63.3592524  14.9245153   9.7821309  62.1356819
  11.7144288  18.1093101  59.4749592  12.1782634  18.3880804  58.6854215
  11.4501086  17.2076545  59.2922683   8.6068369  17.6564582  62.4129355
   9.1769726  18.0851850  61.7746840   9.1976481  17.3747167  63.1113541
  10.6513174  14.2316253  56.2839157  11.3537218  14.6837297  56.7513084
  10.3193803  13.5900072  56.9119050   9.0993536  12.8228010  70.6590367
   8.4692196  13.5044290  70.8925763   8.9929624  12.7111091  69.7143505
  18.4102318  19.8305045  64.3361572  19.2319761  19.4285232  64.0544253
  18.4064721  19.7273279  65.2877687  12.1758921  19.3789088  66.4922282
  12.2403354  19.8409495  67.3280454  11.4669845  18.7486453  66.6204592
  26.5008311  16.1743793  60.6846543  25.7472019  15.6051191  60.5290548
  26.6355852  16.1406458  61.6317178  11.8906939  21.0457196  56.3601262
  11.7552614  21.8908731  56.7886110  12.4316751  21.2476473  55.5967196
   5.3436336  18.5632634  56.9329188   5.8560857  19.3575884  57.0834752
   5.9959049  17.8658924  56.8662789   7.1531221  21.6798390  59.0151941
   7.3297849  22.6016355  58.8272925   7.9488054  21.3656809  59.4446321
  13.5175415  21.6680762  70.4901605  13.0739269  20.8817141  70.1722509
  14.1792629  21.8559913  69.8245495   8.2762536  23.1976564  65.0162283
   8.8269961  23.0693627  64.2439277   7.4374012  23.4971453  64.6657176
  15.6156653  21.9483562  68.5183006  15.5975129  22.7692443  68.0263275
  16.5376573  21.8237637  68.7433147  12.0729707  19.4627691  69.3606514
  12.6058044  18.7015980  69.1305822  11.5443788  19.1701343  70.1030669
  15.2049685  14.5596368  53.3972591  14.6896309  15.3300973  53.6360978
  14.9326994  13.8861505  54.0205653  20.1783959  17.3128723  55.3325765
  19.4013402  16.9739883  54.8880927  20.8575440  17.3181346  54.6580730
  14.9935988  12.4323461  55.2232372  14.6886124  12.7469610  56.0742515
  15.9466430  12.5104880  55.2659705  13.4382420  18.5913684  56.8725326
  12.9103782  17.8566443  56.5598564  12.9369923  19.3688360  56.6265295
  18.4175266  16.7862704  61.9892373  17.7598941  17.4761966  62.0772501
  19.2215665  17.1759136  62.3326359  17.2280725  15.1407077  60.0396314
  17.7412607  15.7737069  60.5418024  17.8781949  14.5408273  59.6739674
  11.5835020  16.4093894  49.8760299  10.6762082  16.1783148  50.0751448
  12.0806052  15.6131513  50.0634281  14.4903099  25.1191401  52.7956985
  13.8164798  25.4223098  53.4041943  14.8768921  25.9220482  52.4462442
  13.7061556  12.6156533  62.2854655  12.7884117  12.8371480  62.1276343
  14.1221699  12.6902843  61.4266362  14.4896604  14.0147948  57.4157335
  15.2368422  14.5269346  57.1064457  14.7588193  13.6932001  58.2761729
  12.7623254  16.5106489  54.3984289  11.8534473  16.2265522  54.4956759
  12.7918338  16.9305568  53.5387596  17.9942521  20.1213079  58.1675457
  17.5404848  19.2803988  58.2240647  17.3636488  20.7574477  58.5050237
  16.9375441  11.0505065  59.3976124  16.1998197  10.5382451  59.7286367
  17.1902214  10.6105446  58.5859401  16.4375460  21.9589575  59.1025275
  16.7298435  22.5194632  58.3837641  16.9474081  22.2518136  59.8578434
  11.3108148  14.1235110  60.4994085  11.3656758  13.1708946  60.4236561
  10.4999350  14.2794549  60.9835383  12.4599342  18.0515233  51.7372368
  12.0218771  17.3351092  51.2778005  13.2009782  18.2791348  51.1757459
   9.2500508  12.7412169  58.2584464   8.4368373  13.0406340  58.6649656
   9.7459502  12.3467858  58.9758946  11.4009086  22.7369926  60.1918728
  11.3585264  22.9630773  59.2627260  12.3171784  22.5033301  60.3404529
  14.8474719  13.2053994  67.0899357  15.2024107  13.4325467  67.9493823
  15.4946851  13.5372371  66.4676613  20.5772456  16.3272430  57.7948687
  20.4390355  16.5174026  56.8669876  20.2208675  17.0891813  58.2516738
  20.6041836  18.3948957  62.8059958  21.0378343  18.3024246  63.6543012
  21.3173417  18.3706457  62.1679974   9.5174886  19.6132955  59.9880691
  10.3115485  19.1183275  59.7863266   8.8066579  19.0850818  59.6248397
  14.3369731  21.9951051  64.3393059  14.3906753  22.5641987  65.1070775
  13.4684512  22.1652936  63.9747096  21.4657385  18.4372657  65.3392843
  21.6593276  19.3418468  65.5852118  21.3658004  17.9780076  66.1731428
  16.5272494  18.5879400  70.9133724  16.3758001  18.3589952  69.9963808
  16.5177174  19.5450002  70.9265069  13.2957831  16.1611313  65.8979990
  14.2249891  16.3122473  65.7248958  12.8748861  16.2495334  65.0428637
  12.0946162  20.1861977  63.6678528  11.9557248  19.8180762  64.5404466
  11.3060759  20.7009617  63.4962486  12.6894314  25.2871074  55.0104065
  12.8646070  24.8159117  55.8249687  12.0027102  25.9136840  55.2385325
  13.6451377  19.5643580  61.0567366  13.3101210  19.5244350  61.9525016
  13.1455323  18.8988296  60.5837776   7.6195621  14.9711210  66.5819947
   7.4815419  14.2391449  67.1831486   8.5300545  14.8820110  66.3004135
  16.5810569  16.9099614  51.3304426  15.9639740  16.1846443  51.2337478
  16.1127058  17.6708975  50.9871500  10.2477922  14.6831169  66.0703627
  10.9577541  14.0424362  66.0290245  10.2047230  14.9344064  66.9929807
  18.2364701  21.6198523  68.9910206  18.1777247  20.9357743  68.3240789
  18.6384219  22.3617513  68.5390832   7.2555400  28.4360437  61.7843925
   7.4951998  29.0678961  62.4622943   6.4124596  28.0848477  62.0709284
  18.2382108  19.5838107  67.2224186  17.3508887  19.2464028  67.3450584
  18.8080659  18.8521138  67.4592951  11.7683261  24.2439559  64.1885429
  11.6953433  25.0494530  64.7004733  11.3260655  24.4431525  63.3633450
  11.5573041  23.4811329  57.6988250  10.7740563  24.0233009  57.7926475
  12.2565786  23.9985309  58.0982491  14.8669691   9.2905958  60.3422456
  15.3638391   8.5375921  60.0223526  14.0956673   9.3270275  59.7765665
  22.7199449  14.9946324  61.9840747  22.7089325  15.8771039  61.6134680
  21.8516828  14.6417875  61.7895284  14.2281945  24.1426393  66.3443587
  14.9409917  24.7773858  66.2719489  13.7371974  24.2390259  65.5283589
  15.9499472  18.0477646  57.9160879  15.0155751  18.1679108  57.7465583
  16.1276140  17.1450112  57.6520889  11.4504660  11.4323341  60.0694140
  11.0802447  10.8794382  60.7575046  11.9463752  10.8281475  59.5169140
  19.3372023  13.8894965  58.4510913  19.8032475  14.7222957  58.3771216
  19.7879524  13.4239947  59.1556172   9.2793859  21.8920836  67.1649158
   9.9803318  22.5257319  67.3178552   8.8088974  22.2335568  66.4044798
  17.4048254  20.2338786  55.4497065  17.6808098  20.1195381  56.3590939
  16.5352753  19.8356271  55.4109238  17.0795144  14.4465444  64.9901709
  16.4266595  14.6941351  64.3354161  17.4575524  13.6329582  64.6564186
  14.0402318  24.4825137  59.0929879  14.2224713  23.6646793  59.5557631
  14.8635304  24.6992829  58.6554769  14.3744484  23.4093322  56.3544927
  14.9032250  22.8985777  55.7415089  14.6372703  23.0935852  57.2190460
  13.1282717  15.1885255  71.4767746  12.4523355  15.0879384  72.1470121
  13.9510351  15.0324469  71.9403743   4.8761577  21.4257192  64.0980261
   5.4615013  20.6800879  64.2308165   4.6786415  21.7361148  64.9816925
   7.7300232  24.4608439  59.1142703   7.0610607  24.9454567  58.6306743
   7.5913101  24.7077659  60.0286082  11.8705500  26.4952182  65.7125362
  12.4223808  26.6583804  66.4774447  12.2111694  27.0856620  65.0405387
  16.7216375  21.3213440  71.5674016  17.2656279  21.9343398  71.0728971
  16.1403220  21.8793018  72.0841029  15.0073888  24.4434158  62.6989044
  14.8825027  23.6423898  62.1899989  15.6652979  24.9380351  62.2103014
  17.0708796  22.2443178  64.3268594  16.1239132  22.1248529  64.2546921
  17.4191569  21.3565676  64.4094855  14.0755229  22.0395894  60.5272946
  13.9280192  21.1112602  60.7080516  14.9008723  22.0615985  60.0430021
  17.6789351  22.8624453  61.6137819  18.6035899  22.6567314  61.4762270
  17.5104655  22.6140854  62.5227160  14.0716744   9.8933732  55.5205063
  14.2880358  10.7758370  55.2193892  13.5910811   9.5019945  54.7910705
   8.8115965  12.8519445  62.0975808   8.6660546  13.1659748  62.9900089
   8.3341169  13.4704345  61.5446707  17.4684667  23.3810120  56.9699910
  17.6421545  22.8156543  56.2173763  17.9613559  24.1811015  56.7879400
  23.3224059  16.1446543  58.5890210  23.7655205  15.3953869  58.1909333
  22.4450569  16.1356680  58.2063942  18.4559840  22.6976885  54.0696809
  19.1510745  23.3183578  54.2884123  18.7982990  21.8472236  54.3449187
  20.3551263  20.1476590  55.5984139  20.8802587  20.4863863  54.8733459
  20.2673616  19.2123606  55.4147274  12.0171312  24.0610664  67.7274016
  12.3258438  23.8159811  68.5996716  12.8146794  24.2657303  67.2392886
  12.0391924  26.2148574  59.9579393  11.5996914  25.7224952  60.6512249
  12.7900041  25.6721541  59.7171468   4.5184263  22.4060115  59.9604021
   5.3442283  22.1063886  59.5802664   4.1678315  21.6367737  60.4093809
   9.4865796  21.7586583  62.0301694   8.8645805  21.0957288  61.7303922
  10.1570663  21.7847715  61.3475342   2.7192868  20.3246441  60.9192954
   1.8824776  19.8968615  60.7376956   2.6916513  20.5178884  61.8563745
  20.0445169  20.7809494  70.9035337  19.2540713  20.7633633  70.3639837
  19.8078524  21.3197788  71.6584374  20.1643044  17.6301960  68.2168066
  20.2141049  17.4651968  69.1583589  20.0556967  16.7629219  67.8265947
   9.0479303  20.3090506  55.5060155   9.1967423  20.9925970  54.8526828
   9.8545746  20.2895596  56.0209611  17.4546807  13.6132888  69.5327373
  18.3556669  13.4739353  69.2411370  17.5294781  13.7787343  70.4725550
  11.7889612  10.9899743  68.3780559  10.9192921  11.2833309  68.1063147
  12.0249092  11.5740188  69.0987823  21.6661241  20.0498902  68.4610087
  21.3746049  20.4128882  69.2973548  21.0533372  19.3365910  68.2823420
  22.8656923  17.6151782  60.9812658  23.7003815  18.0541586  61.1450218
  23.0016052  17.1390435  60.1620903  19.9148429  15.1731517  66.9290145
  20.3902551  15.3659163  66.1208997  18.9913995  15.2290702  66.6833529
   6.8031936  16.3355684  56.5121224   6.5577978  15.4318014  56.7101434
   6.9727850  16.3372834  55.5700702  12.5474708  22.8038637  52.9771902
  11.9748675  23.4228824  52.5242374  13.1207502  23.3537998  53.5111824
  18.6150098  12.0497277  65.1618451  19.5667521  12.1495374  65.1830675
  18.4453549  11.2575545  65.6716535  16.6364478   9.1352860  65.3477852
  16.0414410   9.4157873  64.6524341  16.3514174   9.6246761  66.1194593
  15.7671968  23.0875787  54.1080485  16.7002641  23.0221348  54.3113360
  15.6795181  23.9232054  53.6495017  18.3959985  22.4041657  51.0684432
  18.3173616  22.0701521  51.9620190  19.2169652  22.8963425  51.0675904
  21.0938176  15.2703396  64.2760751  21.0614496  14.3319397  64.4620435
  21.7038800  15.3487433  63.5426576  12.9321507  14.1399449  50.3187955
  13.8780612  14.0105657  50.3876373  12.5535752  13.4014111  50.7957383
  21.2432664  12.0614440  64.3219034  20.7271713  11.2772896  64.1348963
  22.1272613  11.7333156  64.4865553  18.9043391   5.8055455  60.2814847
  18.7068213   5.4970544  61.1658179  19.5143097   6.5317094  60.4112776
  26.9114726  16.3319403  63.4166787  27.6418114  16.0704691  63.9774491
  26.3021671  15.5948125  63.4568855  24.9930023  14.4727266  64.0141239
  24.2663187  14.3383231  63.4057730  24.5777310  14.7804094  64.8197957
  12.8160199  18.1917195  71.7788612  13.7363209  18.3695794  71.9728658
  12.7809782  17.2473241  71.6268311  11.1164424  12.0649426  50.2542840
  10.2095879  11.7682538  50.3305554  11.3940405  11.7679244  49.3877126
   5.8122272  16.1018230  64.4211393   6.0308282  17.0335338  64.4399427
   6.2248046  15.7426204  65.2066197  10.6850137  11.6751436  73.8114142
  10.5846864  12.6245793  73.7426233  10.4671679  11.3469675  72.9390212
  18.0395845   7.7964887  57.5390042  17.4594514   8.4549691  57.1568095
  17.7731778   6.9742232  57.1277460  16.4899411   7.1969945  59.7411362
  16.9899190   7.3086480  58.9325681  17.1335019   6.8930998  60.3812171
  10.5481407  15.1048575  72.6279203  10.0648489  15.9048935  72.8343092
  10.6342346  15.1156520  71.6746647   3.8167367  16.9376954  60.5501023
   3.7938055  17.0364642  59.5982906   4.1268003  17.7842105  60.8718189
   6.4754745  18.9953109  64.6647637   7.4297998  18.9637052  64.5977569
   6.2767268  18.5343733  65.4797863   7.0654127  17.5654225  67.2318435
   7.8847016  18.0598304  67.2553272   7.3390935  16.6486194  67.2036002
  16.8220723   9.9564978  56.5946390  15.9346578  10.2414628  56.3766585
  17.2374712   9.7958741  55.7473667  20.1735259   9.9811499  60.3100730
  20.9495649  10.4707951  60.5825346  19.4483393  10.4069553  60.7672599
  22.6107818  10.6939118  61.3674670  23.2052309  10.4534854  60.6567979
  22.6834402   9.9746249  61.9948207   4.8304974  24.5372729  61.6817835
   4.6959441  23.7773130  61.1155833   4.4137036  25.2613629  61.2146624
  15.9663937  19.7209652  50.6894410  16.6699787  19.9259655  51.3052066
  15.2426585  20.2886414  50.9543494  16.7961747  15.4719514  56.8096681
  16.7396948  15.9288065  55.9704313  17.3490089  14.7110198  56.6319523
  20.6066553  11.2609246  57.6346800  20.3503487  10.8605881  58.4655008
  19.9819421  11.9753039  57.5096939  24.9178891  14.0005319  60.1418091
  24.3578449  14.0698508  60.9149654  24.3122394  13.8246303  59.4217588
   7.9874099  25.4342046  61.8936278   7.8706484  26.3787478  61.7914968
   7.1666546  25.1315607  62.2822077  17.8750634  20.1592182  52.7392870
  18.7096238  19.7273380  52.5570345  17.7134977  19.9874195  53.6669765
  17.5296526  16.6624295  54.1049210  17.4745330  16.4968566  53.1637654
  16.9042581  17.3700328  54.2611399  14.8442433  18.9673207  73.4302773
  15.7133593  19.1413859  73.0689407  14.3649185  19.7867624  73.3078502
   9.0128614  26.0870308  65.1092206   9.9155860  26.1193918  65.4258701
   8.7865984  25.1570759  65.1238542  10.7682216  24.8401294  61.7702285
   9.8177847  24.8403156  61.6566657  11.0714702  24.0934029  61.2538319
  26.5034909  30.6761833  62.8348047  27.1413319  30.5568580  62.1311387
  26.3855752  31.6242677  62.8935999  23.3124615  30.6289261  62.7709572
  22.9743127  30.5130326  61.8830107  24.1814384  30.2280426  62.7510578
  19.1711431  32.4824737  58.7606463  18.6076296  32.3914674  57.9922751
  19.0563826  31.6624642  59.2408955  23.7944398  31.7824113  68.7295777
  23.7833039  31.3876911  67.8576281  23.9565038  31.0490185  69.3229549
  16.7175863  33.9775929  61.5990683  17.5097155  33.6366753  61.1836983
  16.9572513  34.0870904  62.5192837  24.7510990  36.1495705  54.0720928
  24.0998970  36.7349785  53.6854942  25.5455353  36.6801900  54.1315965
  18.6766617  33.2384842  54.4708062  19.4497493  32.6913829  54.3320938
  19.0292016  34.1029091  54.6822523  20.5151659  34.5661224  67.6774961
  20.2241525  35.4706855  67.5621628  21.1508644  34.6077752  68.3919031
  21.4407866  31.9438073  64.2676321  22.0371439  31.7194095  63.5533284
  21.4982838  31.2022818  64.8701769  21.0132895  29.3977508  52.1026512
  21.2658415  28.8759029  51.3409975  20.0757454  29.2343654  52.2053196
  26.0576178  28.4013287  59.9101255  26.8439267  27.9832710  59.5591672
  26.3214882  29.3059379  60.0782904  26.2286255  33.8386137  54.6089912
  25.5932088  33.9120763  55.3210817  25.8983661  34.4279736  53.9308991
  31.4584605  28.3388520  60.8134234  32.1909777  27.7687737  61.0472063
  30.7023960  27.9510120  61.2540739  20.7329183  31.3005614  54.3050887
  20.6165442  30.6250518  54.9731971  20.8431443  30.8137988  53.4883040
  23.0760724  30.7615761  58.0097576  22.7118932  30.2346382  58.7210498
  23.9327840  30.3714230  57.8364062  28.9810025  22.0510094  65.2728842
  28.6493350  22.9205505  65.0490057  28.3855638  21.7346378  65.9522873
  22.7166211  25.7905661  53.0058925  22.8840614  26.6585897  53.3729396
  22.5263380  25.9532943  52.0820214  25.4741545  34.2522640  64.6724755
  25.1742268  35.1547679  64.5640562  25.1292604  33.9854823  65.5245908
  18.9254026  30.7036437  60.7061460  18.0004523  30.5712651  60.9139151
  19.1738439  31.4830656  61.2031402  28.8738688  26.7705180  62.3522192
  27.9655566  26.7020588  62.0580953  28.8226284  27.2477125  63.1804018
  22.6955432  28.2463318  53.9905592  22.5755057  28.6920369  54.8291072
  22.0008021  28.5948636  53.4319130  16.2862837  30.3469710  61.5405249
  16.4155218  30.6004189  62.4544660  15.6060288  30.9397418  61.2209904
  20.4562324  41.0166960  57.6395723  20.3786354  41.9674785  57.7184203
  19.8523968  40.6712833  58.2970649  22.9479554  28.1894826  70.2957090
  22.1712888  28.7488746  70.2859954  23.5870117  28.6751609  70.8171960
  30.7400335  24.9721618  64.1300066  30.0974715  25.2654152  63.4839861
  30.2355263  24.8574539  64.9353263  28.3940498  28.7184792  54.8185926
  29.3058355  28.9512178  54.6433623  27.8850145  29.3021836  54.2561004
  21.2025926  30.9980279  69.8575057  21.9440611  31.5365323  69.5809880
  20.4962912  31.6246568  70.0146608  26.6781266  33.1409419  68.4547218
  27.0864622  32.6991830  67.7101851  25.9558528  32.5662047  68.7081411
  23.0312336  28.0782026  65.8280775  23.8773531  28.5021440  65.9715424
  22.9710974  27.4215651  66.5219338  27.0010081  33.7010610  62.2099507
  26.3718943  33.8656324  61.5075575  26.6135743  34.1152220  62.9810471
  30.8799313  34.6365048  59.5643871  30.1950351  35.0163949  59.0140904
  30.9643162  35.2460375  60.2975819  26.1811781  25.7386395  67.4861949
  25.9372713  26.4928455  66.9496224  26.4571712  26.1171742  68.3209196
  28.1350244  32.2825007  66.1639214  28.3467139  32.9256767  65.4873595
  28.0879992  31.4487324  65.6961144  25.7376473  24.8942828  63.0675786
  24.8760952  25.1924081  63.3592524  25.7638908  25.1113227  62.1356819
  22.5538043  33.4385018  59.4749592  23.0176388  33.7172721  58.6854215
  22.2894841  32.5368463  59.2922683  19.4462124  32.9856500  62.4129355
  20.0163481  33.4143768  61.7746840  20.0370236  32.7039084  63.1113541
  21.4906929  29.5608171  56.2839157  22.1930972  30.0129214  56.7513084
  21.1587557  28.9191989  56.9119050  19.9387290  28.1519927  70.6590367
  19.3085951  28.8336208  70.8925763  19.8323378  28.0403009  69.7143505
  15.2332263  27.8191723  61.5856291  14.4431317  28.0749252  61.1096401
  15.7243510  28.6340061  61.6908331  29.2496072  35.1596962  64.3361572
  30.0713516  34.7577150  64.0544253  29.2458475  35.0565197  65.2877687
  17.1847008  28.1836302  58.5439768  16.3878171  28.2954997  59.0623263
  16.9572600  28.5222955  57.6780658  23.0152676  34.7081006  66.4922282
  23.0797108  35.1701413  67.3280454  22.3063600  34.0778371  66.6204592
  13.5169966  28.0722214  64.0171282  13.7678004  28.9569224  64.2828858
  14.0529514  27.8926815  63.2446373  37.3402065  31.5035711  60.6846543
  36.5865774  30.9343109  60.5290548  37.4749606  31.4698375  61.6317178
  22.7300693  36.3749113  56.3601262  22.5946368  37.2200649  56.7886110
  23.2710506  36.5768391  55.5967196  19.2168033  22.4540693  73.0215618
  18.8234978  21.9006892  73.6963262  20.0334173  22.7651272  73.4122135
  16.1830091  33.8924551  56.9329188  16.6954611  34.6867801  57.0834752
  16.8352803  33.1950842  56.8662789  17.9924975  37.0090308  59.0151941
  18.1691604  37.9308272  58.8272925  18.7881809  36.6948727  59.4446321
  22.1335994  23.8698572  70.6135874  22.8745707  24.4705725  70.5340337
  22.3653917  23.1276210  70.0553917  17.2777332  29.0554939  68.8914104
  17.1630847  28.1540197  69.1921203  16.4221850  29.3018636  68.5398921
  24.3569170  36.9972680  70.4901605  23.9133024  36.2109058  70.1722509
  25.0186383  37.1851830  69.8245495  19.1156291  38.5268481  65.0162283
  19.6663716  38.3985545  64.2439277  18.2767767  38.8263370  64.6657176
  26.4550408  37.2775480  68.5183006  26.4368883  38.0984361  68.0263275
  27.3770328  37.1529555  68.7433147  22.9123462  34.7919609  69.3606514
  23.4451799  34.0307897  69.1305822  22.3837543  34.4993261  70.1030669
  26.0793157  19.8979675  64.8900156  25.7357426  20.7881317  64.8139267
  26.4472119  19.7081333  64.0269741  14.1479007  32.2213206  57.7088758
  14.9854229  32.6310214  57.4922466  14.3257275  31.2812648  57.6788952
  26.0443440  29.8888286  53.3972591  25.5290063  30.6592891  53.6360978
  25.7720748  29.2153422  54.0205653  23.6290551  24.7337987  58.4557829
  22.7732147  24.3444837  58.2763468  24.0417502  24.8129948  57.5957615
  25.1589697  22.2684330  62.8549389  24.6554493  22.2314465  62.0417195
  25.4520304  23.1777073  62.9146046  21.4032583  22.3523060  61.8615571
  22.2685580  22.1565869  61.5021460  21.4710092  22.1233412  62.7884928
  31.0177714  32.6420641  55.3325765  30.2407156  32.3031800  54.8880927
  31.6969195  32.6473264  54.6580730  25.8329743  27.7615378  55.2232372
  25.5279878  28.0761527  56.0742515  26.7860185  27.8396798  55.2659705
  24.2776175  33.9205602  56.8725326  23.7497536  33.1858361  56.5598564
  23.7763677  34.6980278  56.6265295  29.2569021  32.1154622  61.9892373
  28.5992695  32.8053883  62.0772501  30.0609420  32.5051054  62.3326359
  19.0094902  24.5825268  59.2331938  19.5838654  24.3600449  58.5005131
  19.5965885  24.6513962  59.9860539  28.0674479  30.4698995  60.0396314
  28.5806361  31.1028987  60.5418024  28.7175703  29.8700190  59.6739674
  19.3364489  26.6129729  53.2527823  18.5001802  26.9504415  53.5737098
  19.1969259  26.4778709  52.3154960  21.3117570  21.4566517  57.9607007
  20.6581982  21.1415534  57.3363622  21.2698044  20.8342257  58.6866830
  22.4228775  31.7385812  49.8760299  21.5155837  31.5075065  50.0751448
  22.9199807  30.9423431  50.0634281  25.3296854  40.4483319  52.7956985
  24.6558552  40.7515016  53.4041943  25.7162676  41.2512399  52.4462442
  24.5455310  27.9448450  62.2854655  23.6277872  28.1663397  62.1276343
  24.9615454  28.0194761  61.4266362  25.3290358  29.3439866  57.4157335
  26.0762177  29.8561263  57.1064457  25.5981948  29.0223919  58.2761729
  23.6017008  31.8398407  54.3984289  22.6928227  31.5557440  54.4956759
  23.6312092  32.2597485  53.5387596  28.8336276  35.4504996  58.1675457
  28.3798603  34.6095906  58.2240647  28.2030242  36.0866395  58.5050237
  27.7769195  26.3796982  59.3976124  27.0391952  25.8674368  59.7286367
  28.0295969  25.9397364  58.5859401  27.2769215  37.2881493  59.1025275
  27.5692189  37.8486550  58.3837641  27.7867835  37.5810054  59.8578434
  27.8780822  19.1573234  59.9917894  28.1839699  18.2970598  59.7043809
  28.6033427  19.7490854  59.7916888  14.1705179  29.5603921  58.3799492
  13.9729578  28.9673282  57.6550558  13.6151843  29.2556131  59.0975430
  22.1501902  29.4527027  60.4994085  22.2050512  28.5000864  60.4236561
  21.3393104  29.6086466  60.9835383  23.2993096  33.3807150  51.7372368
  22.8612526  32.6643009  51.2778005  24.0403537  33.6083265  51.1757459
  20.0894262  28.0704087  58.2584464  19.2762128  28.3698258  58.6649656
  20.5853256  27.6759776  58.9758946  22.2402840  38.0661844  60.1918728
  22.1979019  38.2922690  59.2627260  23.1565539  37.8325219  60.3404529
  25.6868474  28.5345912  67.0899357  26.0417862  28.7617385  67.9493823
  26.3340605  28.8664288  66.4676613  31.4166211  31.6564347  57.7948687
  31.2784109  31.8465943  56.8669876  31.0602430  32.4183730  58.2516738
  19.5808337  25.6422443  63.8745699  20.2207716  25.5011202  63.1768662
  18.7485867  25.3556956  63.4984301  31.4435590  33.7240874  62.8059958
  31.8772097  33.6316164  63.6543012  32.1567171  33.6998375  62.1679974
  20.3568641  34.9424873  59.9880691  21.1509239  34.4475193  59.7863266
  19.6460333  34.4142736  59.6248397  25.1763485  37.3242969  64.3393059
  25.2300508  37.8933905  65.1070775  24.3078267  37.4944854  63.9747096
  16.6651404  29.0867955  56.0640444  15.7348992  29.0252410  56.2810406
  16.7608876  28.5643908  55.2677085  16.5836953  25.6122768  58.6518685
  16.8443771  26.5268101  58.5427846  17.4054126  25.1447210  58.8015298
  18.0561879  27.0260525  65.8217510  18.7284932  26.8177887  65.1730159
  17.2291665  26.8282611  65.3822742  32.3051140  33.7664575  65.3392843
  32.4987030  34.6710386  65.5852118  32.2051758  33.3071994  66.1731428
  23.9587451  23.6522466  67.8383171  23.3115366  24.3512415  67.7447647
  24.7288466  24.0858610  68.2059419  27.3666249  33.9171318  70.9133724
  27.2151755  33.6881870  69.9963808  27.3570928  34.8741919  70.9265069
  24.1351585  31.4903231  65.8979990  25.0643645  31.6414390  65.7248958
  23.7142615  31.5787251  65.0428637  22.9339917  35.5153895  63.6678528
  22.7951003  35.1472679  64.5404466  22.1454513  36.0301534  63.4962486
  23.5288069  40.6162991  55.0104065  23.7039824  40.1451035  55.8249687
  22.8420857  41.2428758  55.2385325  24.4845132  34.8935498  61.0567366
  24.1494965  34.8536268  61.9525016  23.9849078  34.2280214  60.5837776
  18.4589376  30.3003128  66.5819947  18.3209174  29.5683367  67.1831486
  19.3694299  30.2112028  66.3004135  27.4204324  32.2391532  51.3304426
  26.8033494  31.5138360  51.2337478  26.9520812  33.0000892  50.9871500
  21.0871677  30.0123087  66.0703627  21.7971295  29.3716279  66.0290245
  21.0440985  30.2635982  66.9929807  29.0758455  36.9490440  68.9910206
  29.0171001  36.2649661  68.3240789  29.4777974  37.6909430  68.5390832
  19.8000611  26.9988305  67.8899266  19.2637968  26.5479043  68.5420862
  19.2117319  27.1334214  67.1469731  18.0949154  43.7652354  61.7843925
  18.3345752  44.3970878  62.4622943  17.2518351  43.4140394  62.0709284
  19.2102870  26.4576956  50.4525730  18.3332336  26.3365757  50.0887976
  19.6860623  25.6663035  50.2004618  29.0775863  34.9130024  67.2224186
  28.1902641  34.5755946  67.3450584  29.6474414  34.1813056  67.4592951
  10.7305010  31.2454116  60.5467237  11.4176050  30.9315846  59.9588252
  10.5753138  32.1495481  60.2734488  15.5339732  26.1344313  64.9752261
  15.4497921  25.5269982  64.2402671  14.7122438  26.6253331  64.9761757
  22.6077016  39.5731477  64.1885429  22.5347187  40.3786448  64.7004733
  22.1654409  39.7723442  63.3633450  22.3966796  38.8103247  57.6988250
  21.6134317  39.3524927  57.7926475  23.0959541  39.3277226  58.0982491
  25.7063446  24.6197876  60.3422456  26.2032145  23.8667838  60.0223526
  24.9350427  24.6562193  59.7765665  33.5593203  30.3238242  61.9840747
  33.5483079  31.2062957  61.6134680  32.6910583  29.9709793  61.7895284
  25.0675699  39.4718311  66.3443587  25.7803672  40.1065776  66.2719489
  24.5765728  39.5682177  65.5283589  26.7893226  33.3769563  57.9160879
  25.8549505  33.4971026  57.7465583  26.9669895  32.4742030  57.6520889
  22.2898414  26.7615259  60.0694140  21.9196202  26.2086300  60.7575046
  22.7857507  26.1573393  59.5169140  30.1765778  29.2186883  58.4510913
  30.6426230  30.0514874  58.3771216  30.6273278  28.7531864  59.1556172
  20.1187613  37.2212754  67.1649158  20.8197072  37.8549237  67.3178552
  19.6482728  37.5627486  66.4044798  28.2442009  35.5630704  55.4497065
  28.5201853  35.4487299  56.3590939  27.3746508  35.1648189  55.4109238
  28.1482440  21.5867470  62.4901815  27.2345520  21.8171696  62.6584022
  28.5775542  21.6705914  63.3415847  27.9188899  29.7757362  64.9901709
  27.2660349  30.0233269  64.3354161  28.2969279  28.9621500  64.6564186
  24.8796073  39.8117055  59.0929879  25.0618467  38.9938711  59.5557631
  25.7029059  40.0284747  58.6554769  25.2138238  38.7385240  56.3544927
  25.7426005  38.2277695  55.7415089  25.4766458  38.4227770  57.2190460
  23.9676472  30.5177173  71.4767746  23.2917109  30.4171302  72.1470121
  24.7904106  30.3616386  71.9403743  15.7155331  36.7549109  64.0980261
  16.3008768  36.0092797  64.2308165  15.5180170  37.0653066  64.9816925
  18.5693986  39.7900357  59.1142703  17.9004362  40.2746484  58.6306743
  18.4306856  40.0369577  60.0286082  10.3072986  29.3254709  62.8184704
  10.3457085  28.7918300  63.6121822   9.8013279  28.7989915  62.1995681
  22.7099255  41.8244100  65.7125362  23.2617563  41.9875722  66.4774447
  23.0505448  42.4148538  65.0405387  17.6863748  24.1719250  66.3147246
  17.7505075  25.0334081  65.9024644  17.6230868  23.5593252  65.5819605
  17.1616021  26.2442382  69.9620281  17.7888059  25.8619460  70.5757805
  16.3043939  26.0256584  70.3275973  27.5610129  36.6505358  71.5674016
  28.1050033  37.2635316  71.0728971  26.9796974  37.2084936  72.0841029
  13.9381563  28.0518812  55.8938635  14.2335004  27.1429490  55.8405689
  13.0369599  28.0306551  55.5719638  25.8467642  39.7726076  62.6989044
  25.7218782  38.9715815  62.1899989  26.5046733  40.2672269  62.2103014
  17.4675810  26.1274808  61.8766184  16.7462396  26.7410776  61.7373657
  18.2569066  26.6632573  61.7982830  27.9102551  37.5735096  64.3268594
  26.9632886  37.4540447  64.2546921  28.2585324  36.6857594  64.4094855
  20.2702124  23.4629235  68.1506836  20.7936526  23.7091531  68.9133145
  20.0514457  24.2949269  67.7309973  15.6669405  25.7332909  56.0177961
  15.3382111  24.8530288  55.8353067  16.0208776  25.6780578  56.9054350
  24.9148984  37.3687812  60.5272946  24.7673946  36.4404519  60.7080516
  25.7402477  37.3907903  60.0430021  18.7811228  26.0205879  56.3853438
  19.1207301  26.5491800  55.6632047  19.2283349  26.3586285  57.1612005
  28.5183106  38.1916371  61.6137819  29.4429653  37.9859232  61.4762270
  28.3498409  37.9432772  62.5227160  21.4754669  24.4042930  65.8356506
  21.1351489  23.6050743  66.2377186  20.7693675  24.7044641  65.2633340
  22.1271141  21.4892242  64.2883829  22.9497210  21.0152720  64.1662720
  22.3709204  22.2682726  64.7882516  20.7679375  24.5180501  54.5846731
  21.4887738  24.8961753  54.0810448  20.1444679  25.2369377  54.6881709
  24.9110498  25.2225650  55.5205063  25.1274113  26.1050287  55.2193892
  24.4304565  24.8311863  54.7910705  19.6509720  28.1811363  62.0975808
  19.5054300  28.4951666  62.9900089  19.1734923  28.7996263  61.5446707
  21.5106102  25.1713911  62.1456698  21.4967671  24.2755004  61.8088995
  22.2278531  25.1784575  62.7794984  23.3632233  25.6051251  64.1909825
  23.1050011  26.5268322  64.1894155  22.8317273  25.2081686  64.8810289
  28.3078422  38.7102038  56.9699910  28.4815299  38.1448461  56.2173763
  28.8007313  39.5102933  56.7879400  14.1255382  30.7216707  65.0363469
  13.5808850  31.4976515  65.1683743  15.0034732  31.0687512  64.8782591
  20.9142998  24.0528291  57.4144268  21.0358910  23.1244937  57.6135155
  20.6245041  24.0666977  56.5022583  23.7834189  21.7383202  60.5510988
  23.8055886  21.8022535  59.5962967  24.2002248  20.8987710  60.7451494
  34.1617813  31.4738461  58.5890210  34.6048959  30.7245786  58.1909333
  33.2844323  31.4648597  58.2063942  29.2953594  38.0268803  54.0696809
  29.9904499  38.6475495  54.2884123  29.6376745  37.1764154  54.3449187
  14.9121404  29.8486603  67.9293626  14.1703140  29.9969239  68.5158256
  14.5914148  30.1094869  67.0660375  31.1945017  35.4768508  55.5984139
  31.7196342  35.8155781  54.8733459  31.1067370  34.5415523  55.4147274
  22.8565066  39.3902582  67.7274016  23.1652193  39.1451728  68.5996716
  23.6540548  39.5949220  67.2392886  22.8785678  41.5440491  59.9579393
  22.4390669  41.0516870  60.6512249  23.6293795  41.0013459  59.7171468
  15.3578017  37.7352032  59.9604021  16.1836037  37.4355804  59.5802664
  15.0072069  36.9659655  60.4093809  20.3259550  37.0878500  62.0301694
  19.7039560  36.4249205  61.7303922  20.9964417  37.1139632  61.3475342
  13.5586622  35.6538359  60.9192954  12.7218531  35.2260533  60.7376956
  13.5310268  35.8470802  61.8563745  20.3984078  25.5660288  71.6234200
  20.4472233  26.4422411  71.2411970  20.9406592  25.0237682  71.0505844
  30.8838924  36.1101412  70.9035337  30.0934467  36.0925551  70.3639837
  30.6472278  36.6489705  71.6584374  31.0036799  32.9593878  68.2168066
  31.0534804  32.7943886  69.1583589  30.8950722  32.0921137  67.8265947
  19.8873057  35.6382424  55.5060155  20.0361178  36.3217888  54.8526828
  20.6939501  35.6187514  56.0209611  28.2940561  28.9424806  69.5327373
  29.1950424  28.8031271  69.2411370  28.3688536  29.1079261  70.4725550
  22.6283366  26.3191661  68.3780559  21.7586676  26.6125227  68.1063147
  22.8642847  26.9032106  69.0987823  32.5054995  35.3790820  68.4610087
  32.2139804  35.7420800  69.2973548  31.8927127  34.6657828  68.2823420
  33.7050678  32.9443699  60.9812658  34.5397569  33.3833503  61.1450218
  33.8409807  32.4682353  60.1620903  30.7542184  30.5023434  66.9290145
  31.2296305  30.6951081  66.1208997  29.8307749  30.5582620  66.6833529
  17.6425690  31.6647601  56.5121224  17.3971732  30.7609931  56.7101434
  17.8121605  31.6664752  55.5700702  25.3322400  22.5371278  65.8945979
  25.8504344  23.2732305  65.5692468  24.9777533  22.8435271  66.7292738
  16.9121338  27.3975959  54.0107385  16.2190583  27.4720314  53.3547421
  16.6673090  26.6336303  54.5328902  25.5834994  18.9571560  61.4146876
  25.8636748  18.2894749  62.0407302  26.3685601  19.1500656  60.9021540
  23.3868463  38.1330554  52.9771902  22.8142430  38.7520741  52.5242374
  23.9601256  38.6829916  53.5111824  29.4543853  27.3789194  65.1618451
  30.4061276  27.4787292  65.1830675  29.2847303  26.5867463  65.6716535
  27.4758232  24.4644778  65.3477852  26.8808164  24.7449790  64.6524341
  27.1907929  24.9538678  66.1194593  26.6065723  38.4167704  54.1080485
  27.5396396  38.3513266  54.3113360  26.5188935  39.2523971  53.6495017
  29.2353739  37.7333575  51.0684432  29.1567371  37.3993438  51.9620190
  30.0563406  38.2255343  51.0675904  31.9331930  30.5995314  64.2760751
  31.9008251  29.6611315  64.4620435  32.5432554  30.6779351  63.5426576
  23.7715261  29.4691367  50.3187955  24.7174366  29.3397575  50.3876373
  23.3929506  28.7306029  50.7957383  32.0826419  27.3906357  64.3219034
  31.5665468  26.6064814  64.1348963  32.9666367  27.0625074  64.4865553
  29.7437146  21.1347373  60.2814847  29.5461967  20.8262461  61.1658179
  30.3536851  21.8609012  60.4112776  37.7508480  31.6611321  63.4166787
  38.4811869  31.3996609  63.9774491  37.1415426  30.9240043  63.4568855
  35.8323777  29.8019183  64.0141239  35.1056941  29.6675148  63.4057730
  35.4171064  30.1096012  64.8197957  23.6553954  33.5209113  71.7788612
  24.5756963  33.6987712  71.9728658  23.6203537  32.5765158  71.6268311
  21.9558178  27.3941343  50.2542840  21.0489634  27.0974456  50.3305554
  22.2334159  27.0971161  49.3877126  12.8736119  28.7147707  60.7041886
  12.5538903  27.8613015  60.4116260  12.3269547  28.9296285  61.4599854
  16.6516026  31.4310148  64.4211393  16.8702036  32.3627256  64.4399427
  17.0641800  31.0718122  65.2066197  23.5720244  21.9378233  56.4087081
  22.7620973  21.5925318  56.7842327  24.2604661  21.6285777  56.9974693
  25.5010792  21.0156280  58.0311378  26.0541831  21.4351733  58.6901401
  25.7380879  20.0892028  58.0734334  21.5243892  27.0043354  73.8114142
  21.4240619  27.9537710  73.7426233  21.3065434  26.6761592  72.9390212
  20.7256963  24.2528279  50.3954819  21.5876127  24.5783177  50.6550636
  20.9107307  23.4659774  49.8827885  12.7424379  32.3350618  62.6735008
  12.0487850  31.9204571  62.1604962  13.4897370  32.3771155  62.0768427
  28.8789600  23.1256805  57.5390042  28.2988269  23.7841609  57.1568095
  28.6125532  22.3034150  57.1277460  27.3293166  22.5261863  59.7411362
  27.8292944  22.6378397  58.9325681  27.9728774  22.2222916  60.3812171
  21.3875162  30.4340492  72.6279203  20.9042243  31.2340852  72.8343092
  21.4736101  30.4448437  71.6746647  14.6561121  32.2668872  60.5501023
  14.6331809  32.3656559  59.5982906  14.9661758  33.1134023  60.8718189
  17.3148499  34.3245027  64.6647637  18.2691753  34.2928969  64.5977569
  17.1161023  33.8635651  65.4797863  17.9047881  32.8946143  67.2318435
  18.7240770  33.3890222  67.2553272  18.1784689  31.9778111  67.2036002
  27.6614478  25.2856895  56.5946390  26.7740333  25.5706546  56.3766585
  28.0768467  25.1250659  55.7473667  31.0129014  25.3103416  60.3100730
  31.7889404  25.7999869  60.5825346  30.2877148  25.7361471  60.7672599
  33.4501572  26.0231036  61.3674670  34.0446063  25.7826772  60.6567979
  33.5228156  25.3038166  61.9948207  15.6698728  39.8664647  61.6817835
  15.5353196  39.1065047  61.1155833  15.2530790  40.5905546  61.2146624
  26.8057691  35.0501570  50.6894410  27.5093541  35.2551573  51.3052066
  26.0820340  35.6178332  50.9543494  27.6355501  30.8011431  56.8096681
  27.5790703  31.2579983  55.9704313  28.1883844  30.0402116  56.6319523
  31.4460307  26.5901163  57.6346800  31.1897241  26.1897799  58.4655008
  30.8213175  27.3044957  57.5096939  35.7572645  29.3297236  60.1418091
  35.1972203  29.3990426  60.9149654  35.1516148  29.1538221  59.4217588
  18.8267854  40.7633964  61.8936278  18.7100238  41.7079396  61.7914968
  18.0060300  40.4607525  62.2822077  28.7144388  35.4884099  52.7392870
  29.5489992  35.0565298  52.5570345  28.5528731  35.3166113  53.6669765
  28.3690281  31.9916213  54.1049210  28.3139084  31.8260484  53.1637654
  27.7436336  32.6992246  54.2611399  13.1582796  27.2284277  67.9310632
  13.8041659  26.7183231  68.4197857  12.9499947  27.9652959  68.5054057
  25.6836188  34.2965124  73.4302773  26.5527347  34.4705777  73.0689407
  25.2042939  35.1159541  73.3078502  21.6786406  21.4924322  53.6834528
  21.6665076  22.4366162  53.8402799  22.5709828  21.3094467  53.3893989
  19.8522368  41.4162225  65.1092206  20.7549615  41.4485836  65.4258701
  19.6259738  40.4862676  65.1238542  21.6075970  40.1693212  61.7702285
  20.6571601  40.1695074  61.6566657  21.9108456  39.4225947  61.2538319
  25.4938526  18.0867098  57.9380465  24.7270921  17.5325585  58.0837147
  25.9049231  18.1588967  58.7994617  17.4980287  24.3751894  72.0285646
  18.3611748  24.0188699  72.2388971  16.9245697  24.0365789  72.7161050
  37.3428664  46.0053750  62.8348047  37.9807074  45.8860498  62.1311387
  37.2249506  46.9534594  62.8935999  34.1518370  45.9581179  62.7709572
  33.8136881  45.8422243  61.8830107  35.0208138  45.5572344  62.7510578
  30.0105186  47.8116655  58.7606463  29.4470051  47.7206592  57.9922751
  29.8957581  46.9916559  59.2408955  34.6338153  47.1116030  68.7295777
  34.6226794  46.7168829  67.8576281  34.7958792  46.3782103  69.3229549
  27.5569617  49.3067847  61.5990683  28.3490909  48.9658671  61.1836983
  27.7966268  49.4162822  62.5192837  35.5904744  51.4787623  54.0720928
  34.9392724  52.0641703  53.6854942  36.3849107  52.0093818  54.1315965
  29.5160371  48.5676760  54.4708062  30.2891247  48.0205747  54.3320938
  29.8685770  49.4321009  54.6822523  31.3545414  49.8953142  67.6774961
  31.0635280  50.7998773  67.5621628  31.9902398  49.9369670  68.3919031
  32.2801621  47.2729991  64.2676321  32.8765193  47.0486013  63.5533284
  32.3376592  46.5314736  64.8701769  31.8526649  44.7269426  52.1026512
  32.1052170  44.2050947  51.3409975  30.9151208  44.5635571  52.2053196
  36.8969932  43.7305204  59.9101255  37.6833021  43.3124627  59.5591672
  37.1608636  44.6351296  60.0782904  37.0680009  49.1678055  54.6089912
  36.4325842  49.2412681  55.3210817  36.7377416  49.7571653  53.9308991
  42.2978359  43.6680437  60.8134234  43.0303531  43.0979654  61.0472063
  41.5417715  43.2802038  61.2540739  31.5722938  46.6297532  54.3050887
  31.4559196  45.9542435  54.9731971  31.6825198  46.1429906  53.4883040
  33.9154479  46.0907679  58.0097576  33.5512686  45.5638300  58.7210498
  34.7721595  45.7006148  57.8364062  39.8203780  37.3802012  65.2728842
  39.4887104  38.2497423  65.0490057  39.2249393  37.0638296  65.9522873
  33.5559966  41.1197579  53.0058925  33.7234368  41.9877815  53.3729396
  33.3657135  41.2824860  52.0820214  36.3135299  49.5814558  64.6724755
  36.0136022  50.4839596  64.5640562  35.9686359  49.3146741  65.5245908
  29.7647781  46.0328354  60.7061460  28.8398277  45.9004569  60.9139151
  30.0132194  46.8122574  61.2031402  39.7132443  42.0997098  62.3522192
  38.8049320  42.0312506  62.0580953  39.6620039  42.5769043  63.1804018
  33.5349187  43.5755236  53.9905592  33.4148812  44.0212287  54.8291072
  32.8401775  43.9240554  53.4319130  27.1256592  45.6761628  61.5405249
  27.2548973  45.9296107  62.4544660  26.4454043  46.2689336  61.2209904
  31.2956079  56.3458878  57.6395723  31.2180109  57.2966703  57.7184203
  30.6917722  56.0004750  58.2970649  33.7873309  43.5186743  70.2957090
  33.0106643  44.0780663  70.2859954  34.4263872  44.0043526  70.8171960
  41.5794089  40.3013536  64.1300066  40.9368469  40.5946069  63.4839861
  41.0749018  40.1866456  64.9353263  39.2334253  44.0476709  54.8185926
  40.1452109  44.2804096  54.6433623  38.7243900  44.6313754  54.2561004
  32.0419681  46.3272197  69.8575057  32.7834365  46.8657241  69.5809880
  31.3356666  46.9538485  70.0146608  37.5175021  48.4701337  68.4547218
  37.9258377  48.0283748  67.7101851  36.7952282  47.8953965  68.7081411
  33.8706091  43.4073944  65.8280775  34.7167286  43.8313357  65.9715424
  33.8104728  42.7507568  66.5219338  37.8403835  49.0302528  62.2099507
  37.2112698  49.1948242  61.5075575  37.4529497  49.4444137  62.9810471
  41.7193067  49.9656966  59.5643871  41.0344105  50.3455867  59.0140904
  41.8036916  50.5752292  60.2975819  38.9743999  47.6116925  66.1639214
  39.1860894  48.2548685  65.4873595  38.9273747  46.7779241  65.6961144
  36.5770228  40.2234745  63.0675786  35.7154707  40.5215999  63.3592524
  36.6032662  40.4405144  62.1356819  33.3931797  48.7676936  59.4749592
  33.8570143  49.0464639  58.6854215  33.1288595  47.8660380  59.2922683
  30.2855878  48.3148417  62.4129355  30.8557235  48.7435686  61.7746840
  30.8763990  48.0331002  63.1113541  32.3300683  44.8900088  56.2839157
  33.0324726  45.3421132  56.7513084  31.9981312  44.2483907  56.9119050
  30.7781045  43.4811845  70.6590367  30.1479705  44.1628126  70.8925763
  30.6717133  43.3694926  69.7143505  26.0726017  43.1483641  61.5856291
  25.2825071  43.4041169  61.1096401  26.5637264  43.9631979  61.6908331
  40.0889827  50.4888880  64.3361572  40.9107270  50.0869067  64.0544253
  40.0852230  50.3857114  65.2877687  28.0240762  43.5128220  58.5439768
  27.2271926  43.6246914  59.0623263  27.7966355  43.8514872  57.6780658
  33.8546430  50.0372923  66.4922282  33.9190863  50.4993331  67.3280454
  33.1457354  49.4070288  66.6204592  24.3563720  43.4014131  64.0171282
  24.6071759  44.2861141  64.2828858  24.8923268  43.2218733  63.2446373
  33.5694448  51.7041031  56.3601262  33.4340123  52.5492567  56.7886110
  34.1104260  51.9060309  55.5967196  30.0561787  37.7832611  73.0215618
  29.6628733  37.2298809  73.6963262  30.8727928  38.0943189  73.4122135
  27.0223845  49.2216469  56.9329188  27.5348366  50.0159719  57.0834752
  27.6746558  48.5242759  56.8662789  28.8318730  52.3382225  59.0151941
  29.0085358  53.2600190  58.8272925  29.6275563  52.0240644  59.4446321
  32.9729748  39.1990490  70.6135874  33.7139462  39.7997643  70.5340337
  33.2047671  38.4568128  70.0553917  28.1171086  44.3846857  68.8914104
  28.0024602  43.4832114  69.1921203  27.2615604  44.6310554  68.5398921
  35.1962924  52.3264597  70.4901605  34.7526778  51.5400976  70.1722509
  35.8580138  52.5143748  69.8245495  29.9550045  53.8560399  65.0162283
  30.5057470  53.7277462  64.2439277  29.1161521  54.1555288  64.6657176
  37.2944162  52.6067397  68.5183006  37.2762638  53.4276278  68.0263275
  38.2164082  52.4821473  68.7433147  33.7517216  50.1211527  69.3606514
  34.2845553  49.3599815  69.1305822  33.2231297  49.8285179  70.1030669
  36.9186911  35.2271593  64.8900156  36.5751181  36.1173234  64.8139267
  37.2865874  35.0373250  64.0269741  24.9872762  47.5505123  57.7088758
  25.8247984  47.9602132  57.4922466  25.1651030  46.6104565  57.6788952
  36.8837194  45.2180204  53.3972591  36.3683817  45.9884808  53.6360978
  36.6114503  44.5445340  54.0205653  34.4684305  40.0629905  58.4557829
  33.6125901  39.6736755  58.2763468  34.8811257  40.1421865  57.5957615
  35.9983452  37.5976248  62.8549389  35.4948247  37.5606383  62.0417195
  36.2914059  38.5068991  62.9146046  32.2426338  37.6814978  61.8615571
  33.1079334  37.4857786  61.5021460  32.3103847  37.4525329  62.7884928
  41.8571468  47.9712559  55.3325765  41.0800911  47.6323718  54.8880927
  42.5362949  47.9765182  54.6580730  36.6723497  43.0907296  55.2232372
  36.3673633  43.4053445  56.0742515  37.6253939  43.1688716  55.2659705
  35.1169929  49.2497519  56.8725326  34.5891291  48.5150279  56.5598564
  34.6157432  50.0272196  56.6265295  40.0962775  47.4446540  61.9892373
  39.4386450  48.1345801  62.0772501  40.9003174  47.8342972  62.3326359
  29.8488657  39.9117186  59.2331938  30.4232409  39.6892367  58.5005131
  30.4359639  39.9805880  59.9860539  38.9068234  45.7990912  60.0396314
  39.4200116  46.4320904  60.5418024  39.5569458  45.1992108  59.6739674
  30.1758244  41.9421647  53.2527823  29.3395556  42.2796333  53.5737098
  30.0363013  41.8070626  52.3154960  32.1511324  36.7858434  57.9607007
  31.4975737  36.4707452  57.3363622  32.1091799  36.1634175  58.6866830
  33.2622529  47.0677730  49.8760299  32.3549591  46.8366983  50.0751448
  33.7593561  46.2715349  50.0634281  36.1690608  55.7775237  52.7956985
  35.4952307  56.0806933  53.4041943  36.5556430  56.5804317  52.4462442
  35.3849065  43.2740368  62.2854655  34.4671626  43.4955315  62.1276343
  35.8009208  43.3486678  61.4266362  36.1684113  44.6731784  57.4157335
  36.9155931  45.1853181  57.1064457  36.4375702  44.3515836  58.2761729
  34.4410763  47.1690324  54.3984289  33.5321982  46.8849357  54.4956759
  34.4705846  47.5889403  53.5387596  39.6730030  50.7796914  58.1675457
  39.2192357  49.9387824  58.2240647  39.0423997  51.4158312  58.5050237
  38.6162950  41.7088900  59.3976124  37.8785706  41.1966286  59.7286367
  38.8689723  41.2689282  58.5859401  38.1162969  52.6173411  59.1025275
  38.4085944  53.1778468  58.3837641  38.6261590  52.9101972  59.8578434
  38.7174577  34.4865152  59.9917894  39.0233454  33.6262515  59.7043809
  39.4427182  35.0782772  59.7916888  25.0098933  44.8895839  58.3799492
  24.8123333  44.2965199  57.6550558  24.4545597  44.5848049  59.0975430
  32.9895657  44.7818945  60.4994085  33.0444267  43.8292781  60.4236561
  32.1786859  44.9378384  60.9835383  34.1386850  48.7099068  51.7372368
  33.7006280  47.9934927  51.2778005  34.8797291  48.9375183  51.1757459
  30.9288017  43.3996005  58.2584464  30.1155882  43.6990175  58.6649656
  31.4247011  43.0051694  58.9758946  33.0796595  53.3953762  60.1918728
  33.0372773  53.6214608  59.2627260  33.9959293  53.1617136  60.3404529
  36.5262228  43.8637829  67.0899357  36.8811616  44.0909302  67.9493823
  37.1734360  44.1956206  66.4676613  42.2559965  46.9856265  57.7948687
  42.1177864  47.1757861  56.8669876  41.8996184  47.7475648  58.2516738
  30.4202091  40.9714360  63.8745699  31.0601471  40.8303119  63.1768662
  29.5879622  40.6848874  63.4984301  31.1962395  50.2716791  59.9880691
  31.9902994  49.7767111  59.7863266  30.4854088  49.7434654  59.6248397
  36.0157240  52.6534886  64.3393059  36.0694262  53.2225823  65.1070775
  35.1472021  52.8236771  63.9747096  27.5045159  44.4159872  56.0640444
  26.5742747  44.3544328  56.2810406  27.6002631  43.8935825  55.2677085
  27.4230708  40.9414685  58.6518685  27.6837525  41.8560019  58.5427846
  28.2447880  40.4739128  58.8015298  28.8955633  42.3552442  65.8217510
  29.5678687  42.1469805  65.1730159  28.0685420  42.1574528  65.3822742
  34.7981205  38.9814383  67.8383171  34.1509120  39.6804333  67.7447647
  35.5682221  39.4150527  68.2059419  34.9745340  46.8195148  65.8979990
  35.9037400  46.9706308  65.7248958  34.5536370  46.9079169  65.0428637
  33.7733671  50.8445813  63.6678528  33.6344757  50.4764597  64.5404466
  32.9848268  51.3593452  63.4962486  34.3681823  55.9454909  55.0104065
  34.5433579  55.4742952  55.8249687  33.6814611  56.5720675  55.2385325
  35.3238886  50.2227415  61.0567366  34.9888719  50.1828185  61.9525016
  34.8242832  49.5572131  60.5837776  29.2983130  45.6295045  66.5819947
  29.1602928  44.8975284  67.1831486  30.2088054  45.5403946  66.3004135
  38.2598078  47.5683450  51.3304426  37.6427249  46.8430278  51.2337478
  37.7914567  48.3292810  50.9871500  31.9265431  45.3415005  66.0703627
  32.6365050  44.7008197  66.0290245  31.8834739  45.5927900  66.9929807
  30.6394365  42.3280223  67.8899266  30.1031722  41.8770961  68.5420862
  30.0511074  42.4626131  67.1469731  28.9342909  59.0944272  61.7843925
  29.1739507  59.7262796  62.4622943  28.0912105  58.7432312  62.0709284
  30.0496624  41.7868874  50.4525730  29.1726090  41.6657675  50.0887976
  30.5254377  40.9954952  50.2004618  39.9169617  50.2421942  67.2224186
  39.0296396  49.9047864  67.3450584  40.4868168  49.5104973  67.4592951
  21.5698764  46.5746034  60.5467237  22.2569804  46.2607764  59.9588252
  21.4146893  47.4787398  60.2734488  26.3733486  41.4636230  64.9752261
  26.2891675  40.8561900  64.2402671  25.5516193  41.9545249  64.9761757
  33.4470770  54.9023394  64.1885429  33.3740942  55.7078366  64.7004733
  33.0048164  55.1015360  63.3633450  33.2360550  54.1395164  57.6988250
  32.4528072  54.6816845  57.7926475  33.9353295  54.6569144  58.0982491
  36.5457200  39.9489794  60.3422456  37.0425900  39.1959756  60.0223526
  35.7744182  39.9854110  59.7765665  35.9069454  54.8010228  66.3443587
  36.6197426  55.4357693  66.2719489  35.4159483  54.8974094  65.5283589
  37.6286981  48.7061481  57.9160879  36.6943260  48.8262944  57.7465583
  37.8063649  47.8033948  57.6520889  33.1292169  42.0907177  60.0694140
  32.7589956  41.5378217  60.7575046  33.6251261  41.4865310  59.5169140
  41.0159532  44.5478800  58.4510913  41.4819984  45.3806792  58.3771216
  41.4667033  44.0823782  59.1556172  30.9581367  52.5504672  67.1649158
  31.6590827  53.1841155  67.3178552  30.4876482  52.8919403  66.4044798
  39.0835763  50.8922622  55.4497065  39.3595607  50.7779216  56.3590939
  38.2140262  50.4940106  55.4109238  38.9876195  36.9159387  62.4901815
  38.0739275  37.1463614  62.6584022  39.4169296  36.9997831  63.3415847
  38.7582653  45.1049279  64.9901709  38.1054104  45.3525187  64.3354161
  39.1363033  44.2913417  64.6564186  35.7189827  55.1408972  59.0929879
  35.9012222  54.3230628  59.5557631  36.5422813  55.3576665  58.6554769
  36.0531993  54.0677158  56.3544927  36.5819759  53.5569612  55.7415089
  36.3160212  53.7519688  57.2190460  34.8070226  45.8469090  71.4767746
  34.1310863  45.7463220  72.1470121  35.6297860  45.6908304  71.9403743
  26.5549086  52.0841027  64.0980261  27.1402522  51.3384715  64.2308165
  26.3573924  52.3944984  64.9816925  29.4087741  55.1192274  59.1142703
  28.7398116  55.6038402  58.6306743  29.2700610  55.3661495  60.0286082
  21.1466740  44.6546627  62.8184704  21.1850840  44.1210218  63.6121822
  20.6407033  44.1281833  62.1995681  33.5493009  57.1536018  65.7125362
  34.1011317  57.3167639  66.4774447  33.8899203  57.7440456  65.0405387
  28.5257503  39.5011168  66.3147246  28.5898829  40.3625999  65.9024644
  28.4624623  38.8885169  65.5819605  28.0009775  41.5734300  69.9620281
  28.6281814  41.1911377  70.5757805  27.1437694  41.3548502  70.3275973
  24.7775318  43.3810729  55.8938635  25.0728759  42.4721408  55.8405689
  23.8763354  43.3598469  55.5719638  36.6861397  55.1017993  62.6989044
  36.5612536  54.3007733  62.1899989  37.3440488  55.5964187  62.2103014
  28.3069565  41.4566726  61.8766184  27.5856151  42.0702694  61.7373657
  29.0962821  41.9924491  61.7982830  31.1095878  38.7921152  68.1506836
  31.6330280  39.0383449  68.9133145  30.8908212  39.6241187  67.7309973
  26.5063159  41.0624827  56.0177961  26.1775866  40.1822206  55.8353067
  26.8602530  41.0072496  56.9054350  35.7542738  52.6979730  60.5272946
  35.6067701  51.7696437  60.7080516  36.5796232  52.7199820  60.0430021
  29.6204983  41.3497797  56.3853438  29.9601055  41.8783718  55.6632047
  30.0677103  41.6878203  57.1612005  39.3576860  53.5208288  61.6137819
  40.2823408  53.3151150  61.4762270  39.1892164  53.2724690  62.5227160
  32.3148423  39.7334847  65.8356506  31.9745244  38.9342661  66.2377186
  31.6087430  40.0336558  65.2633340  32.9664895  36.8184160  64.2883829
  33.7890965  36.3444638  64.1662720  33.2102959  37.5974644  64.7882516
  31.6073130  39.8472418  54.5846731  32.3281492  40.2253671  54.0810448
  30.9838434  40.5661295  54.6881709  35.7504253  40.5517567  55.5205063
  35.9667867  41.4342205  55.2193892  35.2698320  40.1603781  54.7910705
  30.4903474  43.5103281  62.0975808  30.3448055  43.8243584  62.9900089
  30.0128678  44.1288181  61.5446707  32.3499857  40.5005828  62.1456698
  32.3361426  39.6046922  61.8088995  33.0672285  40.5076492  62.7794984
  34.2025988  40.9343169  64.1909825  33.9443765  41.8560239  64.1894155
  33.6711028  40.5373603  64.8810289  39.1472176  54.0393956  56.9699910
  39.3209054  53.4740378  56.2173763  39.6401068  54.8394851  56.7879400
  24.9649136  46.0508625  65.0363469  24.4202604  46.8268433  65.1683743
  25.8428486  46.3979429  64.8782591  31.7536753  39.3820209  57.4144268
  31.8752664  38.4536855  57.6135155  31.4638795  39.3958895  56.5022583
  34.6227943  37.0675119  60.5510988  34.6449640  37.1314452  59.5962967
  35.0396002  36.2279628  60.7451494  45.0011568  46.8030379  58.5890210
  45.4442714  46.0537704  58.1909333  44.1238078  46.7940515  58.2063942
  40.1347349  53.3560720  54.0696809  40.8298253  53.9767413  54.2884123
  40.4770499  52.5056071  54.3449187  25.7515158  45.1778521  67.9293626
  25.0096894  45.3261157  68.5158256  25.4307902  45.4386787  67.0660375
  42.0338772  50.8060426  55.5984139  42.5590096  51.1447699  54.8733459
  41.9461125  49.8707441  55.4147274  33.6958821  54.7194499  67.7274016
  34.0045947  54.4743646  68.5996716  34.4934303  54.9241138  67.2392886
  33.7179433  56.8732409  59.9579393  33.2784423  56.3808788  60.6512249
  34.4687550  56.3305377  59.7171468  26.1971772  53.0643950  59.9604021
  27.0229792  52.7647722  59.5802664  25.8465824  52.2951572  60.4093809
  31.1653305  52.4170418  62.0301694  30.5433314  51.7541123  61.7303922
  31.8358172  52.4431550  61.3475342  24.3980377  50.9830276  60.9192954
  23.5612285  50.5552451  60.7376956  24.3704022  51.1762720  61.8563745
  31.2377832  40.8952206  71.6234200  31.2865988  41.7714329  71.2411970
  31.7800347  40.3529599  71.0505844  30.7266812  50.9674341  55.5060155
  30.8754932  51.6509806  54.8526828  31.5333255  50.9479432  56.0209611
  33.4677121  41.6483579  68.3780559  32.5980430  41.9417145  68.1063147
  33.7036601  42.2324024  69.0987823  28.4819445  46.9939519  56.5121224
  28.2365487  46.0901849  56.7101434  28.6515359  46.9956670  55.5700702
  36.1716155  37.8663195  65.8945979  36.6898099  38.6024222  65.5692468
  35.8171287  38.1727189  66.7292738  27.7515092  42.7267877  54.0107385
  27.0584337  42.8012232  53.3547421  27.5066844  41.9628220  54.5328902
  36.4228749  34.2863478  61.4146876  36.7030503  33.6186667  62.0407302
  37.2079356  34.4792574  60.9021540  34.2262217  53.4622472  52.9771902
  33.6536184  54.0812659  52.5242374  34.7995011  54.0121834  53.5111824
  40.2937607  42.7081112  65.1618451  41.2455030  42.8079210  65.1830675
  40.1241058  41.9159381  65.6716535  38.3151987  39.7936695  65.3477852
  37.7201919  40.0741708  64.6524341  38.0301683  40.2830596  66.1194593
  37.4459477  53.7459622  54.1080485  38.3790150  53.6805184  54.3113360
  37.3582690  54.5815889  53.6495017  40.0747494  53.0625492  51.0684432
  39.9961125  52.7285356  51.9620190  40.8957161  53.5547260  51.0675904
  34.6109016  44.7983285  50.3187955  35.5568121  44.6689493  50.3876373
  34.2323261  44.0597947  50.7957383  40.5830900  36.4639291  60.2814847
  40.3855721  36.1554379  61.1658179  41.1930606  37.1900930  60.4112776
  34.4947708  48.8501031  71.7788612  35.4150718  49.0279630  71.9728658
  34.4597291  47.9057076  71.6268311  32.7951933  42.7233261  50.2542840
  31.8883388  42.4266374  50.3305554  33.0727914  42.4263079  49.3877126
  23.7129873  44.0439624  60.7041886  23.3932658  43.1904933  60.4116260
  23.1663302  44.2588203  61.4599854  27.4909781  46.7602065  64.4211393
  27.7095791  47.6919173  64.4399427  27.9035555  46.4010040  65.2066197
  34.4113999  37.2670151  56.4087081  33.6014727  36.9217236  56.7842327
  35.0998416  36.9577694  56.9974693  36.3404547  36.3448198  58.0311378
  36.8935586  36.7643651  58.6901401  36.5774633  35.4183946  58.0734334
  32.3637646  42.3335271  73.8114142  32.2634373  43.2829628  73.7426233
  32.1459188  42.0053510  72.9390212  31.5650718  39.5820196  50.3954819
  32.4269882  39.9075095  50.6550636  31.7501062  38.7951692  49.8827885
  23.5818133  47.6642536  62.6735008  22.8881605  47.2496489  62.1604962
  24.3291124  47.7063072  62.0768427  39.7183354  38.4548723  57.5390042
  39.1382023  39.1133527  57.1568095  39.4519287  37.6326067  57.1277460
  38.1686920  37.8553780  59.7411362  38.6686699  37.9670315  58.9325681
  38.8122528  37.5514833  60.3812171  32.2268916  45.7632410  72.6279203
  31.7435998  46.5632770  72.8343092  32.3129855  45.7740355  71.6746647
  25.4954876  47.5960790  60.5501023  25.4725564  47.6948477  59.5982906
  25.8055512  48.4425941  60.8718189  28.1542254  49.6536945  64.6647637
  29.1085507  49.6220887  64.5977569  27.9554777  49.1927568  65.4797863
  28.7441636  48.2238061  67.2318435  29.5634525  48.7182139  67.2553272
  29.0178444  47.3070029  67.2036002  38.5008232  40.6148813  56.5946390
  37.6134087  40.8998464  56.3766585  38.9162221  40.4542576  55.7473667
  41.8522768  40.6395334  60.3100730  42.6283158  41.1291787  60.5825346
  41.1270902  41.0653388  60.7672599  44.2895327  41.3522953  61.3674670
  44.8839818  41.1118689  60.6567979  44.3621911  40.6330084  61.9948207
  26.5092483  55.1956564  61.6817835  26.3746950  54.4356965  61.1155833
  26.0924545  55.9197464  61.2146624  37.6451446  50.3793488  50.6894410
  38.3487296  50.5843490  51.3052066  36.9214094  50.9470250  50.9543494
  38.4749256  46.1303349  56.8096681  38.4184457  46.5871900  55.9704313
  39.0277598  45.3694034  56.6319523  42.2854062  41.9193081  57.6346800
  42.0290996  41.5189717  58.4655008  41.6606930  42.6336875  57.5096939
  46.5966400  44.6589154  60.1418091  46.0365958  44.7282343  60.9149654
  45.9909903  44.4830139  59.4217588  29.6661608  56.0925881  61.8936278
  29.5493993  57.0371314  61.7914968  28.8454055  55.7899443  62.2822077
  39.5538143  50.8176017  52.7392870  40.3883747  50.3857215  52.5570345
  39.3922486  50.6458031  53.6669765  39.2084035  47.3208130  54.1049210
  39.1532839  47.1552402  53.1637654  38.5830090  48.0284163  54.2611399
  23.9976550  42.5576195  67.9310632  24.6435414  42.0475149  68.4197857
  23.7893701  43.2944876  68.5054057  32.5180161  36.8216239  53.6834528
  32.5058830  37.7658079  53.8402799  33.4103582  36.6386385  53.3893989
  30.6916123  56.7454143  65.1092206  31.5943369  56.7777753  65.4258701
  30.4653493  55.8154594  65.1238542  32.4469725  55.4985130  61.7702285
  31.4965356  55.4986991  61.6566657  32.7502211  54.7517864  61.2538319
  36.3332280  33.4159016  57.9380465  35.5664676  32.8617503  58.0837147
  36.7442985  33.4880885  58.7994617  28.3374041  39.7043812  72.0285646
  29.2005503  39.3480617  72.2388971  27.7639452  39.3657707  72.7161050
  40.8498940  63.1408573  58.7606463  40.2863805  63.0498510  57.9922751
  40.7351335  62.3208477  59.2408955  38.3963372  64.6359764  61.5990683
  39.1884664  64.2950589  61.1836983  38.6360022  64.7454739  62.5192837
  46.4298499  66.8079540  54.0720928  45.7786478  67.3933621  53.6854942
  47.2242862  67.3385735  54.1315965  40.3554126  63.8968677  54.4708062
  41.1285002  63.3497665  54.3320938  40.7079525  64.7612927  54.6822523
  42.6920404  60.0561344  52.1026512  42.9445924  59.5342865  51.3409975
  41.7544963  59.8927489  52.2053196  47.9073764  64.4969972  54.6089912
  47.2719597  64.5704599  55.3210817  47.5771170  65.0863571  53.9308991
  42.4116692  61.9589450  54.3050887  42.2952951  61.2834353  54.9731971
  42.5218952  61.4721823  53.4883040  44.3953720  56.4489496  53.0058925
  44.5628123  57.3169733  53.3729396  44.2050889  56.6116778  52.0820214
  44.3742941  58.9047154  53.9905592  44.2542566  59.3504205  54.8291072
  43.6795530  59.2532472  53.4319130  42.1349833  71.6750796  57.6395723
  42.0573863  72.6258621  57.7184203  41.5311477  71.3296668  58.2970649
  50.0728007  59.3768627  54.8185926  50.9845864  59.6096014  54.6433623
  49.5637654  59.9605671  54.2561004  43.1694438  60.2192006  56.2839157
  43.8718481  60.6713050  56.7513084  42.8375066  59.5775825  56.9119050
  36.9119772  58.4775559  61.5856291  36.1218826  58.7333087  61.1096401
  37.4031019  59.2923896  61.6908331  38.8634517  58.8420138  58.5439768
  38.0665680  58.9538832  59.0623263  38.6360109  59.1806790  57.6780658
  35.1957475  58.7306049  64.0171282  35.4465513  59.6153059  64.2828858
  35.7317023  58.5510651  63.2446373  44.4088202  67.0332949  56.3601262
  44.2733877  67.8784484  56.7886110  44.9498015  67.2352226  55.5967196
  37.8617600  64.5508387  56.9329188  38.3742120  65.3451637  57.0834752
  38.5140312  63.8534677  56.8662789  39.6712484  67.6674143  59.0151941
  39.8479113  68.5892108  58.8272925  40.4669318  67.3532562  59.4446321
  35.8266516  62.8797041  57.7088758  36.6641738  63.2894049  57.4922466
  36.0044784  61.9396483  57.6788952  47.7230949  60.5472122  53.3972591
  47.2077572  61.3176726  53.6360978  47.4508257  59.8737258  54.0205653
  45.3078060  55.3921822  58.4557829  44.4519656  55.0028673  58.2763468
  45.7205011  55.4713783  57.5957615  52.6965223  63.3004476  55.3325765
  51.9194665  62.9615636  54.8880927  53.3756704  63.3057099  54.6580730
  47.5117252  58.4199214  55.2232372  47.2067387  58.7345363  56.0742515
  48.4647694  58.4980634  55.2659705  45.9563684  64.5789437  56.8725326
  45.4285045  63.8442197  56.5598564  45.4551186  65.3564113  56.6265295
  40.6882411  55.2409103  59.2331938  41.2626163  55.0184285  58.5005131
  41.2753394  55.3097798  59.9860539  41.0151998  57.2713564  53.2527823
  40.1789311  57.6088251  53.5737098  40.8756768  57.1362544  52.3154960
  42.9905079  52.1150352  57.9607007  42.3369491  51.7999369  57.3363622
  42.9485553  51.4926093  58.6866830  44.1016284  62.3969647  49.8760299
  43.1943345  62.1658901  50.0751448  44.5987316  61.6007266  50.0634281
  47.0084363  71.1067154  52.7956985  46.3346061  71.4098851  53.4041943
  47.3950185  71.9096235  52.4462442  45.2804517  62.4982242  54.3984289
  44.3715736  62.2141275  54.4956759  45.3099601  62.9181321  53.5387596
  50.5123785  66.1088832  58.1675457  50.0586112  65.2679741  58.2240647
  49.8817751  66.7450230  58.5050237  49.4556704  57.0380818  59.3976124
  48.7179461  56.5258204  59.7286367  49.7083478  56.5981199  58.5859401
  35.8492688  60.2187756  58.3799492  35.6517087  59.6257117  57.6550558
  35.2939352  59.9139966  59.0975430  44.9780605  64.0390986  51.7372368
  44.5400035  63.3226845  51.2778005  45.7191046  64.2667101  51.1757459
  41.7681771  58.7287922  58.2584464  40.9549637  59.0282093  58.6649656
  42.2640765  58.3343611  58.9758946  53.0953720  62.3148183  57.7948687
  52.9571618  62.5049779  56.8669876  52.7389939  63.0767566  58.2516738
  42.0356150  65.6008708  59.9880691  42.8296748  65.1059029  59.7863266
  41.3247842  65.0726571  59.6248397  38.3438913  59.7451790  56.0640444
  37.4136501  59.6836246  56.2810406  38.4396385  59.2227743  55.2677085
  38.2624462  56.2706603  58.6518685  38.5231280  57.1851936  58.5427846
  39.0841635  55.8031045  58.8015298  45.2075578  71.2746827  55.0104065
  45.3827333  70.8034870  55.8249687  44.5208366  71.9012593  55.2385325
  49.0991833  62.8975367  51.3304426  48.4821003  62.1722196  51.2337478
  48.6308321  63.6584728  50.9871500  40.8890379  57.1160792  50.4525730
  40.0119845  56.9949592  50.0887976  41.3648132  56.3246870  50.2004618
  32.4092519  61.9037951  60.5467237  33.0963558  61.5899681  59.9588252
  32.2540647  62.8079316  60.2734488  44.0754305  69.4687082  57.6988250
  43.2921826  70.0108762  57.7926475  44.7747050  69.9861062  58.0982491
  51.8553287  59.8770718  58.4510913  52.3213739  60.7098710  58.3771216
  52.3060787  59.4115700  59.1556172  49.9229518  66.2214539  55.4497065
  50.1989362  66.1071134  56.3590939  49.0534017  65.8232024  55.4109238
  46.5583582  70.4700890  59.0929879  46.7405976  69.6522546  59.5557631
  47.3816568  70.6868582  58.6554769  46.8925747  69.3969075  56.3544927
  47.4213514  68.8861530  55.7415089  47.1553967  69.0811605  57.2190460
  37.3942840  67.4132945  64.0980261  37.9796277  66.6676632  64.2308165
  37.1967678  67.7236901  64.9816925  40.2481495  70.4484192  59.1142703
  39.5791871  70.9330320  58.6306743  40.1094365  70.6953412  60.0286082
  31.9860495  59.9838545  62.8184704  32.0244594  59.4502135  63.6121822
  31.4800788  59.4573750  62.1995681  35.6169072  58.7102647  55.8938635
  35.9122513  57.8013325  55.8405689  34.7157108  58.6890386  55.5719638
  37.3456914  56.3916745  56.0177961  37.0169620  55.5114124  55.8353067
  37.6996285  56.3364413  56.9054350  40.4598737  56.6789714  56.3853438
  40.7994810  57.2075636  55.6632047  40.9070858  57.0170121  57.1612005
  42.4466884  55.1764336  54.5846731  43.1675247  55.5545589  54.0810448
  41.8232188  55.8953213  54.6881709  46.5898007  55.8809485  55.5205063
  46.8061622  56.7634123  55.2193892  46.1092074  55.4895698  54.7910705
  49.9865931  69.3685873  56.9699910  50.1602808  68.8032296  56.2173763
  50.4794822  70.1686768  56.7879400  35.8042891  61.3800543  65.0363469
  35.2596359  62.1560351  65.1683743  36.6822241  61.7271347  64.8782591
  42.5930507  54.7112126  57.4144268  42.7146419  53.7828773  57.6135155
  42.3032550  54.7250812  56.5022583  55.8405322  62.1322296  58.5890210
  56.2836468  61.3829622  58.1909333  54.9631832  62.1232433  58.2063942
  50.9741103  68.6852638  54.0696809  51.6692008  69.3059331  54.2884123
  51.3164253  67.8347989  54.3449187  52.8732526  66.1352343  55.5984139
  53.3983851  66.4739616  54.8733459  52.7854879  65.1999359  55.4147274
  44.5573187  72.2024327  59.9579393  44.1178178  71.7100705  60.6512249
  45.3081304  71.6597294  59.7171468  37.0365526  68.3935868  59.9604021
  37.8623546  68.0939639  59.5802664  36.6859578  67.6243490  60.4093809
  41.5660566  66.2966259  55.5060155  41.7148687  66.9801724  54.8526828
  42.3727010  66.2771349  56.0209611  39.3213199  62.3231437  56.5121224
  39.0759241  61.4193767  56.7101434  39.4909114  62.3248587  55.5700702
  38.5908847  58.0559794  54.0107385  37.8978092  58.1304149  53.3547421
  38.3460599  57.2920138  54.5328902  45.0655972  68.7914390  52.9771902
  44.4929939  69.4104577  52.5242374  45.6388765  69.3413751  53.5111824
  48.2853232  69.0751540  54.1080485  49.2183905  69.0097101  54.3113360
  48.1976444  69.9107807  53.6495017  50.9141248  68.3917410  51.0684432
  50.8354880  68.0577274  51.9620190  51.7350915  68.8839178  51.0675904
  45.4502770  60.1275202  50.3187955  46.3961875  59.9981410  50.3876373
  45.0717015  59.3889864  50.7957383  43.6345687  58.0525179  50.2542840
  42.7277143  57.7558291  50.3305554  43.9121668  57.7554997  49.3877126
  34.5523628  59.3731542  60.7041886  34.2326412  58.5196850  60.4116260
  34.0057056  59.5880120  61.4599854  45.2507753  52.5962068  56.4087081
  44.4408481  52.2509153  56.7842327  45.9392170  52.2869612  56.9974693
  47.1798301  51.6740115  58.0311378  47.7329340  52.0935569  58.6901401
  47.4168388  50.7475863  58.0734334  42.4044472  54.9112114  50.3954819
  43.2663636  55.2367012  50.6550636  42.5894816  54.1243610  49.8827885
  34.4211888  62.9934454  62.6735008  33.7275359  62.5788406  62.1604962
  35.1684879  63.0354990  62.0768427  36.3348630  62.9252707  60.5501023
  36.3119318  63.0240395  59.5982906  36.6449267  63.7717858  60.8718189
  49.3401987  55.9440731  56.5946390  48.4527842  56.2290381  56.3766585
  49.7555976  55.7834494  55.7473667  37.3486237  70.5248482  61.6817835
  37.2140705  69.7648883  61.1155833  36.9318299  71.2489382  61.2146624
  48.4845200  65.7085405  50.6894410  49.1881050  65.9135408  51.3052066
  47.7607849  66.2762167  50.9543494  49.3143010  61.4595267  56.8096681
  49.2578212  61.9163818  55.9704313  49.8671353  60.6985951  56.6319523
  40.5055363  71.4217799  61.8936278  40.3887747  72.3663231  61.7914968
  39.6847809  71.1191360  62.2822077  50.3931897  66.1467935  52.7392870
  51.2277501  65.7149133  52.5570345  50.2316240  65.9749948  53.6669765
  50.0477790  62.6500048  54.1049210  49.9926593  62.4844319  53.1637654
  49.4223845  63.3576081  54.2611399  34.8370305  57.8868112  67.9310632
  35.4829168  57.3767066  68.4197857  34.6287456  58.6236794  68.5054057
  43.3573915  52.1508157  53.6834528  43.3452585  53.0949997  53.8402799
  44.2497337  51.9678302  53.3893989  47.1726035  48.7450934  57.9380465
  46.4058430  48.1909420  58.0837147  47.5836740  48.8172802  58.7994617
  51.6892695  78.4700490  58.7606463  51.1257560  78.3790427  57.9922751
  51.5745090  77.6500395  59.2408955  49.2357126  79.9651682  61.5990683
  50.0278418  79.6242507  61.1836983  49.4753777  80.0746657  62.5192837
  57.2692253  82.1371458  54.0720928  56.6180233  82.7225538  53.6854942
  58.0636616  82.6677653  54.1315965  51.1947880  79.2260595  54.4708062
  51.9678756  78.6789582  54.3320938  51.5473279  80.0904844  54.6822523
  53.0332923  80.5536977  67.6774961  52.7422789  81.4582608  67.5621628
  53.6689907  80.5953505  68.3919031  53.9589130  77.9313826  64.2676321
  54.5552702  77.7069848  63.5533284  54.0164101  77.1898571  64.8701769
  53.5314158  75.3853261  52.1026512  53.7839679  74.8634783  51.3409975
  52.5938717  75.2219407  52.2053196  58.5757441  74.3889040  59.9101255
  59.3620530  73.9708463  59.5591672  58.8396145  75.2935132  60.0782904
  58.7467518  79.8261890  54.6089912  58.1113351  79.8996516  55.3210817
  58.4164925  80.4155489  53.9308991  53.2510447  77.2881367  54.3050887
  53.1346705  76.6126271  54.9731971  53.3612707  76.8013741  53.4883040
  55.5941988  76.7491514  58.0097576  55.2300195  76.2222135  58.7210498
  56.4509104  76.3589983  57.8364062  55.2347475  71.7781414  53.0058925
  55.4021877  72.6461650  53.3729396  55.0444644  71.9408696  52.0820214
  57.9922808  80.2398393  64.6724755  57.6923531  81.1423432  64.5640562
  57.6473868  79.9730576  65.5245908  51.4435290  76.6912190  60.7061460
  50.5185786  76.5588404  60.9139151  51.6919703  77.4706409  61.2031402
  55.2136696  74.2339072  53.9905592  55.0936321  74.6796122  54.8291072
  54.5189284  74.5824389  53.4319130  52.9743588  87.0042713  57.6395723
  52.8967618  87.9550538  57.7184203  52.3705231  86.6588586  58.2970649
  59.5191344  79.6886363  62.2099507  58.8900207  79.8532077  61.5075575
  59.1317006  80.1027973  62.9810471  63.3980576  80.6240801  59.5643871
  62.7131614  81.0039702  59.0140904  63.4824425  81.2336128  60.2975819
  60.6531508  78.2700760  66.1639214  60.8648403  78.9132520  65.4873595
  60.6061256  77.4363077  65.6961144  58.2557737  70.8818581  63.0675786
  57.3942216  71.1799834  63.3592524  58.2820171  71.0988980  62.1356819
  55.0719306  79.4260771  59.4749592  55.5357652  79.7048474  58.6854215
  54.8076104  78.5244216  59.2922683  51.9643387  78.9732253  62.4129355
  52.5344744  79.4019521  61.7746840  52.5551499  78.6914837  63.1113541
  54.0088192  75.5483924  56.2839157  54.7112235  76.0004967  56.7513084
  53.6768821  74.9067742  56.9119050  61.7677336  81.1472715  64.3361572
  62.5894779  80.7452903  64.0544253  61.7639739  81.0440950  65.2877687
  49.7028271  74.1712056  58.5439768  48.9059435  74.2830750  59.0623263
  49.4753864  74.5098708  57.6780658  55.5333939  80.6956759  66.4922282
  55.5978372  81.1577166  67.3280454  54.8244863  80.0654124  66.6204592
  69.8583329  77.4911464  60.6846543  69.1047037  76.9218862  60.5290548
  69.9930870  77.4574128  61.6317178  55.2481957  82.3624866  56.3601262
  55.1127632  83.2076402  56.7886110  55.7891769  82.5644144  55.5967196
  48.7011354  79.8800304  56.9329188  49.2135875  80.6743555  57.0834752
  49.3534067  79.1826595  56.8662789  50.5106239  82.9966061  59.0151941
  50.6872867  83.9184025  58.8272925  51.3063072  82.6824480  59.4446321
  56.8750433  82.9848433  70.4901605  56.4314287  82.1984811  70.1722509
  57.5367647  83.1727583  69.8245495  51.6337554  84.5144234  65.0162283
  52.1844979  84.3861298  64.2439277  50.7949030  84.8139123  64.6657176
  58.9731671  83.2651233  68.5183006  58.9550147  84.0860114  68.0263275
  59.8951591  83.1405308  68.7433147  55.4304725  80.7795362  69.3606514
  55.9633062  80.0183650  69.1305822  54.9018806  80.4869014  70.1030669
  46.6660271  78.2088959  57.7088758  47.5035493  78.6185967  57.4922466
  46.8438539  77.2688401  57.6788952  58.5624703  75.8764039  53.3972591
  58.0471326  76.6468644  53.6360978  58.2902011  75.2029175  54.0205653
  56.1471814  70.7213740  58.4557829  55.2913410  70.3320590  58.2763468
  56.5598766  70.8005701  57.5957615  63.5358977  78.6296394  55.3325765
  62.7588420  78.2907553  54.8880927  64.2150458  78.6349017  54.6580730
  58.3511006  73.7491131  55.2232372  58.0461142  74.0637280  56.0742515
  59.3041448  73.8272551  55.2659705  56.7957438  79.9081355  56.8725326
  56.2678800  79.1734114  56.5598564  56.2944941  80.6856031  56.6265295
  61.7750284  78.1030375  61.9892373  61.1173959  78.7929637  62.0772501
  62.5790683  78.4926807  62.3326359  51.5276166  70.5701021  59.2331938
  52.1019918  70.3476202  58.5005131  52.1147148  70.6389715  59.9860539
  60.5855743  76.4574748  60.0396314  61.0987625  77.0904740  60.5418024
  61.2356967  75.8575943  59.6739674  51.8545753  72.6005482  53.2527823
  51.0183065  72.9380168  53.5737098  51.7150522  72.4654462  52.3154960
  53.8298833  67.4442270  57.9607007  53.1763246  67.1291287  57.3363622
  53.7879308  66.8218010  58.6866830  54.9410038  77.7261565  49.8760299
  54.0337100  77.4950818  50.0751448  55.4381070  76.9299184  50.0634281
  57.8478117  86.4359072  52.7956985  57.1739816  86.7390769  53.4041943
  58.2343939  87.2388152  52.4462442  57.8471621  75.3315619  57.4157335
  58.5943440  75.8437016  57.1064457  58.1163211  75.0099672  58.2761729
  56.1198272  77.8274160  54.3984289  55.2109491  77.5433193  54.4956759
  56.1493355  78.2473238  53.5387596  61.3517539  81.4380749  58.1675457
  60.8979866  80.5971659  58.2240647  60.7211506  82.0742148  58.5050237
  59.7950478  83.2757246  59.1025275  60.0873453  83.8362303  58.3837641
  60.3049099  83.5685807  59.8578434  46.6886442  75.5479674  58.3799492
  46.4910842  74.9549035  57.6550558  46.1333106  75.2431884  59.0975430
  54.6683166  75.4402780  60.4994085  54.7231775  74.4876617  60.4236561
  53.8574368  75.5962219  60.9835383  55.8174359  79.3682903  51.7372368
  55.3793789  78.6518762  51.2778005  56.5584800  79.5959018  51.1757459
  52.6075526  74.0579840  58.2584464  51.7943391  74.3574011  58.6649656
  53.1034520  73.6635529  58.9758946  54.7584104  84.0537597  60.1918728
  54.7160282  84.2798443  59.2627260  55.6746802  83.8200972  60.3404529
  63.9347474  77.6440100  57.7948687  63.7965373  77.8341696  56.8669876
  63.5783693  78.4059483  58.2516738  52.8749904  80.9300626  59.9880691
  53.6690503  80.4350946  59.7863266  52.1641597  80.4018489  59.6248397
  57.6944749  83.3118722  64.3393059  57.7481771  83.8809658  65.1070775
  56.8259530  83.4820607  63.9747096  49.1832668  75.0743708  56.0640444
  48.2530256  75.0128163  56.2810406  49.2790140  74.5519661  55.2677085
  49.1018217  71.5998521  58.6518685  49.3625034  72.5143854  58.5427846
  49.9235389  71.1322963  58.8015298  64.8232403  79.7540328  65.3392843
  65.0168294  80.6586139  65.5852118  64.7233022  79.2947747  66.1731428
  55.4521180  81.5029648  63.6678528  55.3132266  81.1348432  64.5404466
  54.6635777  82.0177287  63.4962486  56.0469332  86.6038744  55.0104065
  56.2221088  86.1326788  55.8249687  55.3602120  87.2304511  55.2385325
  57.0026395  80.8811251  61.0567366  56.6676228  80.8412021  61.9525016
  56.5030341  80.2155967  60.5837776  59.9385587  78.2267285  51.3304426
  59.3214758  77.5014113  51.2337478  59.4702076  78.9876645  50.9871500
  61.5939719  82.9366193  68.9910206  61.5352265  82.2525414  68.3240789
  61.9959237  83.6785183  68.5390832  50.6130418  89.7528107  61.7843925
  50.8527016  90.3846631  62.4622943  49.7699614  89.4016147  62.0709284
  51.7284133  72.4452709  50.4525730  50.8513599  72.3241510  50.0887976
  52.2041886  71.6538788  50.2004618  61.5957126  80.9005777  67.2224186
  60.7083905  80.5631699  67.3450584  62.1655677  80.1688809  67.4592951
  43.2486273  77.2329869  60.5467237  43.9357313  76.9191599  59.9588252
  43.0934402  78.1371234  60.2734488  55.1258279  85.5607230  64.1885429
  55.0528451  86.3662201  64.7004733  54.6835673  85.7599196  63.3633450
  54.9148059  84.7979000  57.6988250  54.1315581  85.3400680  57.7926475
  55.6140804  85.3152979  58.0982491  58.2244709  70.6073629  60.3422456
  58.7213409  69.8543592  60.0223526  57.4531691  70.6437946  59.7765665
  57.5856963  85.4594064  66.3443587  58.2984935  86.0941529  66.2719489
  57.0946992  85.5557930  65.5283589  59.3074490  79.3645316  57.9160879
  58.3730769  79.4846779  57.7465583  59.4851158  78.4617783  57.6520889
  52.6368876  83.2088507  67.1649158  53.3378336  83.8424990  67.3178552
  52.1663991  83.5503239  66.4044798  60.7623272  81.5506457  55.4497065
  61.0383116  81.4363052  56.3590939  59.8927771  81.1523942  55.4109238
  57.3977336  85.7992808  59.0929879  57.5799731  84.9814464  59.5557631
  58.2210322  86.0160500  58.6554769  57.7319502  84.7260993  56.3544927
  58.2607268  84.2153448  55.7415089  57.9947721  84.4103523  57.2190460
  48.2336595  82.7424862  64.0980261  48.8190031  81.9968550  64.2308165
  48.0361433  83.0528819  64.9816925  51.0875250  85.7776110  59.1142703
  50.4185625  86.2622237  58.6306743  50.9488119  86.0245330  60.0286082
  55.2280518  87.8119853  65.7125362  55.7798826  87.9751475  66.4774447
  55.5686712  88.4024291  65.0405387  60.0791393  82.6381111  71.5674016
  60.6231297  83.2511069  71.0728971  59.4978238  83.1960689  72.0841029
  46.4562827  74.0394565  55.8938635  46.7516268  73.1305243  55.8405689
  45.5550863  74.0182304  55.5719638  58.3648906  85.7601829  62.6989044
  58.2400045  84.9591569  62.1899989  59.0227997  86.2548022  62.2103014
  60.4283814  83.5610849  64.3268594  59.4814150  83.4416200  64.2546921
  60.7766587  82.6733347  64.4094855  48.1850668  71.7208662  56.0177961
  47.8563375  70.8406041  55.8353067  48.5390039  71.6656331  56.9054350
  57.4330247  83.3563565  60.5272946  57.2855210  82.4280272  60.7080516
  58.2583741  83.3783656  60.0430021  51.2992492  72.0081632  56.3853438
  51.6388564  72.5367553  55.6632047  51.7464612  72.3462038  57.1612005
  61.0364369  84.1792124  61.6137819  61.9610917  83.9734985  61.4762270
  60.8679673  83.9308525  62.5227160  53.2860639  70.5056254  54.5846731
  54.0069001  70.8837506  54.0810448  52.6625943  71.2245130  54.6881709
  60.8259685  84.6977791  56.9699910  60.9996563  84.1324214  56.2173763
  61.3188577  85.4978686  56.7879400  53.4324262  70.0404044  57.4144268
  53.5540173  69.1120690  57.6135155  53.1426304  70.0542730  56.5022583
  61.8134858  84.0144556  54.0696809  62.5085762  84.6351248  54.2884123
  62.1558008  83.1639907  54.3449187  63.7126281  81.4644261  55.5984139
  64.2377605  81.8031534  54.8733459  63.6248634  80.5291276  55.4147274
  55.3746330  85.3778335  67.7274016  55.6833456  85.1327482  68.5996716
  56.1721812  85.5824973  67.2392886  55.3966942  87.5316244  59.9579393
  54.9571932  87.0392623  60.6512249  56.1475059  86.9889212  59.7171468
  47.8759281  83.7227785  59.9604021  48.7017301  83.4231557  59.5802664
  47.5253333  82.9535408  60.4093809  52.8440814  83.0754253  62.0301694
  52.2220823  82.4124958  61.7303922  53.5145681  83.1015385  61.3475342
  46.0767886  81.6414112  60.9192954  45.2399794  81.2136286  60.7376956
  46.0491531  81.8346555  61.8563745  63.4020187  82.0977165  70.9035337
  62.6115731  82.0801304  70.3639837  63.1653542  82.6365458  71.6584374
  52.4054321  81.6258177  55.5060155  52.5542441  82.3093641  54.8526828
  53.2120764  81.6063267  56.0209611  65.0236259  81.3666573  68.4610087
  64.7321067  81.7296553  69.2973548  64.4108390  80.6533581  68.2823420
  63.2723447  76.4899187  66.9290145  63.7477569  76.6826834  66.1208997
  62.3489013  76.5458373  66.6833529  50.1606954  77.6523354  56.5121224
  49.9152996  76.7485684  56.7101434  50.3302868  77.6540505  55.5700702
  49.4302601  73.3851712  54.0107385  48.7371846  73.4596067  53.3547421
  49.1854353  72.6212056  54.5328902  55.9049726  84.1206307  52.9771902
  55.3323693  84.7396494  52.5242374  56.4782520  84.6705669  53.5111824
  61.9725116  73.3664947  65.1618451  62.9242539  73.4663045  65.1830675
  61.8028567  72.5743216  65.6716535  59.9939496  70.4520531  65.3477852
  59.3989428  70.7325543  64.6524341  59.7089192  70.9414431  66.1194593
  59.1246986  84.4043457  54.1080485  60.0577659  84.3389019  54.3113360
  59.0370199  85.2399724  53.6495017  61.7535003  83.7209328  51.0684432
  61.6748634  83.3869191  51.9620190  62.5744670  84.2131096  51.0675904
  56.2896525  75.4567120  50.3187955  57.2355630  75.3273328  50.3876373
  55.9110770  74.7181782  50.7957383  70.2689744  77.6487074  63.4166787
  70.9993132  77.3872362  63.9774491  69.6596689  76.9115796  63.4568855
  54.4739442  73.3817096  50.2542840  53.5670897  73.0850209  50.3305554
  54.7515423  73.0846914  49.3877126  56.0901508  67.9253986  56.4087081
  55.2802236  67.5801071  56.7842327  56.7785925  67.6161530  56.9974693
  53.2438227  70.2404032  50.3954819  54.1057391  70.5658930  50.6550636
  53.4288571  69.4535528  49.8827885  47.1742385  78.2544625  60.5501023
  47.1513073  78.3532312  59.5982906  47.4843021  79.1009776  60.8718189
  48.1879992  85.8540400  61.6817835  48.0534459  85.0940800  61.1155833
  47.7712054  86.5781299  61.2146624  59.3238955  81.0377323  50.6894410
  60.0274805  81.2427326  51.3052066  58.6001603  81.6054085  50.9543494
  60.1536765  76.7887184  56.8096681  60.0971966  77.2455736  55.9704313
  60.7065107  76.0277869  56.6319523  51.3449117  86.7509717  61.8936278
  51.2281502  87.6955149  61.7914968  50.5241564  86.4483278  62.2822077
  61.2325652  81.4759852  52.7392870  62.0671256  81.0441051  52.5570345
  61.0709995  81.3041866  53.6669765  60.8871544  77.9791966  54.1049210
  60.8320348  77.8136237  53.1637654  60.2617599  78.6867999  54.2611399
  54.1967670  67.4800075  53.6834528  54.1846339  68.4241915  53.8402799
  55.0891091  67.2970220  53.3893989  52.3703632  87.4037979  65.1092206
  53.2730878  87.4361589  65.4258701  52.1441002  86.4738429  65.1238542
  54.1257234  86.1568965  61.7702285  53.1752865  86.1570827  61.6566657
  54.4289720  85.4101700  61.2538319  69.8609927  91.9929503  62.8348047
  70.4988337  91.8736251  62.1311387  69.7430770  92.9410347  62.8935999
  66.6699633  91.9456932  62.7709572  66.3318145  91.8297996  61.8830107
  67.5389401  91.5448097  62.7510578  62.5286449  93.7992408  58.7606463
  61.9651314  93.7082345  57.9922751  62.4138844  92.9792312  59.2408955
  67.1519416  93.0991783  68.7295777  67.1408057  92.7044582  67.8576281
  67.3140056  92.3657856  69.3229549  60.0750881  95.2943600  61.5990683
  60.8672173  94.9534424  61.1836983  60.3147531  95.4038575  62.5192837
  68.1086008  97.4663376  54.0720928  67.4573987  98.0517456  53.6854942
  68.9030371  97.9969571  54.1315965  62.0341635  94.5552513  54.4708062
  62.8072511  94.0081500  54.3320938  62.3867034  95.4196762  54.6822523
  63.8726677  95.8828895  67.6774961  63.5816543  96.7874526  67.5621628
  64.5083662  95.9245423  68.3919031  64.7982884  93.2605744  64.2676321
  65.3946457  93.0361766  63.5533284  64.8557856  92.5190489  64.8701769
  64.3707913  90.7145179  52.1026512  64.6233433  90.1926700  51.3409975
  63.4332472  90.5511324  52.2053196  69.4151196  89.7180957  59.9101255
  70.2014285  89.3000380  59.5591672  69.6789900  90.6227049  60.0782904
  69.5861273  95.1553808  54.6089912  68.9507106  95.2288434  55.3210817
  69.2558679  95.7447406  53.9308991  74.8159623  89.6556190  60.8134234
  75.5484795  89.0855407  61.0472063  74.0598978  89.2677791  61.2540739
  64.0904201  92.6173285  54.3050887  63.9740460  91.9418188  54.9731971
  64.2006461  92.1305659  53.4883040  66.4335742  92.0783432  58.0097576
  66.0693950  91.5514053  58.7210498  67.2902858  91.6881901  57.8364062
  72.3385043  83.3677765  65.2728842  72.0068368  84.2373176  65.0490057
  71.7430656  83.0514049  65.9522873  66.0741229  87.1073332  53.0058925
  66.2415632  87.9753568  53.3729396  65.8838398  87.2700613  52.0820214
  68.8316563  95.5690311  64.6724755  68.5317286  96.4715349  64.5640562
  68.4867622  95.3022494  65.5245908  62.2829044  92.0204107  60.7061460
  61.3579540  91.8880322  60.9139151  62.5313457  92.7998327  61.2031402
  72.2313706  88.0872851  62.3522192  71.3230584  88.0188259  62.0580953
  72.1801302  88.5644796  63.1804018  66.0530450  89.5630989  53.9905592
  65.9330075  90.0088040  54.8291072  65.3583039  89.9116307  53.4319130
  59.6437855  91.6637381  61.5405249  59.7730236  91.9171860  62.4544660
  58.9635306  92.2565089  61.2209904  63.8137342 102.3334631  57.6395723
  63.7361372 103.2842456  57.7184203  63.2098986 101.9880503  58.2970649
  66.3054572  89.5062496  70.2957090  65.5287906  90.0656417  70.2859954
  66.9445135  89.9919279  70.8171960  74.0975353  86.2889289  64.1300066
  73.4549733  86.5821822  63.4839861  73.5930281  86.1742210  64.9353263
  71.7515516  90.0352462  54.8185926  72.6633372  90.2679849  54.6433623
  71.2425163  90.6189507  54.2561004  64.5600944  92.3147950  69.8575057
  65.3015629  92.8532994  69.5809880  63.8537930  92.9414238  70.0146608
  70.0356284  94.4577090  68.4547218  70.4439640  94.0159501  67.7101851
  69.3133546  93.8829718  68.7081411  66.3887354  89.3949697  65.8280775
  67.2348549  89.8189111  65.9715424  66.3285992  88.7383321  66.5219338
  70.3585099  95.0178281  62.2099507  69.7293961  95.1823995  61.5075575
  69.9710761  95.4319890  62.9810471  74.2374331  95.9532719  59.5643871
  73.5525369  96.3331620  59.0140904  74.3218180  96.5628045  60.2975819
  69.5386799  87.0554065  67.4861949  69.2947731  87.8096126  66.9496224
  69.8146730  87.4339413  68.3209196  71.4925262  93.5992678  66.1639214
  71.7042157  94.2424438  65.4873595  71.4455010  92.7654994  65.6961144
  69.0951491  86.2110498  63.0675786  68.2335970  86.5091752  63.3592524
  69.1213926  86.4280897  62.1356819  65.9113061  94.7552689  59.4749592
  66.3751406  95.0340392  58.6854215  65.6469859  93.8536133  59.2922683
  62.8037142  94.3024170  62.4129355  63.3738499  94.7311439  61.7746840
  63.3945253  94.0206755  63.1113541  64.8481947  90.8775841  56.2839157
  65.5505990  91.3296885  56.7513084  64.5162575  90.2359660  56.9119050
  63.2962308  89.4687598  70.6590367  62.6660969  90.1503879  70.8925763
  63.1898396  89.3570680  69.7143505  58.5907281  89.1359394  61.5856291
  57.8006335  89.3916922  61.1096401  59.0818528  89.9507732  61.6908331
  72.6071090  96.4764633  64.3361572  73.4288534  96.0744820  64.0544253
  72.6033493  96.3732867  65.2877687  60.5422026  89.5003973  58.5439768
  59.7453189  89.6122667  59.0623263  60.3147618  89.8390625  57.6780658
  66.3727694  96.0248676  66.4922282  66.4372126  96.4869084  67.3280454
  65.6638617  95.3946041  66.6204592  56.8744984  89.3889884  64.0171282
  57.1253022  90.2736894  64.2828858  57.4104532  89.2094486  63.2446373
  80.6977083  92.8203382  60.6846543  79.9440792  92.2510780  60.5290548
  80.8324624  92.7866046  61.6317178  66.0875711  97.6916784  56.3601262
  65.9521386  98.5368320  56.7886110  66.6285524  97.8936062  55.5967196
  62.5743051  83.7708364  73.0215618  62.1809996  83.2174562  73.6963262
  63.3909191  84.0818942  73.4122135  59.5405109  95.2092222  56.9329188
  60.0529629  96.0035472  57.0834752  60.1927821  94.5118512  56.8662789
  61.3499993  98.3257978  59.0151941  61.5266622  99.2475943  58.8272925
  62.1456827  98.0116397  59.4446321  65.4911012  85.1866243  70.6135874
  66.2320725  85.7873396  70.5340337  65.7228935  84.4443881  70.0553917
  60.6352350  90.3722610  68.8914104  60.5205865  89.4707867  69.1921203
  59.7796868  90.6186307  68.5398921  67.7144188  98.3140350  70.4901605
  67.2708042  97.5276729  70.1722509  68.3761401  98.5019501  69.8245495
  62.4731309  99.8436152  65.0162283  63.0238734  99.7153215  64.2439277
  61.6342785 100.1431041  64.6657176  69.8125426  98.5943150  68.5183006
  69.7943901  99.4152031  68.0263275  70.7345346  98.4697226  68.7433147
  66.2698480  96.1087280  69.3606514  66.8026817  95.3475568  69.1305822
  65.7412561  95.8160932  70.1030669  69.4368175  81.2147346  64.8900156
  69.0932444  82.1048987  64.8139267  69.8047137  81.0249003  64.0269741
  57.5054025  93.5380876  57.7088758  58.3429247  93.9477885  57.4922466
  57.6832293  92.5980318  57.6788952  69.4018458  91.2055957  53.3972591
  68.8865081  91.9760562  53.6360978  69.1295766  90.5321093  54.0205653
  66.9865569  86.0505658  58.4557829  66.1307165  85.6612508  58.2763468
  67.3992520  86.1297618  57.5957615  68.5164715  83.5852001  62.8549389
  68.0129511  83.5482136  62.0417195  68.8095322  84.4944744  62.9146046
  64.7607601  83.6690731  61.8615571  65.6260598  83.4733539  61.5021460
  64.8285110  83.4401082  62.7884928  74.3752732  93.9588312  55.3325765
  73.5982174  93.6199471  54.8880927  75.0544213  93.9640935  54.6580730
  69.1904761  89.0783049  55.2232372  68.8854896  89.3929198  56.0742515
  70.1435203  89.1564469  55.2659705  67.6351193  95.2373272  56.8725326
  67.1072554  94.5026032  56.5598564  67.1338695  96.0147949  56.6265295
  72.6144039  93.4322293  61.9892373  71.9567713  94.1221554  62.0772501
  73.4184438  93.8218725  62.3326359  62.3669920  85.8992939  59.2331938
  62.9413672  85.6768120  58.5005131  62.9540903  85.9681633  59.9860539
  71.4249497  91.7866665  60.0396314  71.9381379  92.4196657  60.5418024
  72.0750721  91.1867861  59.6739674  62.6939507  87.9297400  53.2527823
  61.8576820  88.2672086  53.5737098  62.5544277  87.7946379  52.3154960
  64.6692588  82.7734187  57.9607007  64.0157000  82.4583205  57.3363622
  64.6273062  82.1509928  58.6866830  65.7803793  93.0553483  49.8760299
  64.8730854  92.8242736  50.0751448  66.2774825  92.2591102  50.0634281
  68.6871872 101.7650990  52.7956985  68.0133570 102.0682687  53.4041943
  69.0737694 102.5680070  52.4462442  67.9030328  89.2616121  62.2854655
  66.9852890  89.4831068  62.1276343  68.3190472  89.3362431  61.4266362
  68.6865376  90.6607537  57.4157335  69.4337195  91.1728934  57.1064457
  68.9556966  90.3391589  58.2761729  66.9592026  93.1566077  54.3984289
  66.0503245  92.8725110  54.4956759  66.9887110  93.5765156  53.5387596
  72.1911294  96.7672667  58.1675457  71.7373621  95.9263577  58.2240647
  71.5605260  97.4034065  58.5050237  71.1344213  87.6964653  59.3976124
  70.3966970  87.1842039  59.7286367  71.3870987  87.2565035  58.5859401
  70.6344233  98.6049164  59.1025275  70.9267207  99.1654221  58.3837641
  71.1442853  98.8977725  59.8578434  71.2355840  80.4740905  59.9917894
  71.5414717  79.6138268  59.7043809  71.9608445  81.0658525  59.7916888
  57.5280197  90.8771592  58.3799492  57.3304596  90.2840952  57.6550558
  56.9726861  90.5723802  59.0975430  65.5076920  90.7694698  60.4994085
  65.5625530  89.8168534  60.4236561  64.6968122  90.9254137  60.9835383
  66.6568114  94.6974821  51.7372368  66.2187544  93.9810680  51.2778005
  67.3978555  94.9250936  51.1757459  63.4469280  89.3871758  58.2584464
  62.6337146  89.6865928  58.6649656  63.9428274  88.9927447  58.9758946
  65.5977858  99.3829515  60.1918728  65.5554037  99.6090361  59.2627260
  66.5140557  99.1492889  60.3404529  69.0443492  89.8513582  67.0899357
  69.3992880  90.0785055  67.9493823  69.6915623  90.1831959  66.4676613
  74.7741229  92.9732018  57.7948687  74.6359127  93.1633614  56.8669876
  74.4177448  93.7351401  58.2516738  62.9383355  86.9590113  63.8745699
  63.5782734  86.8178872  63.1768662  62.1060885  86.6724627  63.4984301
  74.8010608  95.0408545  62.8059958  75.2347115  94.9483834  63.6543012
  75.5142189  95.0166046  62.1679974  63.7143659  96.2592544  59.9880691
  64.5084257  95.7642864  59.7863266  63.0035351  95.7310407  59.6248397
  68.5338503  98.6410639  64.3393059  68.5875526  99.2101576  65.1070775
  67.6653285  98.8112524  63.9747096  60.0226422  90.4035625  56.0640444
  59.0924010  90.3420081  56.2810406  60.1183894  89.8811578  55.2677085
  59.9411971  86.9290438  58.6518685  60.2018789  87.8435772  58.5427846
  60.7629144  86.4614881  58.8015298  61.4136897  88.3428195  65.8217510
  62.0859950  88.1345558  65.1730159  60.5866683  88.1450281  65.3822742
  75.6626158  95.0832246  65.3392843  75.8562048  95.9878056  65.5852118
  75.5626776  94.6239665  66.1731428  67.3162469  84.9690136  67.8383171
  66.6690384  85.6680086  67.7447647  68.0863484  85.4026280  68.2059419
  70.7241267  95.2338989  70.9133724  70.5726773  95.0049540  69.9963808
  70.7145946  96.1909590  70.9265069  67.4926603  92.8070901  65.8979990
  68.4218663  92.9582061  65.7248958  67.0717633  92.8954922  65.0428637
  66.2914935  96.8321566  63.6678528  66.1526020  96.4640350  64.5404466
  65.5029531  97.3469205  63.4962486  66.8863087 101.9330662  55.0104065
  67.0614842 101.4618705  55.8249687  66.1995875 102.5596428  55.2385325
  67.8420150  96.2103168  61.0567366  67.5069983  96.1703938  61.9525016
  67.3424096  95.5447884  60.5837776  61.8164394  91.6170798  66.5819947
  61.6784192  90.8851037  67.1831486  62.7269317  91.5279699  66.3004135
  70.7779342  93.5559203  51.3304426  70.1608512  92.8306031  51.2337478
  70.3095830  94.3168563  50.9871500  64.4446695  91.3290758  66.0703627
  65.1546313  90.6883950  66.0290245  64.4016003  91.5803653  66.9929807
  72.4333473  98.2658111  68.9910206  72.3746019  97.5817331  68.3240789
  72.8352992  99.0077101  68.5390832  63.1575629  88.3155976  67.8899266
  62.6212986  87.8646714  68.5420862  62.5692337  88.4501884  67.1469731
  61.4524172 105.0820025  61.7843925  61.6920770 105.7138549  62.4622943
  60.6093369 104.7308065  62.0709284  62.5677887  87.7744627  50.4525730
  61.6907354  87.6533428  50.0887976  63.0435641  86.9830705  50.2004618
  72.4350881  96.2297695  67.2224186  71.5477659  95.8923617  67.3450584
  73.0049432  95.4980726  67.4592951  54.0880028  92.5621787  60.5467237
  54.7751067  92.2483517  59.9588252  53.9328156  93.4663151  60.2734488
  58.8914750  87.4511983  64.9752261  58.8072939  86.8437653  64.2402671
  58.0697456  87.9421002  64.9761757  65.9652034 100.8899147  64.1885429
  65.8922205 101.6954119  64.7004733  65.5229427 101.0891113  63.3633450
  65.7541814 100.1270917  57.6988250  64.9709335 100.6692598  57.7926475
  66.4534559 100.6444897  58.0982491  69.0638464  85.9365547  60.3422456
  69.5607163  85.1835509  60.0223526  68.2925445  85.9729864  59.7765665
  76.9168221  91.6405912  61.9840747  76.9058097  92.5230628  61.6134680
  76.0485600  91.2877463  61.7895284  68.4250717 100.7885981  66.3443587
  69.1378690 101.4233446  66.2719489  67.9340746 100.8849847  65.5283589
  70.1468244  94.6937234  57.9160879  69.2124523  94.8138697  57.7465583
  70.3244913  93.7909701  57.6520889  65.6473432  88.0782930  60.0694140
  65.2771220  87.5253970  60.7575046  66.1432525  87.4741063  59.5169140
  73.5340796  90.5354553  58.4510913  74.0001248  91.3682545  58.3771216
  73.9848296  90.0699535  59.1556172  63.4762631  98.5380425  67.1649158
  64.1772090  99.1716908  67.3178552  63.0057746  98.8795156  66.4044798
  71.6017027  96.8798375  55.4497065  71.8776871  96.7654969  56.3590939
  70.7321526  96.4815860  55.4109238  71.5057458  82.9035140  62.4901815
  70.5920538  83.1339367  62.6584022  71.9350560  82.9873584  63.3415847
  71.2763917  91.0925032  64.9901709  70.6235367  91.3400940  64.3354161
  71.6544297  90.2789171  64.6564186  68.2371091 101.1284726  59.0929879
  68.4193485 100.3106381  59.5557631  69.0604077 101.3452418  58.6554769
  68.5713256 100.0552911  56.3544927  69.1001023  99.5445365  55.7415089
  68.8341476  99.7395441  57.2190460  67.3251490  91.8344843  71.4767746
  66.6492127  91.7338973  72.1470121  68.1479124  91.6784057  71.9403743
  59.0730349  98.0716780  64.0980261  59.6583786  97.3260468  64.2308165
  58.8755187  98.3820737  64.9816925  61.9269004 101.1068027  59.1142703
  61.2579380 101.5914155  58.6306743  61.7881874 101.3537248  60.0286082
  53.6648004  90.6422380  62.8184704  53.7032103  90.1085971  63.6121822
  53.1588297  90.1157586  62.1995681  66.0674273 103.1411771  65.7125362
  66.6192581 103.3043392  66.4774447  66.4080466 103.7316209  65.0405387
  61.0438766  85.4886921  66.3147246  61.1080093  86.3501752  65.9024644
  60.9805886  84.8760922  65.5819605  60.5191039  87.5610053  69.9620281
  61.1463077  87.1787130  70.5757805  59.6618957  87.3424255  70.3275973
  70.9185147  97.9673028  71.5674016  71.4625051  98.5802987  71.0728971
  70.3371992  98.5252607  72.0841029  57.2956581  89.3686482  55.8938635
  57.5910022  88.4597161  55.8405689  56.3944617  89.3474222  55.5719638
  69.2042660 101.0893746  62.6989044  69.0793800 100.2883486  62.1899989
  69.8621751 101.5839940  62.2103014  60.8250828  87.4442479  61.8766184
  60.1037414  88.0578447  61.7373657  61.6144084  87.9800244  61.7982830
  71.2677568  98.8902766  64.3268594  70.3207904  98.7708118  64.2546921
  71.6160342  98.0025264  64.4094855  63.6277142  84.7796905  68.1506836
  64.1511544  85.0259202  68.9133145  63.4089475  85.6116940  67.7309973
  59.0244423  87.0500580  56.0177961  58.6957129  86.1697959  55.8353067
  59.3783794  86.9948249  56.9054350  68.2724002  98.6855483  60.5272946
  68.1248964  97.7572190  60.7080516  69.0977495  98.7075573  60.0430021
  62.1386246  87.3373550  56.3853438  62.4782319  87.8659471  55.6632047
  62.5858367  87.6753956  57.1612005  71.8758124  99.5084041  61.6137819
  72.8004671  99.3026903  61.4762270  71.7073427  99.2600443  62.5227160
  64.8329687  85.7210600  65.8356506  64.4926507  84.9218414  66.2377186
  64.1268693  86.0212311  65.2633340  65.4846159  82.8059913  64.2883829
  66.3072228  82.3320391  64.1662720  65.7284222  83.5850397  64.7882516
  64.1254393  85.8348171  54.5846731  64.8462756  86.2129424  54.0810448
  63.5019697  86.5537048  54.6881709  68.2685516  86.5393320  55.5205063
  68.4849130  87.4217958  55.2193892  67.7879583  86.1479534  54.7910705
  63.0084737  89.4979034  62.0975808  62.8629318  89.8119337  62.9900089
  62.5309941  90.1163934  61.5446707  64.8681120  86.4881582  62.1456698
  64.8542689  85.5922675  61.8088995  65.5853548  86.4952245  62.7794984
  66.7207251  86.9218922  64.1909825  66.4625029  87.8435992  64.1894155
  66.1892291  86.5249356  64.8810289  71.6653440 100.0269709  56.9699910
  71.8390317  99.4616131  56.2173763  72.1582331 100.8270604  56.7879400
  57.4830400  92.0384378  65.0363469  56.9383868  92.8144186  65.1683743
  58.3609750  92.3855182  64.8782591  64.2718016  85.3695962  57.4144268
  64.3933927  84.4412608  57.6135155  63.9820059  85.3834648  56.5022583
  67.1409207  83.0550872  60.5510988  67.1630904  83.1190205  59.5962967
  67.5577266  82.2155381  60.7451494  77.5192831  92.7906132  58.5890210
  77.9623977  92.0413457  58.1909333  76.6419341  92.7816268  58.2063942
  72.6528612  99.3436473  54.0696809  73.3479517  99.9643166  54.2884123
  72.9951762  98.4931824  54.3449187  58.2696422  91.1654274  67.9293626
  57.5278158  91.3136910  68.5158256  57.9489166  91.4262540  67.0660375
  74.5520035  96.7936179  55.5984139  75.0771360  97.1323452  54.8733459
  74.4642388  95.8583194  55.4147274  66.2140084 100.7070252  67.7274016
  66.5227211 100.4619399  68.5996716  67.0115566 100.9116891  67.2392886
  66.2360696 102.8608162  59.9579393  65.7965686 102.3684541  60.6512249
  66.9868813 102.3181130  59.7171468  58.7153035  99.0519703  59.9604021
  59.5411055  98.7523475  59.5802664  58.3647087  98.2827325  60.4093809
  63.6834568  98.4046171  62.0301694  63.0614578  97.7416876  61.7303922
  64.3539435  98.4307303  61.3475342  56.9161640  96.9706029  60.9192954
  56.0793549  96.5428204  60.7376956  56.8885286  97.1638473  61.8563745
  63.7559096  86.8827959  71.6234200  63.8047251  87.7590082  71.2411970
  64.2981610  86.3405352  71.0505844  74.2413942  97.4269082  70.9035337
  73.4509485  97.4093221  70.3639837  74.0047296  97.9657376  71.6584374
  74.3611817  94.2761549  68.2168066  74.4109821  94.1111556  69.1583589
  74.2525740  93.4088808  67.8265947  63.2448075  96.9550094  55.5060155
  63.3936196  97.6385559  54.8526828  64.0514519  96.9355185  56.0209611
  71.6515579  90.2592477  69.5327373  72.5525442  90.1198942  69.2411370
  71.7263553  90.4246932  70.4725550  65.9858384  87.6359332  68.3780559
  65.1161694  87.9292898  68.1063147  66.2217865  88.2199777  69.0987823
  75.8630013  96.6958490  68.4610087  75.5714822  97.0588471  69.2973548
  75.2502145  95.9825499  68.2823420  77.0625696  94.2611370  60.9812658
  77.8972587  94.7001174  61.1450218  77.1984825  93.7850023  60.1620903
  74.1117202  91.8191105  66.9290145  74.5871323  92.0118751  66.1208997
  73.1882767  91.8750291  66.6833529  61.0000708  92.9815272  56.5121224
  60.7546750  92.0777602  56.7101434  61.1696623  92.9832423  55.5700702
  68.6897418  83.8538948  65.8945979  69.2079362  84.5899975  65.5692468
  68.3352551  84.1602942  66.7292738  60.2696356  88.7143630  54.0107385
  59.5765601  88.7887985  53.3547421  60.0248108  87.9503973  54.5328902
  68.9410012  80.2739231  61.4146876  69.2211766  79.6062420  62.0407302
  69.7260619  80.4668327  60.9021540  66.7443481  99.4498225  52.9771902
  66.1717448 100.0688412  52.5242374  67.3176274  99.9997587  53.5111824
  72.8118871  88.6956865  65.1618451  73.7636294  88.7954963  65.1830675
  72.6422321  87.9035134  65.6716535  70.8333250  85.7812448  65.3477852
  70.2383182  86.0617461  64.6524341  70.5482947  86.2706349  66.1194593
  69.9640741  99.7335375  54.1080485  70.8971414  99.6680937  54.3113360
  69.8763953 100.5691642  53.6495017  72.5928757  99.0501245  51.0684432
  72.5142389  98.7161109  51.9620190  73.4138424  99.5423013  51.0675904
  75.2906948  91.9162985  64.2760751  75.2583269  90.9778985  64.4620435
  75.9007572  91.9947021  63.5426576  67.1290279  90.7859038  50.3187955
  68.0749384  90.6565246  50.3876373  66.7504524  90.0473700  50.7957383
  75.4401437  88.7074028  64.3219034  74.9240486  87.9232485  64.1348963
  76.3241385  88.3792745  64.4865553  73.1012164  82.4515044  60.2814847
  72.9036985  82.1430132  61.1658179  73.7111869  83.1776683  60.4112776
  81.1083498  92.9778992  63.4166787  81.8386887  92.7164280  63.9774491
  80.4990444  92.2407713  63.4568855  79.1898795  91.1186854  64.0141239
  78.4631959  90.9842819  63.4057730  78.7746082  91.4263683  64.8197957
  67.0128972  94.8376784  71.7788612  67.9331981  95.0155383  71.9728658
  66.9778555  93.8932829  71.6268311  65.3133196  88.7109014  50.2542840
  64.4064652  88.4142127  50.3305554  65.5909177  88.4138832  49.3877126
  56.2311137  90.0315377  60.7041886  55.9113921  89.1780686  60.4116260
  55.6844565  90.2463956  61.4599854  60.0091044  92.7477818  64.4211393
  60.2277054  93.6794926  64.4399427  60.4216818  92.3885793  65.2066197
  66.9295262  83.2545904  56.4087081  66.1195990  82.9092989  56.7842327
  67.6179679  82.9453448  56.9974693  68.8585810  82.3323951  58.0311378
  69.4116849  82.7519404  58.6901401  69.0955897  81.4059699  58.0734334
  64.8818910  88.3211024  73.8114142  64.7815637  89.2705381  73.7426233
  64.6640452  87.9929263  72.9390212  64.0831981  85.5695949  50.3954819
  64.9451145  85.8950848  50.6550636  64.2682325  84.7827445  49.8827885
  56.0999397  93.6518289  62.6735008  55.4062868  93.2372242  62.1604962
  56.8472388  93.6938825  62.0768427  72.2364618  84.4424476  57.5390042
  71.6563287  85.1009280  57.1568095  71.9700550  83.6201820  57.1277460
  70.6868184  83.8429533  59.7411362  71.1867962  83.9546068  58.9325681
  71.3303792  83.5390586  60.3812171  64.7450180  91.7508163  72.6279203
  64.2617261  92.5508523  72.8343092  64.8311119  91.7616108  71.6746647
  58.0136139  93.5836543  60.5501023  57.9906827  93.6824230  59.5982906
  58.3236776  94.4301694  60.8718189  60.6723517  95.6412698  64.6647637
  61.6266771  95.6096640  64.5977569  60.4736041  95.1803322  65.4797863
  61.2622899  94.2113814  67.2318435  62.0815788  94.7057892  67.2553272
  61.5359707  93.2945782  67.2036002  71.0189496  86.6024566  56.5946390
  70.1315351  86.8874217  56.3766585  71.4343485  86.4418330  55.7473667
  74.3704032  86.6271087  60.3100730  75.1464422  87.1167540  60.5825346
  73.6452166  87.0529141  60.7672599  76.8076590  87.3398706  61.3674670
  77.4021081  87.0994442  60.6567979  76.8803174  86.6205837  61.9948207
  59.0273746 101.1832317  61.6817835  58.8928214 100.4232718  61.1155833
  58.6105808 101.9073217  61.2146624  70.1632709  96.3669241  50.6894410
  70.8668559  96.5719243  51.3052066  69.4395358  96.9346003  50.9543494
  70.9930519  92.1179102  56.8096681  70.9365721  92.5747653  55.9704313
  71.5458862  91.3569787  56.6319523  74.8035325  87.9068834  57.6346800
  74.5472259  87.5065470  58.4655008  74.1788193  88.6212628  57.5096939
  79.1147663  90.6464907  60.1418091  78.5547221  90.7158096  60.9149654
  78.5091166  90.4705892  59.4217588  62.1842872 102.0801634  61.8936278
  62.0675256 103.0247067  61.7914968  61.3635318 101.7775196  62.2822077
  72.0719406  96.8051770  52.7392870  72.9065010  96.3732968  52.5570345
  71.9103749  96.6333784  53.6669765  71.7265299  93.3083883  54.1049210
  71.6714102  93.1428155  53.1637654  71.1011354  94.0159916  54.2611399
  56.5157814  88.5451948  67.9310632  57.1616677  88.0350902  68.4197857
  56.3074965  89.2820629  68.5054057  69.0411206  95.6132795  73.4302773
  69.9102365  95.7873447  73.0689407  68.5617957  96.4327212  73.3078502
  65.0361424  82.8091992  53.6834528  65.0240094  83.7533832  53.8402799
  65.9284846  82.6262138  53.3893989  63.2097386 102.7329896  65.1092206
  64.1124633 102.7653506  65.4258701  62.9834756 101.8030347  65.1238542
  64.9650988 101.4860883  61.7702285  64.0146619 101.4862744  61.6566657
  65.2683474 100.7393617  61.2538319  68.8513544  79.4034769  57.9380465
  68.0845939  78.8493256  58.0837147  69.2624248  79.4756638  58.7994617
  60.8555305  85.6919565  72.0285646  61.7186766  85.3356370  72.2388971
  60.2820715  85.3533460  72.7161050  80.7003682 107.3221421  62.8348047
  81.3382091 107.2028168  62.1311387  80.5824524 108.2702265  62.8935999
  77.5093388 107.2748849  62.7709572  77.1711899 107.1589914  61.8830107
  78.3783156 106.8740014  62.7510578  73.3680203 109.1284326  58.7606463
  72.8045069 109.0374263  57.9922751  73.2532599 108.3084230  59.2408955
  77.9913171 108.4283701  68.7295777  77.9801812 108.0336499  67.8576281
  78.1533810 107.6949774  69.3229549  70.9144635 110.6235517  61.5990683
  71.7065927 110.2826342  61.1836983  71.1541286 110.7330492  62.5192837
  78.9479762 112.7955293  54.0720928  78.2967742 113.3809374  53.6854942
  79.7424125 113.3261488  54.1315965  72.8735389 109.8844430  54.4708062
  73.6466265 109.3373418  54.3320938  73.2260788 110.7488680  54.6822523
  74.7120432 111.2120813  67.6774961  74.4210298 112.1166444  67.5621628
  75.3477416 111.2537340  68.3919031  75.6376639 108.5897661  64.2676321
  76.2340211 108.3653684  63.5533284  75.6951610 107.8482407  64.8701769
  75.2101667 106.0437097  52.1026512  75.4627188 105.5218618  51.3409975
  74.2726226 105.8803242  52.2053196  80.2544950 105.0472875  59.9101255
  81.0408039 104.6292298  59.5591672  80.5183654 105.9518967  60.0782904
  80.4255027 110.4845725  54.6089912  79.7900860 110.5580352  55.3210817
  80.0952434 111.0739324  53.9308991  85.6553377 104.9848108  60.8134234
  86.3878549 104.4147325  61.0472063  84.8992733 104.5969709  61.2540739
  74.9297956 107.9465203  54.3050887  74.8134214 107.2710106  54.9731971
  75.0400216 107.4597576  53.4883040  77.2729497 107.4075350  58.0097576
  76.9087704 106.8805971  58.7210498  78.1296613 107.0173819  57.8364062
  83.1778797  98.6969682  65.2728842  82.8462122  99.5665093  65.0490057
  82.5824411  98.3805966  65.9522873  76.9134984 102.4365249  53.0058925
  77.0809386 103.3045486  53.3729396  76.7232153 102.5992531  52.0820214
  79.6710317 110.8982228  64.6724755  79.3711040 111.8007267  64.5640562
  79.3261377 110.6314411  65.5245908  73.1222798 107.3496025  60.7061460
  72.1973295 107.2172239  60.9139151  73.3707212 108.1290244  61.2031402
  83.0707461 103.4164768  62.3522192  82.1624338 103.3480177  62.0580953
  83.0195057 103.8936713  63.1804018  76.8924205 104.8922907  53.9905592
  76.7723830 105.3379958  54.8291072  76.1976793 105.2408225  53.4319130
  70.4831610 106.9929299  61.5405249  70.6123991 107.2463778  62.4544660
  69.8029061 107.5857007  61.2209904  74.6531097 117.6626549  57.6395723
  74.5755127 118.6134374  57.7184203  74.0492740 117.3172421  58.2970649
  77.1448327 104.8354414  70.2957090  76.3681661 105.3948334  70.2859954
  77.7838890 105.3211197  70.8171960  84.9369107 101.6181207  64.1300066
  84.2943487 101.9113740  63.4839861  84.4324036 101.5034127  64.9353263
  82.5909271 105.3644380  54.8185926  83.5027127 105.5971767  54.6433623
  82.0818918 105.9481424  54.2561004  75.3994699 107.6439867  69.8575057
  76.1409383 108.1824911  69.5809880  74.6931684 108.2706156  70.0146608
  80.8750039 109.7869008  68.4547218  81.2833395 109.3451418  67.7101851
  80.1527300 109.2121635  68.7081411  77.2281109 104.7241615  65.8280775
  78.0742304 105.1481028  65.9715424  77.1679746 104.0675239  66.5219338
  81.1978853 110.3470198  62.2099507  80.5687716 110.5115913  61.5075575
  80.8104515 110.7611808  62.9810471  85.0768085 111.2824636  59.5643871
  84.3919123 111.6623538  59.0140904  85.1611934 111.8919963  60.2975819
  80.3780554 102.3845983  67.4861949  80.1341486 103.1388044  66.9496224
  80.6540484 102.7631331  68.3209196  82.3319017 108.9284595  66.1639214
  82.5435912 109.5716355  65.4873595  82.2848765 108.0946912  65.6961144
  79.9345246 101.5402416  63.0675786  79.0729725 101.8383670  63.3592524
  79.9607680 101.7572815  62.1356819  76.7506815 110.0844607  59.4749592
  77.2145161 110.3632310  58.6854215  76.4863613 109.1828051  59.2922683
  73.6430896 109.6316088  62.4129355  74.2132253 110.0603356  61.7746840
  74.2339008 109.3498673  63.1113541  75.6875701 106.2067759  56.2839157
  76.3899744 106.6588803  56.7513084  75.3556330 105.5651578  56.9119050
  74.1356063 104.7979516  70.6590367  73.5054723 105.4795796  70.8925763
  74.0292151 104.6862597  69.7143505  69.4301035 104.4651312  61.5856291
  68.6400089 104.7208840  61.1096401  69.9212282 105.2799649  61.6908331
  83.4464845 111.8056551  64.3361572  84.2682288 111.4036738  64.0544253
  83.4427247 111.7024785  65.2877687  71.3815780 104.8295891  58.5439768
  70.5846944 104.9414585  59.0623263  71.1541373 105.1682543  57.6780658
  77.2121448 111.3540594  66.4922282  77.2765881 111.8161001  67.3280454
  76.5032372 110.7237959  66.6204592  67.7138738 104.7181802  64.0171282
  67.9646776 105.6028812  64.2828858  68.2498286 104.5386404  63.2446373
  91.5370838 108.1495299  60.6846543  90.7834546 107.5802697  60.5290548
  91.6718379 108.1157964  61.6317178  76.9269466 113.0208702  56.3601262
  76.7915141 113.8660237  56.7886110  77.4679278 113.2227979  55.5967196
  73.4136805  99.1000281  73.0215618  73.0203751  98.5466480  73.6963262
  74.2302946  99.4110860  73.4122135  70.3798863 110.5384140  56.9329188
  70.8923384 111.3327390  57.0834752  71.0321576 109.8410430  56.8662789
  72.1893748 113.6549896  59.0151941  72.3660376 114.5767861  58.8272925
  72.9850581 113.3408315  59.4446321  76.3304766 100.5158161  70.6135874
  77.0714480 101.1165314  70.5340337  76.5622689  99.7735798  70.0553917
  71.4746104 105.7014528  68.8914104  71.3599619 104.7999785  69.1921203
  70.6190622 105.9478225  68.5398921  78.5537942 113.6432268  70.4901605
  78.1101796 112.8568647  70.1722509  79.2155156 113.8311419  69.8245495
  73.3125063 115.1728070  65.0162283  73.8632488 115.0445133  64.2439277
  72.4736539 115.4722959  64.6657176  80.6519180 113.9235068  68.5183006
  80.6337656 114.7443949  68.0263275  81.5739100 113.7989143  68.7433147
  77.1092234 111.4379197  69.3606514  77.6420571 110.6767486  69.1305822
  76.5806315 111.1452849  70.1030669  80.2761929  96.5439263  64.8900156
  79.9326199  97.4340905  64.8139267  80.6440892  96.3540921  64.0269741
  68.3447780 108.8672794  57.7088758  69.1823002 109.2769802  57.4922466
  68.5226048 107.9272236  57.6788952  80.2412212 106.5347875  53.3972591
  79.7258835 107.3052479  53.6360978  79.9689520 105.8613011  54.0205653
  77.8259323 101.3797575  58.4557829  76.9700919 100.9904426  58.2763468
  78.2386275 101.4589536  57.5957615  79.3558470  98.9143919  62.8549389
  78.8523265  98.8774054  62.0417195  79.6489077  99.8236661  62.9146046
  75.6001356  98.9982648  61.8615571  76.4654352  98.8025457  61.5021460
  75.6678864  98.7693000  62.7884928  85.2146486 109.2880229  55.3325765
  84.4375929 108.9491389  54.8880927  85.8937967 109.2932852  54.6580730
  80.0298515 104.4074967  55.2232372  79.7248651 104.7221116  56.0742515
  80.9828957 104.4856387  55.2659705  78.4744947 110.5665190  56.8725326
  77.9466309 109.8317950  56.5598564  77.9732450 111.3439866  56.6265295
  83.4537793 108.7614210  61.9892373  82.7961467 109.4513472  62.0772501
  84.2578192 109.1510642  62.3326359  73.2063675 101.2284856  59.2331938
  73.7807427 101.0060038  58.5005131  73.7934657 101.2973551  59.9860539
  82.2643252 107.1158583  60.0396314  82.7775134 107.7488575  60.5418024
  82.9144476 106.5159779  59.6739674  73.5333262 103.2589317  53.2527823
  72.6970574 103.5964004  53.5737098  73.3938031 103.1238297  52.3154960
  75.5086342  98.1026105  57.9607007  74.8550755  97.7875122  57.3363622
  75.4666816  97.4801846  58.6866830  76.6197547 108.3845400  49.8760299
  75.7124609 108.1534654  50.0751448  77.1168579 107.5883019  50.0634281
  79.5265626 117.0942907  52.7956985  78.8527325 117.3974604  53.4041943
  79.9131448 117.8971988  52.4462442  78.7424083 104.5908039  62.2854655
  77.8246644 104.8122986  62.1276343  79.1584226 104.6654349  61.4266362
  79.5259130 105.9899454  57.4157335  80.2730949 106.5020852  57.1064457
  79.7950720 105.6683507  58.2761729  77.7985781 108.4857995  54.3984289
  76.8897000 108.2017028  54.4956759  77.8280864 108.9057074  53.5387596
  83.0305048 112.0964585  58.1675457  82.5767375 111.2555494  58.2240647
  82.3999015 112.7325983  58.5050237  81.9737968 103.0256571  59.3976124
  81.2360724 102.5133957  59.7286367  82.2264741 102.5856952  58.5859401
  81.4737987 113.9341081  59.1025275  81.7660962 114.4946138  58.3837641
  81.9836608 114.2269642  59.8578434  82.0749595  95.8032823  59.9917894
  82.3808472  94.9430186  59.7043809  82.8002200  96.3950443  59.7916888
  68.3673951 106.2063509  58.3799492  68.1698351 105.6132870  57.6550558
  67.8120615 105.9015719  59.0975430  76.3470675 106.0986616  60.4994085
  76.4019284 105.1460452  60.4236561  75.5361877 106.2546055  60.9835383
  77.4961868 110.0266739  51.7372368  77.0581298 109.3102598  51.2778005
  78.2372309 110.2542854  51.1757459  74.2863035 104.7163675  58.2584464
  73.4730900 105.0157846  58.6649656  74.7822029 104.3219364  58.9758946
  76.4371612 114.7121432  60.1918728  76.3947791 114.9382279  59.2627260
  77.3534311 114.4784807  60.3404529  79.8837246 105.1805500  67.0899357
  80.2386634 105.4076973  67.9493823  80.5309378 105.5123877  66.4676613
  85.6134983 108.3023936  57.7948687  85.4752882 108.4925532  56.8669876
  85.2571202 109.0643319  58.2516738  73.7777109 102.2882031  63.8745699
  74.4176489 102.1470790  63.1768662  72.9454640 102.0016544  63.4984301
  85.6404363 110.3700463  62.8059958  86.0740870 110.2775752  63.6543012
  86.3535944 110.3457963  62.1679974  74.5537413 111.5884461  59.9880691
  75.3478012 111.0934782  59.7863266  73.8429106 111.0602325  59.6248397
  79.3732258 113.9702557  64.3393059  79.4269280 114.5393493  65.1070775
  78.5047039 114.1404442  63.9747096  70.8620177 105.7327543  56.0640444
  69.9317765 105.6711999  56.2810406  70.9577649 105.2103496  55.2677085
  70.7805726 102.2582356  58.6518685  71.0412543 103.1727689  58.5427846
  71.6022898 101.7906799  58.8015298  72.2530651 103.6720113  65.8217510
  72.9253705 103.4637475  65.1730159  71.4260438 103.4742199  65.3822742
  86.5019912 110.4124163  65.3392843  86.6955802 111.3169974  65.5852118
  86.4020531 109.9531583  66.1731428  78.1556223 100.2982054  67.8383171
  77.5084138 100.9972004  67.7447647  78.9257239 100.7318198  68.2059419
  81.5635021 110.5630906  70.9133724  81.4120527 110.3341458  69.9963808
  81.5539701 111.5201508  70.9265069  78.3320357 108.1362819  65.8979990
  79.2612417 108.2873979  65.7248958  77.9111388 108.2246840  65.0428637
  77.1308689 112.1613483  63.6678528  76.9919775 111.7932268  64.5404466
  76.3423286 112.6761123  63.4962486  77.7256841 117.2622580  55.0104065
  77.9008597 116.7910623  55.8249687  77.0389629 117.8888346  55.2385325
  78.6813904 111.5395086  61.0567366  78.3463737 111.4995856  61.9525016
  78.1817850 110.8739802  60.5837776  72.6558148 106.9462716  66.5819947
  72.5177946 106.2142955  67.1831486  73.5663072 106.8571616  66.3004135
  81.6173096 108.8851120  51.3304426  81.0002267 108.1597949  51.2337478
  81.1489585 109.6460481  50.9871500  75.2840449 106.6582675  66.0703627
  75.9940068 106.0175868  66.0290245  75.2409757 106.9095570  66.9929807
  83.2727228 113.5950029  68.9910206  83.2139774 112.9109249  68.3240789
  83.6746746 114.3369019  68.5390832  73.9969383 103.6447893  67.8899266
  73.4606740 103.1938632  68.5420862  73.4086091 103.7793802  67.1469731
  72.2917927 120.4111943  61.7843925  72.5314525 121.0430467  62.4622943
  71.4487123 120.0599983  62.0709284  73.4071642 103.1036545  50.4525730
  72.5301108 102.9825346  50.0887976  73.8829395 102.3122623  50.2004618
  83.2744635 111.5589613  67.2224186  82.3871414 111.2215534  67.3450584
  83.8443186 110.8272644  67.4592951  64.9273782 107.8913704  60.5467237
  65.6144822 107.5775434  59.9588252  64.7721911 108.7955069  60.2734488
  69.7308504 102.7803901  64.9752261  69.6466693 102.1729571  64.2402671
  68.9091211 103.2712919  64.9761757  76.8045788 116.2191065  64.1885429
  76.7315960 117.0246037  64.7004733  76.3623181 116.4183031  63.3633450
  76.5935568 115.4562835  57.6988250  75.8103090 115.9984515  57.7926475
  77.2928313 115.9736815  58.0982491  79.9032218 101.2657465  60.3422456
  80.4000918 100.5127427  60.0223526  79.1319200 101.3021781  59.7765665
  87.7561976 106.9697830  61.9840747  87.7451852 107.8522546  61.6134680
  86.8879355 106.6169381  61.7895284  79.2644472 116.1177899  66.3443587
  79.9772444 116.7525364  66.2719489  78.7734501 116.2141765  65.5283589
  80.9861999 110.0229152  57.9160879  80.0518278 110.1430614  57.7465583
  81.1638667 109.1201619  57.6520889  76.4867187 103.4074848  60.0694140
  76.1164974 102.8545888  60.7575046  76.9826279 102.8032981  59.5169140
  84.3734550 105.8646471  58.4510913  84.8395002 106.6974463  58.3771216
  84.8242051 105.3991453  59.1556172  74.3156385 113.8672343  67.1649158
  75.0165845 114.5008826  67.3178552  73.8451500 114.2087074  66.4044798
  82.4410781 112.2090292  55.4497065  82.7170625 112.0946887  56.3590939
  81.5715280 111.8107777  55.4109238  82.3451213  98.2327058  62.4901815
  81.4314293  98.4631285  62.6584022  82.7744314  98.3165502  63.3415847
  82.1157671 106.4216950  64.9901709  81.4629122 106.6692857  64.3354161
  82.4938051 105.6081088  64.6564186  79.0764845 116.4576643  59.0929879
  79.2587240 115.6398299  59.5557631  79.8997831 116.6744335  58.6554769
  79.4107011 115.3844828  56.3544927  79.9394777 114.8737283  55.7415089
  79.6735230 115.0687359  57.2190460  78.1645244 107.1636761  71.4767746
  77.4885881 107.0630890  72.1470121  78.9872878 107.0075975  71.9403743
  69.9124104 113.4008698  64.0980261  70.4977540 112.6552386  64.2308165
  69.7148942 113.7112654  64.9816925  72.7662759 116.4359945  59.1142703
  72.0973134 116.9206073  58.6306743  72.6275628 116.6829165  60.0286082
  64.5041758 105.9714298  62.8184704  64.5425858 105.4377888  63.6121822
  63.9982051 105.4449503  62.1995681  76.9068027 118.4703689  65.7125362
  77.4586335 118.6335310  66.4774447  77.2474221 119.0608126  65.0405387
  71.8832521 100.8178838  66.3147246  71.9473847 101.6793669  65.9024644
  71.8199641 100.2052840  65.5819605  71.3584793 102.8901971  69.9620281
  71.9856832 102.5079048  70.5757805  70.5012712 102.6716173  70.3275973
  81.7578902 113.2964946  71.5674016  82.3018806 113.9094904  71.0728971
  81.1765746 113.8544524  72.0841029  68.1350336 104.6978400  55.8938635
  68.4303777 103.7889078  55.8405689  67.2338372 104.6766139  55.5719638
  80.0436415 116.4185664  62.6989044  79.9187554 115.6175404  62.1899989
  80.7015506 116.9131857  62.2103014  71.6644583 102.7734397  61.8766184
  70.9431169 103.3870364  61.7373657  72.4537839 103.3092161  61.7982830
  82.1071323 114.2194684  64.3268594  81.1601659 114.1000035  64.2546921
  82.4554096 113.3317182  64.4094855  74.4670896 100.1088823  68.1506836
  74.9905298 100.3551120  68.9133145  74.2483230 100.9408858  67.7309973
  69.8638177 102.3792498  56.0177961  69.5350884 101.4989877  55.8353067
  70.2177548 102.3240166  56.9054350  79.1117756 114.0147400  60.5272946
  78.9642719 113.0864108  60.7080516  79.9371250 114.0367491  60.0430021
  72.9780001 102.6665467  56.3853438  73.3176073 103.1951389  55.6632047
  73.4252121 103.0045874  57.1612005  82.7151878 114.8375959  61.6137819
  83.6398426 114.6318820  61.4762270  82.5467181 114.5892360  62.5227160
  75.6723441 101.0502518  65.8356506  75.3320262 100.2510331  66.2377186
  74.9662448 101.3504229  65.2633340  76.3239913  98.1351831  64.2883829
  77.1465983  97.6612309  64.1662720  76.5677977  98.9142314  64.7882516
  74.9648148 101.1640089  54.5846731  75.6856510 101.5421342  54.0810448
  74.3413452 101.8828966  54.6881709  79.1079271 101.8685238  55.5205063
  79.3242885 102.7509876  55.2193892  78.6273338 101.4771451  54.7910705
  73.8478492 104.8270951  62.0975808  73.7023073 105.1411254  62.9900089
  73.3703696 105.4455852  61.5446707  75.7074875 101.8173499  62.1456698
  75.6936444 100.9214593  61.8088995  76.4247303 101.8244163  62.7794984
  77.5601006 102.2510839  64.1909825  77.3018783 103.1727910  64.1894155
  77.0286046 101.8541274  64.8810289  82.5047194 115.3561627  56.9699910
  82.6784072 114.7908049  56.2173763  82.9976086 116.1562521  56.7879400
  68.3224154 107.3676296  65.0363469  67.7777622 108.1436104  65.1683743
  69.2003504 107.7147100  64.8782591  75.1111771 100.6987879  57.4144268
  75.2327682  99.7704526  57.6135155  74.8213813 100.7126565  56.5022583
  77.9802961  98.3842790  60.5510988  78.0024658  98.4482123  59.5962967
  78.3971020  97.5447299  60.7451494  88.3586586 108.1198049  58.5890210
  88.8017732 107.3705375  58.1909333  87.4813096 108.1108186  58.2063942
  83.4922367 114.6728391  54.0696809  84.1873271 115.2935084  54.2884123
  83.8345517 113.8223742  54.3449187  69.1090176 106.4946192  67.9293626
  68.3671912 106.6428827  68.5158256  68.7882920 106.7554457  67.0660375
  85.3913790 112.1228096  55.5984139  85.9165114 112.4615369  54.8733459
  85.3036142 111.1875112  55.4147274  77.0533839 116.0362170  67.7274016
  77.3620965 115.7911317  68.5996716  77.8509321 116.2408809  67.2392886
  77.0754451 118.1900080  59.9579393  76.6359441 117.6976458  60.6512249
  77.8262568 117.6473047  59.7171468  69.5546790 114.3811621  59.9604021
  70.3804810 114.0815392  59.5802664  69.2040842 113.6119243  60.4093809
  74.5228323 113.7338089  62.0301694  73.9008332 113.0708794  61.7303922
  75.1933190 113.7599221  61.3475342  67.7555395 112.2997947  60.9192954
  66.9187303 111.8720121  60.7376956  67.7279040 112.4930390  61.8563745
  74.5952850 102.2119877  71.6234200  74.6441006 103.0882000  71.2411970
  75.1375365 101.6697270  71.0505844  85.0807696 112.7561000  70.9035337
  84.2903240 112.7385139  70.3639837  84.8441051 113.2949294  71.6584374
  85.2005571 109.6053466  68.2168066  85.2503576 109.4403474  69.1583589
  85.0919494 108.7380725  67.8265947  74.0841830 112.2842012  55.5060155
  74.2329950 112.9677477  54.8526828  74.8908273 112.2647102  56.0209611
  82.4909333 105.5884394  69.5327373  83.3919196 105.4490859  69.2411370
  82.5657308 105.7538849  70.4725550  76.8252139 102.9651249  68.3780559
  75.9555448 103.2584815  68.1063147  77.0611619 103.5491694  69.0987823
  86.7023768 112.0250408  68.4610087  86.4108576 112.3880389  69.2973548
  86.0895899 111.3117416  68.2823420  87.9019450 109.5903288  60.9812658
  88.7366342 110.0293092  61.1450218  88.0378579 109.1141941  60.1620903
  84.9510956 107.1483023  66.9290145  85.4265078 107.3410669  66.1208997
  84.0276522 107.2042208  66.6833529  71.8394463 108.3107190  56.5121224
  71.5940505 107.4069520  56.7101434  72.0090377 108.3124340  55.5700702
  79.5291173  99.1830866  65.8945979  80.0473116  99.9191893  65.5692468
  79.1746305  99.4894859  66.7292738  71.1090110 104.0435547  54.0107385
  70.4159355 104.1179902  53.3547421  70.8641862 103.2795891  54.5328902
  79.7803767  95.6031149  61.4146876  80.0605521  94.9354338  62.0407302
  80.5654374  95.7960244  60.9021540  77.5837235 114.7790143  52.9771902
  77.0111202 115.3980330  52.5242374  78.1570029 115.3289504  53.5111824
  83.6512625 104.0248783  65.1618451  84.6030048 104.1246880  65.1830675
  83.4816076 103.2327051  65.6716535  81.6727005 101.1104366  65.3477852
  81.0776937 101.3909379  64.6524341  81.3876701 101.5998267  66.1194593
  80.8034495 115.0627293  54.1080485  81.7365168 114.9972854  54.3113360
  80.7157708 115.8983560  53.6495017  83.4322512 114.3793163  51.0684432
  83.3536143 114.0453027  51.9620190  84.2532179 114.8714931  51.0675904
  86.1300703 107.2454902  64.2760751  86.0977023 106.3070903  64.4620435
  86.7401327 107.3238939  63.5426576  77.9684034 106.1150955  50.3187955
  78.9143138 105.9857163  50.3876373  77.5898279 105.3765617  50.7957383
  86.2795191 104.0365946  64.3219034  85.7634240 103.2524402  64.1348963
  87.1635140 103.7084662  64.4865553  83.9405918  97.7806961  60.2814847
  83.7430739  97.4722050  61.1658179  84.5505624  98.5068600  60.4112776
  91.9477253 108.3070909  63.4166787  92.6780641 108.0456197  63.9774491
  91.3384198 107.5699631  63.4568855  90.0292550 106.4478772  64.0141239
  89.3025713 106.3134737  63.4057730  89.6139837 106.7555600  64.8197957
  77.8522726 110.1668701  71.7788612  78.7725736 110.3447300  71.9728658
  77.8172309 109.2224747  71.6268311  76.1526951 104.0400932  50.2542840
  75.2458406 103.7434044  50.3305554  76.4302932 103.7430750  49.3877126
  67.0704891 105.3607295  60.7041886  66.7507676 104.5072603  60.4116260
  66.5238319 105.5755873  61.4599854  70.8484799 108.0769736  64.4211393
  71.0670809 109.0086844  64.4399427  71.2610573 107.7177711  65.2066197
  77.7689017  98.5837821  56.4087081  76.9589745  98.2384906  56.7842327
  78.4573434  98.2745365  56.9974693  79.6979565  97.6615868  58.0311378
  80.2510604  98.0811322  58.6901401  79.9349651  96.7351616  58.0734334
  75.7212664 103.6502942  73.8114142  75.6209391 104.5997299  73.7426233
  75.5034206 103.3221181  72.9390212  74.9225736 100.8987867  50.3954819
  75.7844900 101.2242765  50.6550636  75.1076080 100.1119363  49.8827885
  66.9393151 108.9810207  62.6735008  66.2456623 108.5664159  62.1604962
  67.6866142 109.0230743  62.0768427  83.0758372  99.7716393  57.5390042
  82.4957041 100.4301197  57.1568095  82.8094305  98.9493738  57.1277460
  81.5261938  99.1721451  59.7411362  82.0261717  99.2837986  58.9325681
  82.1697546  98.8682504  60.3812171  75.5843934 107.0800081  72.6279203
  75.1011016 107.8800441  72.8343092  75.6704873 107.0908026  71.6746647
  68.8529894 108.9128460  60.5501023  68.8300582 109.0116148  59.5982906
  69.1630530 109.7593611  60.8718189  71.5117272 110.9704615  64.6647637
  72.4660525 110.9388558  64.5977569  71.3129795 110.5095239  65.4797863
  72.1016654 109.5405731  67.2318435  72.9209543 110.0349810  67.2553272
  72.3753462 108.6237700  67.2036002  81.8583250 101.9316484  56.5946390
  80.9709105 102.2166134  56.3766585  82.2737239 101.7710247  55.7473667
  85.2097786 101.9563005  60.3100730  85.9858176 102.4459457  60.5825346
  84.4845920 102.3821059  60.7672599  87.6470345 102.6690624  61.3674670
  88.2414836 102.4286360  60.6567979  87.7196929 101.9497755  61.9948207
  69.8667501 116.5124235  61.6817835  69.7321968 115.7524636  61.1155833
  69.4499563 117.2365135  61.2146624  81.0026464 111.6961158  50.6894410
  81.7062314 111.9011161  51.3052066  80.2789112 112.2637920  50.9543494
  81.8324274 107.4471020  56.8096681  81.7759475 107.9039571  55.9704313
  82.3852616 106.6861704  56.6319523  85.6429080 103.2360752  57.6346800
  85.3866014 102.8357387  58.4655008  85.0181948 103.9504546  57.5096939
  89.9541418 105.9756825  60.1418091  89.3940976 106.0450014  60.9149654
  89.3484921 105.7997809  59.4217588  73.0236626 117.4093552  61.8936278
  72.9069011 118.3538984  61.7914968  72.2029073 117.1067114  62.2822077
  82.9113161 112.1343688  52.7392870  83.7458765 111.7024886  52.5570345
  82.7497504 111.9625701  53.6669765  82.5659053 108.6375801  54.1049210
  82.5107857 108.4720072  53.1637654  81.9405108 109.3451834  54.2611399
  67.3551568 103.8743865  67.9310632  68.0010432 103.3642819  68.4197857
  67.1468719 104.6112547  68.5054057  79.8804960 110.9424713  73.4302773
  80.7496120 111.1165365  73.0689407  79.4011712 111.7619130  73.3078502
  75.8755179  98.1383910  53.6834528  75.8633848  99.0825750  53.8402799
  76.7678600  97.9554055  53.3893989  74.0491141 118.0621814  65.1092206
  74.9518387 118.0945424  65.4258701  73.8228511 117.1322265  65.1238542
  75.8044743 116.8152800  61.7702285  74.8540374 116.8154662  61.6566657
  76.1077229 116.0685535  61.2538319  79.6907298  94.7326687  57.9380465
  78.9239694  94.1785173  58.0837147  80.1018003  94.8048555  58.7994617
  71.6949059 101.0211482  72.0285646  72.5580521 100.6648287  72.2388971
  71.1214470 100.6825377  72.7161050  91.5397436 122.6513339  62.8348047
  92.1775846 122.5320086  62.1311387  91.4218279 123.5994183  62.8935999
  88.3487142 122.6040767  62.7709572  88.0105654 122.4881832  61.8830107
  89.2176910 122.2031932  62.7510578  84.2073958 124.4576243  58.7606463
  83.6438823 124.3666180  57.9922751  84.0926353 123.6376148  59.2408955
  88.8306925 123.7575619  68.7295777  88.8195566 123.3628417  67.8576281
  88.9927565 123.0241691  69.3229549  81.7538390 125.9527435  61.5990683
  82.5459682 125.6118260  61.1836983  81.9935040 126.0622410  62.5192837
  83.7129144 125.2136348  54.4708062  84.4860020 124.6665335  54.3320938
  84.0654543 126.0780597  54.6822523  85.5514186 126.5412730  67.6774961
  85.2604052 127.4458361  67.5621628  86.1871171 126.5829258  68.3919031
  86.4770393 123.9189579  64.2676321  87.0733966 123.6945601  63.5533284
  86.5345365 123.1774324  64.8701769  86.0495422 121.3729014  52.1026512
  86.3020942 120.8510536  51.3409975  85.1119981 121.2095160  52.2053196
  91.0938704 120.3764793  59.9101255  91.8801794 119.9584216  59.5591672
  91.3577409 121.2810885  60.0782904  91.2648782 125.8137643  54.6089912
  90.6294615 125.8872269  55.3210817  90.9346188 126.4031242  53.9308991
  96.4947132 120.3140026  60.8134234  97.2272304 119.7439243  61.0472063
  95.7386487 119.9261626  61.2540739  85.7691710 123.2757120  54.3050887
  85.6527969 122.6002024  54.9731971  85.8793970 122.7889494  53.4883040
  88.1123251 122.7367267  58.0097576  87.7481459 122.2097888  58.7210498
  88.9690367 122.3465736  57.8364062  94.0172552 114.0261600  65.2728842
  93.6855877 114.8957011  65.0490057  93.4218165 113.7097884  65.9522873
  87.7528738 117.7657167  53.0058925  87.9203141 118.6337403  53.3729396
  87.5625907 117.9284449  52.0820214  90.5104072 126.2274146  64.6724755
  90.2104795 127.1299185  64.5640562  90.1655131 125.9606329  65.5245908
  83.9616553 122.6787943  60.7061460  83.0367049 122.5464157  60.9139151
  84.2100966 123.4582162  61.2031402  93.9101215 118.7456686  62.3522192
  93.0018093 118.6772095  62.0580953  93.8588811 119.2228631  63.1804018
  87.7317959 120.2214825  53.9905592  87.6117584 120.6671875  54.8291072
  87.0370548 120.5700142  53.4319130  81.3225364 122.3221216  61.5405249
  81.4517745 122.5755695  62.4544660  80.6422815 122.9148924  61.2209904
  87.9842081 120.1646332  70.2957090  87.2075415 120.7240252  70.2859954
  88.6232644 120.6503115  70.8171960  95.7762862 116.9473125  64.1300066
  95.1337242 117.2405658  63.4839861  95.2717790 116.8326045  64.9353263
  93.4303025 120.6936298  54.8185926  94.3420881 120.9263684  54.6433623
  92.9212672 121.2773342  54.2561004  86.2388453 122.9731785  69.8575057
  86.9803138 123.5116829  69.5809880  85.5325439 123.5998074  70.0146608
  91.7143793 125.1160926  68.4547218  92.1227149 124.6743336  67.7101851
  90.9921055 124.5413553  68.7081411  88.0674863 120.0533532  65.8280775
  88.9136058 120.4772946  65.9715424  88.0073501 119.3967157  66.5219338
  92.0372608 125.6762116  62.2099507  91.4081470 125.8407830  61.5075575
  91.6498270 126.0903726  62.9810471  91.2174308 117.7137901  67.4861949
  90.9735240 118.4679961  66.9496224  91.4934239 118.0923248  68.3209196
  93.1712771 124.2576513  66.1639214  93.3829666 124.9008273  65.4873595
  93.1242519 123.4238830  65.6961144  90.7739000 116.8694334  63.0675786
  89.9123479 117.1675587  63.3592524  90.8001435 117.0864733  62.1356819
  87.5900570 125.4136524  59.4749592  88.0538915 125.6924227  58.6854215
  87.3257368 124.5119969  59.2922683  84.4824651 124.9608006  62.4129355
  85.0526008 125.3895274  61.7746840  85.0732762 124.6790590  63.1113541
  86.5269456 121.5359677  56.2839157  87.2293499 121.9880720  56.7513084
  86.1950084 120.8943495  56.9119050  84.9749817 120.1271433  70.6590367
  84.3448478 120.8087714  70.8925763  84.8685905 120.0154515  69.7143505
  80.2694790 119.7943229  61.5856291  79.4793844 120.0500758  61.1096401
  80.7606037 120.6091567  61.6908331  82.2209535 120.1587809  58.5439768
  81.4240698 120.2706503  59.0623263  81.9935127 120.4974461  57.6780658
  88.0515203 126.6832512  66.4922282  88.1159635 127.1452919  67.3280454
  87.3426126 126.0529877  66.6204592  78.5532493 120.0473720  64.0171282
  78.8040531 120.9320730  64.2828858  79.0892041 119.8678321  63.2446373
  87.7663220 128.3500619  56.3601262  87.6308895 129.1952155  56.7886110
  88.3073033 128.5519897  55.5967196  84.2530560 114.4292199  73.0215618
  83.8597505 113.8758398  73.6963262  85.0696700 114.7402778  73.4122135
  81.2192618 125.8676057  56.9329188  81.7317138 126.6619308  57.0834752
  81.8715330 125.1702348  56.8662789  83.0287502 128.9841814  59.0151941
  83.2054131 129.9059778  58.8272925  83.8244336 128.6700233  59.4446321
  87.1698521 115.8450078  70.6135874  87.9108234 116.4457231  70.5340337
  87.4016444 115.1027716  70.0553917  82.3139859 121.0306445  68.8914104
  82.1993374 120.1291703  69.1921203  81.4584377 121.2770142  68.5398921
  84.1518818 130.5019987  65.0162283  84.7026243 130.3737051  64.2439277
  83.3130294 130.8014876  64.6657176  87.9485989 126.7671115  69.3606514
  88.4814326 126.0059403  69.1305822  87.4200070 126.4744767  70.1030669
  91.1155684 111.8731181  64.8900156  90.7719953 112.7632823  64.8139267
  91.4834646 111.6832839  64.0269741  79.1841534 124.1964712  57.7088758
  80.0216756 124.6061720  57.4922466  79.3619802 123.2564154  57.6788952
  91.0805967 121.8639792  53.3972591  90.5652590 122.6344397  53.6360978
  90.8083275 121.1904928  54.0205653  88.6653078 116.7089493  58.4557829
  87.8094674 116.3196343  58.2763468  89.0780029 116.7881454  57.5957615
  90.1952224 114.2435836  62.8549389  89.6917020 114.2065971  62.0417195
  90.4882831 115.1528579  62.9146046  86.4395110 114.3274566  61.8615571
  87.3048107 114.1317375  61.5021460  86.5072619 114.0984918  62.7884928
  90.8692270 119.7366884  55.2232372  90.5642405 120.0513034  56.0742515
  91.8222712 119.8148304  55.2659705  89.3138702 125.8957108  56.8725326
  88.7860063 125.1609867  56.5598564  88.8126204 126.6731784  56.6265295
  84.0457429 116.5576774  59.2331938  84.6201181 116.3351955  58.5005131
  84.6328412 116.6265468  59.9860539  93.1037006 122.4450501  60.0396314
  93.6168888 123.0780493  60.5418024  93.7538230 121.8451696  59.6739674
  84.3727016 118.5881235  53.2527823  83.5364329 118.9255921  53.5737098
  84.2331786 118.4530215  52.3154960  86.3480097 113.4318023  57.9607007
  85.6944509 113.1167040  57.3363622  86.3060571 112.8093763  58.6866830
  87.4591302 123.7137318  49.8760299  86.5518363 123.4826571  50.0751448
  87.9562334 122.9174937  50.0634281  89.5817837 119.9199956  62.2854655
  88.6640399 120.1414903  62.1276343  89.9977981 119.9946267  61.4266362
  90.3652885 121.3191372  57.4157335  91.1124704 121.8312769  57.1064457
  90.6344475 120.9975425  58.2761729  88.6379535 123.8149913  54.3984289
  87.7290754 123.5308946  54.4956759  88.6674619 124.2348991  53.5387596
  92.8131722 118.3548488  59.3976124  92.0754479 117.8425875  59.7286367
  93.0658496 117.9148870  58.5859401  92.9143349 111.1324740  59.9917894
  93.2202226 110.2722104  59.7043809  93.6395954 111.7242361  59.7916888
  79.2067706 121.5355427  58.3799492  79.0092105 120.9424788  57.6550558
  78.6514370 121.2307637  59.0975430  87.1864429 121.4278533  60.4994085
  87.2413039 120.4752370  60.4236561  86.3755631 121.5837972  60.9835383
  88.3355623 125.3558656  51.7372368  87.8975053 124.6394515  51.2778005
  89.0766064 125.5834771  51.1757459  85.1256789 120.0455593  58.2584464
  84.3124655 120.3449764  58.6649656  85.6215783 119.6511282  58.9758946
  90.7231001 120.5097418  67.0899357  91.0780389 120.7368891  67.9493823
  91.3703132 120.8415794  66.4676613  84.6170864 117.6173949  63.8745699
  85.2570243 117.4762708  63.1768662  83.7848394 117.3308462  63.4984301
  85.3931168 126.9176379  59.9880691  86.1871766 126.4226699  59.7863266
  84.6822860 126.3894242  59.6248397  81.7013931 121.0619461  56.0640444
  80.7711519 121.0003916  56.2810406  81.7971403 120.5395414  55.2677085
  81.6199480 117.5874274  58.6518685  81.8806298 118.5019607  58.5427846
  82.4416653 117.1198716  58.8015298  83.0924406 119.0012031  65.8217510
  83.7647459 118.7929393  65.1730159  82.2654192 118.8034117  65.3822742
  88.9949978 115.6273972  67.8383171  88.3477893 116.3263921  67.7447647
  89.7650993 116.0610116  68.2059419  89.1714112 123.4654737  65.8979990
  90.1006172 123.6165896  65.7248958  88.7505142 123.5538757  65.0428637
  87.9702444 127.4905401  63.6678528  87.8313529 127.1224185  64.5404466
  87.1817040 128.0053040  63.4962486  89.5207659 126.8687004  61.0567366
  89.1857492 126.8287774  61.9525016  89.0211605 126.2031720  60.5837776
  83.4951903 122.2754634  66.5819947  83.3571701 121.5434873  67.1831486
  84.4056826 122.1863534  66.3004135  92.4566851 124.2143038  51.3304426
  91.8396021 123.4889866  51.2337478  91.9883339 124.9752398  50.9871500
  86.1234204 121.9874593  66.0703627  86.8333822 121.3467785  66.0290245
  86.0803512 122.2387488  66.9929807  84.8363138 118.9739811  67.8899266
  84.3000495 118.5230549  68.5420862  84.2479846 119.1085720  67.1469731
  84.2465396 118.4328462  50.4525730  83.3694863 118.3117263  50.0887976
  84.7223150 117.6414541  50.2004618  75.7667537 123.2205622  60.5467237
  76.4538576 122.9067352  59.9588252  75.6115665 124.1246987  60.2734488
  80.5702259 118.1095819  64.9752261  80.4860447 117.5021488  64.2402671
  79.7484965 118.6004837  64.9761757  90.7425973 116.5949382  60.3422456
  91.2394672 115.8419345  60.0223526  89.9712954 116.6313699  59.7765665
  91.8255753 125.3521069  57.9160879  90.8912032 125.4722532  57.7465583
  92.0032422 124.4493536  57.6520889  87.3260941 118.7366765  60.0694140
  86.9558729 118.1837806  60.7575046  87.8220034 118.1324899  59.5169140
  95.2128305 121.1938389  58.4510913  95.6788757 122.0266380  58.3771216
  95.6635805 120.7283370  59.1556172  85.1550140 129.1964260  67.1649158
  85.8559599 129.8300743  67.3178552  84.6845255 129.5378992  66.4044798
  93.1844967 113.5618976  62.4901815  92.2708047 113.7923203  62.6584022
  93.6138069 113.6457420  63.3415847  92.9551426 121.7508868  64.9901709
  92.3022876 121.9984775  64.3354161  93.3331806 120.9373006  64.6564186
  89.0038999 122.4928679  71.4767746  88.3279636 122.3922808  72.1470121
  89.8266633 122.3367892  71.9403743  80.7517858 128.7300615  64.0980261
  81.3371295 127.9844303  64.2308165  80.5542696 129.0404572  64.9816925
  83.6056513 131.7651863  59.1142703  82.9366888 132.2497990  58.6306743
  83.4669383 132.0121083  60.0286082  75.3435513 121.3006215  62.8184704
  75.3819612 120.7669806  63.6121822  74.8375806 120.7741421  62.1995681
  82.7226275 116.1470756  66.3147246  82.7867602 117.0085587  65.9024644
  82.6593395 115.5344758  65.5819605  82.1978548 118.2193889  69.9620281
  82.8250586 117.8370966  70.5757805  81.3406466 118.0008090  70.3275973
  78.9744090 120.0270318  55.8938635  79.2697531 119.1180996  55.8405689
  78.0732126 120.0058057  55.5719638  82.5038337 118.1026314  61.8766184
  81.7824923 118.7162282  61.7373657  83.2931593 118.6384079  61.7982830
  85.3064651 115.4380741  68.1506836  85.8299053 115.6843037  68.9133145
  85.0876984 116.2700776  67.7309973  80.7031932 117.7084415  56.0177961
  80.3744638 116.8281794  55.8353067  81.0571303 117.6532084  56.9054350
  83.8173755 117.9957385  56.3853438  84.1569828 118.5243306  55.6632047
  84.2645876 118.3337791  57.1612005  86.5117196 116.3794436  65.8356506
  86.1714016 115.5802249  66.2377186  85.8056202 116.6796147  65.2633340
  87.1633668 113.4643748  64.2883829  87.9859737 112.9904226  64.1662720
  87.4071731 114.2434232  64.7882516  85.8041902 116.4932007  54.5846731
  86.5250265 116.8713259  54.0810448  85.1807206 117.2120883  54.6881709
  89.9473025 117.1977156  55.5205063  90.1636639 118.0801794  55.2193892
  89.4667092 116.8063369  54.7910705  84.6872246 120.1562869  62.0975808
  84.5416827 120.4703172  62.9900089  84.2097450 120.7747769  61.5446707
  86.5468629 117.1465417  62.1456698  86.5330198 116.2506510  61.8088995
  87.2641057 117.1536081  62.7794984  88.3994760 117.5802757  64.1909825
  88.1412538 118.5019828  64.1894155  87.8679800 117.1833192  64.8810289
  79.1617909 122.6968213  65.0363469  78.6171377 123.4728021  65.1683743
  80.0397258 123.0439018  64.8782591  85.9505525 116.0279797  57.4144268
  86.0721436 115.0996443  57.6135155  85.6607568 116.0418483  56.5022583
  88.8196716 113.7134708  60.5510988  88.8418412 113.7774041  59.5962967
  89.2364775 112.8739216  60.7451494  79.9483930 121.8238110  67.9293626
  79.2065667 121.9720745  68.5158256  79.6276675 122.0846375  67.0660375
  80.3940544 129.7103538  59.9604021  81.2198564 129.4107310  59.5802664
  80.0434596 128.9411161  60.4093809  85.3622077 129.0630006  62.0301694
  84.7402087 128.4000712  61.7303922  86.0326944 129.0891138  61.3475342
  78.5949149 127.6289865  60.9192954  77.7581058 127.2012039  60.7376956
  78.5672795 127.8222308  61.8563745  85.4346605 117.5411795  71.6234200
  85.4834760 118.4173917  71.2411970  85.9769119 116.9989188  71.0505844
  84.9235584 127.6133930  55.5060155  85.0723705 128.2969394  54.8526828
  85.7302028 127.5939020  56.0209611  93.3303088 120.9176312  69.5327373
  94.2312951 120.7782777  69.2411370  93.4051062 121.0830767  70.4725550
  87.6645893 118.2943167  68.3780559  86.7949203 118.5876733  68.1063147
  87.9005374 118.8783612  69.0987823  95.7904711 122.4774940  66.9290145
  96.2658832 122.6702587  66.1208997  94.8670276 122.5334126  66.6833529
  82.6788217 123.6399107  56.5121224  82.4334259 122.7361437  56.7101434
  82.8484132 123.6416258  55.5700702  90.3684927 114.5122784  65.8945979
  90.8866871 115.2483811  65.5692468  90.0140060 114.8186777  66.7292738
  81.9483865 119.3727465  54.0107385  81.2553110 119.4471820  53.3547421
  81.7035617 118.6087809  54.5328902  90.6197521 110.9323066  61.4146876
  90.8999275 110.2646255  62.0407302  91.4048128 111.1252162  60.9021540
  94.4906380 119.3540700  65.1618451  95.4423803 119.4538798  65.1830675
  94.3209830 118.5618969  65.6716535  92.5120759 116.4396284  65.3477852
  91.9170691 116.7201296  64.6524341  92.2270456 116.9290185  66.1194593
  88.8077788 121.4442873  50.3187955  89.7536893 121.3149081  50.3876373
  88.4292033 120.7057535  50.7957383  97.1188946 119.3657863  64.3219034
  96.6027995 118.5816320  64.1348963  98.0028894 119.0376580  64.4865553
  94.7799673 113.1098879  60.2814847  94.5824494 112.8013967  61.1658179
  95.3899378 113.8360518  60.4112776  88.6916481 125.4960619  71.7788612
  89.6119490 125.6739218  71.9728658  88.6566064 124.5516665  71.6268311
  86.9920705 119.3692849  50.2542840  86.0852161 119.0725962  50.3305554
  87.2696686 119.0722668  49.3877126  77.9098646 120.6899213  60.7041886
  77.5901430 119.8364521  60.4116260  77.3632074 120.9047791  61.4599854
  81.6878553 123.4061654  64.4211393  81.9064563 124.3378762  64.4399427
  82.1004327 123.0469628  65.2066197  88.6082771 113.9129739  56.4087081
  87.7983499 113.5676824  56.7842327  89.2967188 113.6037283  56.9974693
  90.5373319 112.9907786  58.0311378  91.0904358 113.4103239  58.6901401
  90.7743406 112.0643534  58.0734334  86.5606419 118.9794860  73.8114142
  86.4603146 119.9289217  73.7426233  86.3427961 118.6513098  72.9390212
  85.7619490 116.2279785  50.3954819  86.6238654 116.5534683  50.6550636
  85.9469834 115.4411281  49.8827885  77.7786906 124.3102124  62.6735008
  77.0850377 123.8956077  62.1604962  78.5259897 124.3522661  62.0768427
  93.9152127 115.1008311  57.5390042  93.3350796 115.7593115  57.1568095
  93.6488059 114.2785656  57.1277460  92.3655693 114.5013369  59.7411362
  92.8655471 114.6129903  58.9325681  93.0091301 114.1974422  60.3812171
  86.4237689 122.4091998  72.6279203  85.9404770 123.2092359  72.8343092
  86.5098628 122.4199943  71.6746647  79.6923648 124.2420378  60.5501023
  79.6694336 124.3408065  59.5982906  80.0024285 125.0885529  60.8718189
  82.3511026 126.2996533  64.6647637  83.3054280 126.2680475  64.5977569
  82.1523550 125.8387157  65.4797863  82.9410408 124.8697649  67.2318435
  83.7603297 125.3641728  67.2553272  83.2147216 123.9529617  67.2036002
  92.6977005 117.2608401  56.5946390  91.8102860 117.5458052  56.3766585
  93.1130994 117.1002165  55.7473667  96.0491541 117.2854922  60.3100730
  96.8251931 117.7751375  60.5825346  95.3239675 117.7112977  60.7672599
  98.4864099 117.9982542  61.3674670  99.0808590 117.7578278  60.6567979
  98.5590683 117.2789672  61.9948207  80.7061255 131.8416153  61.6817835
  80.5715723 131.0816554  61.1155833  80.2893317 132.5657052  61.2146624
  92.6718028 122.7762937  56.8096681  92.6153230 123.2331489  55.9704313
  93.2246371 122.0153622  56.6319523  96.4822834 118.5652669  57.6346800
  96.2259768 118.1649305  58.4655008  95.8575702 119.2796463  57.5096939
  93.4052808 123.9667719  54.1049210  93.3501611 123.8011990  53.1637654
  92.7798863 124.6743752  54.2611399  78.1945323 119.2035783  67.9310632
  78.8404186 118.6934737  68.4197857  77.9862474 119.9404465  68.5054057
  86.7148933 113.4675828  53.6834528  86.7027603 114.4117668  53.8402799
  87.6072355 113.2845973  53.3893989  90.5301053 110.0618604  57.9380465
  89.7633448 109.5077091  58.0837147  90.9411757 110.1340473  58.7994617
  82.5342814 116.3503400  72.0285646  83.3974275 115.9940205  72.2388971
  81.9608224 116.0117295  72.7161050  26.5034910   7.6823955  49.5593354
  27.1413320   7.5630703  48.8556694  26.3855753   8.6304799  49.6181306
  23.3124617   7.6351383  49.4954879  22.9743128   7.5192448  48.6075413
  24.1814385   7.2342549  49.4755885  19.1711432   9.4886860  45.4851769
  18.6076297   9.3976797  44.7168057  19.0563827   8.6686764  45.9654262
  23.7944400   8.7886235  55.4541084  23.7833040   8.3939033  54.5821588
  23.9565039   8.0552308  56.0474856  16.7175864  10.9838051  48.3235990
  17.5097156  10.6428876  47.9082289  16.9572514  11.0933026  49.2438143
  24.7510991  13.1557828  40.7966234  24.0998971  13.7411908  40.4100248
  25.5455354  13.6864022  40.8561272  18.6766618  10.2446965  41.1953369
  19.4497494   9.6975952  41.0566245  19.0292017  11.1091214  41.4067830
  20.5151661  11.5723347  54.4020268  20.2241527  12.4768978  54.2866934
  21.1508645  11.6139875  55.1164338  21.4407868   8.9500195  50.9921628
  22.0371440   8.7256218  50.2778591  21.4982839   8.2084941  51.5947076
  21.0132896   6.4039631  38.8271819  21.2658417   5.8821152  38.0655282
  20.0757455   6.2405776  38.9298502  26.0576179   5.4075409  46.6346562
  26.8439268   4.9894832  46.2836979  26.3214883   6.3121501  46.8028210
  26.2286256  10.8448259  41.3335219  25.5932089  10.9182886  42.0456123
  25.8983663  11.4341858  40.6554298  31.4584606   5.3450642  47.5379540
  32.1909778   4.7749859  47.7717370  30.7023962   4.9572243  47.9786046
  20.7329185   8.3067737  41.0296194  20.6165443   7.6312640  41.6977278
  20.8431445   7.8200111  40.2128347  23.0760726   7.7677884  44.7342883
  22.7118933   7.2408505  45.4455804  23.9327842   7.3776353  44.5609368
  28.9810026  -0.9427784  51.9974149  28.6493351  -0.0732373  51.7735364
  28.3855640  -1.2591500  52.6768179  22.7166213   2.7967784  39.7304231
  22.8840615   3.6648020  40.0974702  22.5263382   2.9595065  38.8065521
  25.4741546  11.2584762  51.3970062  25.1742269  12.1609801  51.2885869
  25.1292605  10.9916946  52.2491215  18.9254027   7.7098559  47.4306766
  18.0004524   7.5774773  47.6384458  19.1738441   8.4892779  47.9276709
  28.8738690   3.7767303  49.0767499  27.9655567   3.7082711  48.7826260
  28.8226285   4.2539248  49.9049325  22.6955434   5.2525441  40.7150898
  22.5755059   5.6982492  41.5536378  22.0008022   5.6010759  40.1564436
  16.2862838   7.3531833  48.2650555  16.4155220   7.6066312  49.1789967
  15.6060290   7.9459541  47.9455210  20.4562326  18.0229083  44.3641029
  20.3786355  18.9736908  44.4429510  19.8523969  17.6774955  45.0215956
  22.9479555   5.1956948  57.0202396  22.1712889   5.7550868  57.0105261
  23.5870118   5.6813731  57.5417266  30.7400336   1.9783741  50.8545373
  30.0974716   2.2716274  50.2085168  30.2355265   1.8636661  51.6598570
  28.3940500   5.7246914  41.5431232  29.3058356   5.9574301  41.3678930
  27.8850147   6.3083958  40.9806311  21.2025928   8.0042402  56.5820363
  21.9440612   8.5427446  56.3055187  20.4962913   8.6308690  56.7391915
  26.6781267  10.1471542  55.1792525  27.0864623   9.7053953  54.4347157
  25.9558529   9.5724170  55.4326718  23.0312337   5.0844149  52.5526082
  23.8773533   5.5083562  52.6960731  22.9710975   4.4277773  53.2464645
  27.0010082  10.7072733  48.9344814  26.3718944  10.8718447  48.2320882
  26.6135744  11.1214342  49.7055778  30.8799314  11.6427171  46.2889177
  30.1950352  12.0226072  45.7386211  30.9643163  12.2522497  47.0221125
  26.1811783   2.7448517  54.2107255  25.9372715   3.4990578  53.6741531
  26.4571713   3.1233865  55.0454502  28.1350245   9.2887130  52.8884521
  28.3467141   9.9318889  52.2118902  28.0879994   8.4549446  52.4206451
  25.7376474   1.9004950  49.7921093  24.8760953   2.1986204  50.0837831
  25.7638909   2.1175349  48.8602126  22.5538044  10.4447141  46.1994899
  23.0176389  10.7234844  45.4099521  22.2894842   9.5430585  46.0167989
  19.4462125   9.9918622  49.1374662  20.0163482  10.4205891  48.4992147
  20.0370237   9.7101207  49.8358848  21.4906930   6.5670293  43.0084464
  22.1930973   7.0191337  43.4758390  21.1587558   5.9254112  43.6364357
  19.9387291   5.1582050  57.3835673  19.3085952   5.8398331  57.6171070
  19.8323379   5.0465131  56.4388812  29.2496073  12.1659085  51.0606878
  30.0713517  11.7639272  50.7789560  29.2458476  12.0627319  52.0122994
  23.0152677  11.7143128  53.2167589  23.0797109  12.1763536  54.0525761
  22.3063601  11.0840493  53.3449899  37.3402066   8.5097833  47.4091850
  36.5865775   7.9405232  47.2535854  37.4749608   8.4760498  48.3562484
  22.7300695  13.3811236  43.0846569  22.5946369  14.2262772  43.5131417
  23.2710507  13.5830513  42.3212503  16.1830092  10.8986674  43.6574494
  16.6954612  11.6929924  43.8080059  16.8352805  10.2012964  43.5908096
  17.9924977  14.0152430  45.7397247  18.1691605  14.9370395  45.5518231
  18.7881810  13.7010849  46.1691627  24.3569171  14.0034802  57.2146911
  23.9133025  13.2171181  56.8967816  25.0186384  14.1913953  56.5490802
  19.1156292  15.5330604  51.7407590  19.6663717  15.4047667  50.9684584
  18.2767768  15.8325493  51.3902483  26.4550409  14.2837602  55.2428313
  26.4368884  15.1046483  54.7508582  27.3770329  14.1591677  55.4678454
  22.9123463  11.7981732  56.0851821  23.4451800  11.0370020  55.8551129
  22.3837544  11.5055384  56.8275975  26.0443441   6.8950409  40.1217898
  25.5290064   7.6655013  40.3606285  25.7720749   6.2215545  40.7450959
  31.0177715   9.6482763  42.0571071  30.2407158   9.3093923  41.6126233
  31.6969196   9.6535387  41.3826036  25.8329744   4.7677501  41.9477679
  25.5279880   5.0823650  42.7987822  26.7860186   4.8458921  41.9905012
  24.2776176  10.9267724  43.5970633  23.7497537  10.1920484  43.2843870
  23.7763679  11.7042401  43.3510601  29.2569022   9.1216745  48.7137679
  28.5992696   9.8116006  48.8017808  30.0609421   9.5113177  49.0571666
  28.0674481   7.4761117  46.7641621  28.5806362   8.1091109  47.2663331
  28.7175705   6.8762313  46.3984981  22.4228776   8.7447934  36.6005606
  21.5155838   8.5137188  36.7996755  22.9199808   7.9485554  36.7879587
  25.3296855  17.4545442  39.5202292  24.6558554  17.7577138  40.1287250
  25.7162677  18.2574522  39.1707749  24.5455312   4.9510573  49.0099961
  23.6277873   5.1725520  48.8521650  24.9615455   5.0256883  48.1511669
  25.3290359   6.3501989  44.1402642  26.0762178   6.8623386  43.8309764
  25.5981949   6.0286041  45.0007035  23.6017009   8.8460529  41.1229596
  22.6928229   8.5619562  41.2202066  23.6312093   9.2659608  40.2632903
  28.8336277  12.4567119  44.8920764  28.3798604  11.6158029  44.9485954
  28.2030244  13.0928517  45.2295544  27.7769196   3.3859105  46.1221431
  27.0391953   2.8736491  46.4531674  28.0295970   2.9459486  45.3104708
  27.2769216  14.2943616  45.8270582  27.5692190  14.8548673  45.1082947
  27.7867837  14.5872177  46.5823741  22.1501904   6.4589150  47.2239391
  22.2050513   5.5062986  47.1481868  21.3393106   6.6148589  47.7080690
  23.2993097  10.3869273  38.4617675  22.8612527   9.6705132  38.0023312
  24.0403538  10.6145388  37.9002766  20.0894263   5.0766210  44.9829770
  19.2762129   5.3760380  45.3894962  20.5853258   4.6821898  45.7004252
  22.2402841  15.0723967  46.9164035  22.1979020  15.2984813  45.9872567
  23.1565540  14.8387341  47.0649836  25.6868475   5.5408034  53.8144664
  26.0417863   5.7679507  54.6739130  26.3340606   5.8726411  53.1921919
  31.4166212   8.6626470  44.5193993  31.2784111   8.8528066  43.5915182
  31.0602431   9.4245853  44.9762044  31.4435592  10.7302997  49.5305265
  31.8772098  10.6378286  50.3788319  32.1567172  10.7060497  48.8925281
  20.3568642  11.9486996  46.7125998  21.1509241  11.4537316  46.5108573
  19.6460334  11.4204859  46.3493703  25.1763487  14.3305091  51.0638365
  25.2300509  14.8996027  51.8316081  24.3078268  14.5006976  50.6992402
  32.3051141  10.7726698  52.0638150  32.4987031  11.6772508  52.3097425
  32.2051759  10.3134117  52.8976735  27.3666250  10.9233440  57.6379031
  27.2151756  10.6943992  56.7209114  27.3570929  11.8804042  57.6510376
  24.1351586   8.4965353  52.6225297  25.0643646   8.6476513  52.4494264
  23.7142616   8.5849374  51.7673944  22.9339918  12.5216018  50.3923835
  22.7951004  12.1534802  51.2649773  22.1454514  13.0363657  50.2207793
  23.5288070  17.6225114  41.7349371  23.7039826  17.1513157  42.5494994
  22.8420858  18.2490880  41.9630632  24.4845133  11.8997620  47.7812673
  24.1494966  11.8598390  48.6770322  23.9849079  11.2342336  47.3083083
  18.4589377   7.3065250  53.3065254  18.3209175   6.5745489  53.9076793
  19.3694301   7.2174150  53.0249441  27.4204325   9.2453655  38.0549732
  26.8033496   8.5200483  37.9582785  26.9520813  10.0063015  37.7116806
  21.0871678   7.0185210  52.7948933  21.7971296   6.3778402  52.7535552
  21.0440986   7.2698104  53.7175114  29.0758457  13.9552563  55.7155513
  29.0171003  13.2711783  55.0486096  29.4777975  14.6971553  55.2636139
  18.0949155  20.7714477  48.5089231  18.3345754  21.4033001  49.1868250
  17.2518352  20.4202517  48.7954591  29.0775864  11.9192147  53.9469492
  28.1902643  11.5818069  54.0695891  29.6474415  11.1875178  54.1838258
  22.6077017  16.5793599  50.9130735  22.5347189  17.3848571  51.4250040
  22.1654410  16.7785565  50.0878757  22.3966797  15.8165369  44.4233557
  21.6134319  16.3587049  44.5171781  23.0959542  16.3339349  44.8227798
  25.7063447   1.6259999  47.0667762  26.2032146   0.8729961  46.7468833
  24.9350428   1.6624315  46.5010972  33.5593204   7.3300364  48.7086054
  33.5483081   8.2125080  48.3379987  32.6910584   6.9771915  48.5140591
  25.0675701  16.4780433  53.0688894  25.7803673  17.1127898  52.9964796
  24.5765729  16.5744299  52.2528896  26.7893228  10.3831686  44.6406186
  25.8549506  10.5033148  44.4710890  26.9669896   9.4804153  44.3766196
  22.2898416   3.7677382  46.7939447  21.9196203   3.2148422  47.4820353
  22.7857508   3.1635515  46.2414447  30.1765779   6.2249005  45.1756220
  30.6426231   7.0576997  45.1016523  30.6273279   5.7593987  45.8801478
  20.1187614  14.2274877  53.8894465  20.8197074  14.8611360  54.0423859
  19.6482729  14.5689608  53.1290104  28.2442010  12.5692827  42.1742372
  28.5201854  12.4549421  43.0836246  27.3746509  12.1710311  42.1354545
  27.9188900   6.7819484  51.7147015  27.2660350   7.0295392  51.0599468
  28.2969280   5.9683622  51.3809493  24.8796074  16.8179177  45.8175186
  25.0618469  16.0000833  46.2802938  25.7029060  17.0346870  45.3800076
  25.2138240  15.7447363  43.0790234  25.7426006  15.2339817  42.4660396
  25.4766459  15.4289893  43.9435767  23.9676473   7.5239295  58.2013052
  23.2917110   7.4233425  58.8715428  24.7904107   7.3678509  58.6649050
  15.7155332  13.7611232  50.8225568  16.3008769  13.0154920  50.9553472
  15.5180171  14.0715189  51.7062231  18.5693988  16.7962479  45.8388010
  17.9004363  17.2808607  45.3552050  18.4306857  17.0431700  46.7531388
  22.7099256  18.8306223  52.4370668  23.2617564  18.9937844  53.2019754
  23.0505450  19.4210661  51.7650693  27.5610130  13.6567480  58.2919323
  28.1050034  14.2697439  57.7974278  26.9796975  14.2147059  58.8086336
  25.8467643  16.7788198  49.4234351  25.7218783  15.9777938  48.9145296
  26.5046735  17.2734392  48.9348320  27.9102552  14.5797218  51.0513901
  26.9632887  14.4602570  50.9792227  28.2585325  13.6919716  51.1340162
  24.9148985  14.3749935  47.2518253  24.7673948  13.4466642  47.4325823
  25.7402479  14.3970025  46.7675328  28.5183107  15.1978493  48.3383126
  29.4429654  14.9921355  48.2007577  28.3498410  14.9494894  49.2472467
  24.9110499   2.2287772  42.2450370  25.1274114   3.1112410  41.9439198
  24.4304567   1.8373986  41.5156012  19.6509721   5.1873485  48.8221115
  19.5054301   5.5013788  49.7145396  19.1734924   5.8058386  48.2692013
  28.3078423  15.7164161  43.6945217  28.4815301  15.1510583  42.9419069
  28.8007314  16.5165056  43.5124707  34.1617814   8.4800584  45.3135517
  34.6048960   7.7307909  44.9154640  33.2844325   8.4710720  44.9309249
  29.2953596  15.0330925  40.7942115  29.9904500  15.6537618  41.0129430
  29.6376746  14.1826276  41.0694493  31.1945019  12.4830631  42.3229446
  31.7196343  12.8217903  41.5978766  31.1067371  11.5477646  42.1392581
  22.8565067  16.3964704  54.4519323  23.1652194  16.1513851  55.3242022
  23.6540549  16.6011343  53.9638193  22.8785679  18.5502614  46.6824699
  22.4390670  18.0578993  47.3757556  23.6293796  18.0075582  46.4416774
  15.3578018  14.7414155  46.6849327  16.1836038  14.4417927  46.3047971
  15.0072070  13.9721777  47.1339116  20.3259552  14.0940623  48.7547001
  19.7039561  13.4311328  48.4549229  20.9964419  14.1201755  48.0720649
  13.5586624  12.6600481  47.6438261  12.7218532  12.2322656  47.4622262
  13.5310269  12.8532925  48.5809052  30.8838925  13.1163534  57.6280644
  30.0934469  13.0987673  57.0885143  30.6472279  13.6551828  58.3829681
  31.0036800   9.9656001  54.9413373  31.0534805   9.8006008  55.8828895
  30.8950723   9.0983260  54.5511253  19.8873059  12.6444546  42.2305461
  20.0361179  13.3280011  41.5772134  20.6939502  12.6249636  42.7454917
  28.2940562   5.9486929  56.2572679  29.1950425   5.8093394  55.9656677
  28.3688537   6.1141384  57.1970857  22.6283368   3.3253783  55.1025866
  21.7586677   3.6187350  54.8308454  22.8642848   3.9094228  55.8233129
  32.5054997  12.3852942  55.1855394  32.2139805  12.7482923  56.0218855
  31.8927128  11.6719950  55.0068726  33.7050679   9.9505822  47.7057964
  34.5397570  10.3895626  47.8695525  33.8409808   9.4744475  46.8866210
  30.7542185   7.5085557  53.6535452  31.2296307   7.7013203  52.8454303
  29.8307750   7.5644743  53.4078836  17.6425692   8.6709724  43.2366530
  17.3971733   7.7672054  43.4346741  17.8121606   8.6726874  42.2946008
  23.3868464  15.1392677  39.7017209  22.8142431  15.7582864  39.2487681
  23.9601258  15.6892039  40.2357131  29.4543854   4.3851317  51.8863758
  30.4061277   4.4849415  51.9075982  29.2847304   3.5929585  52.3961842
  27.4758233   1.4706900  52.0723159  26.8808166   1.7511913  51.3769647
  27.1907930   1.9600801  52.8439900  26.6065724  15.4229827  40.8325791
  27.5396397  15.3575389  41.0358667  26.5188937  16.2586094  40.3740324
  29.2353741  14.7395697  37.7929739  29.1567372  14.4055561  38.6865497
  30.0563407  15.2317465  37.7921211  31.9331932   7.6057437  51.0006057
  31.9008252   6.6673437  51.1865741  32.5432555   7.6841473  50.2671882
  23.7715263   6.4753490  37.0433261  24.7174367   6.3459698  37.1121679
  23.3929508   5.7368151  37.5202690  32.0826420   4.3968480  51.0464341
  31.5665469   3.6126937  50.8594269  32.9666369   4.0687197  51.2110860
  29.7437147  -1.8590504  47.0060153  29.5461968  -2.1675416  47.8903485
  30.3536853  -1.1328865  47.1358083  37.7508482   8.6673443  50.1412094
  38.4811870   8.4058732  50.7019797  37.1415427   7.9302165  50.1814162
  35.8323779   6.8081306  50.7386545  35.1056942   6.6737271  50.1303037
  35.4171066   7.1158135  51.5443263  23.6553955  10.5271236  58.5033918
  24.5756965  10.7049835  58.6973965  23.6203538   9.5827281  58.3513618
  21.9558180   4.4003466  36.9788147  21.0489635   4.1036579  37.0550860
  22.2334161   4.1033284  36.1122433  16.6516028   8.4372270  51.1456700
  16.8702037   9.3689378  51.1644733  17.0641801   8.0780245  51.9311503
  21.5243893   4.0105476  60.5359448  21.4240620   4.9599833  60.4671540
  21.3065435   3.6823715  59.6635519  28.8789601   0.1318928  44.2635349
  28.2988270   0.7903732  43.8813401  28.6125534  -0.6903728  43.8522766
  27.3293167  -0.4676015  46.4656669  27.8292946  -0.3559480  45.6570988
  27.9728775  -0.7714962  47.1057478  21.3875163   7.4402615  59.3524510
  20.9042245   8.2402975  59.5588399  21.4736102   7.4510560  58.3991954
  14.6561123   9.2730995  47.2746329  14.6331811   9.3718682  46.3228213
  14.9661759  10.1196145  47.5963496  17.3148501  11.3307150  51.3892944
  18.2691754  11.2991092  51.3222875  17.1161024  10.8697773  52.2043170
  17.9047883   9.9008266  53.9563742  18.7240772  10.3952344  53.9798579
  18.1784690   8.9840234  53.9281309  27.6614479   2.2919018  43.3191697
  26.7740334   2.5768669  43.1011892  28.0768468   2.1312781  42.4718974
  31.0129015   2.3165539  47.0346036  31.7889405   2.8061991  47.3070653
  30.2877149   2.7423593  47.4917906  33.4501574   3.0293158  48.0919977
  34.0446064   2.7888894  47.3813285  33.5228157   2.3100289  48.7193513
  15.6698729  16.8726769  48.4063142  15.5353197  16.1127170  47.8401140
  15.2530792  17.5967669  47.9391931  26.8057692  12.0563693  37.4139717
  27.5093542  12.2613695  38.0297373  26.0820341  12.6240455  37.6788801
  27.6355503   7.8073554  43.5341987  27.5790704   8.2642105  42.6949620
  28.1883845   7.0464239  43.3564830  31.4460309   3.5963286  44.3592107
  31.1897243   3.1959921  45.1900314  30.8213177   4.3107080  44.2342246
  35.7572646   6.3359359  46.8663398  35.1972204   6.4052548  47.6394960
  35.1516150   6.1600344  46.1462894  18.8267855  17.7696086  48.6181584
  18.7100239  18.7141519  48.5160275  18.0060301  17.4669648  49.0067384
  28.7144390  12.4946222  39.4638177  29.5489994  12.0627420  39.2815652
  28.5528733  12.3228236  40.3915072  28.3690282   8.9978335  40.8294516
  28.3139086   8.8322607  39.8882961  27.7436337   9.7054368  40.9856706
  25.6836189  11.3027247  60.1548079  26.5527349  11.4767899  59.7934714
  25.2042941  12.1221664  60.0323809  19.8522369  18.4224348  51.8337513
  20.7549616  18.4547958  52.1504008  19.6259739  17.4924799  51.8483849
  21.6075971  17.1755335  48.4947591  20.6571602  17.1757196  48.3811964
  21.9108457  16.4288069  47.9783626  37.3428665  23.0115873  49.5593354
  37.9807075  22.8922620  48.8556694  37.2249508  23.9596717  49.6181306
  34.1518371  22.9643301  49.4954879  33.8136883  22.8484366  48.6075413
  35.0208139  22.5634466  49.4755885  30.0105187  24.8178778  45.4851769
  29.4470052  24.7268714  44.7168057  29.8957582  23.9978682  45.9654262
  34.6338154  24.1178153  55.4541084  34.6226795  23.7230951  54.5821588
  34.7958794  23.3844225  56.0474856  27.5569619  26.3129969  48.3235990
  28.3490911  25.9720794  47.9082289  27.7966269  26.4224944  49.2438143
  35.5904746  28.4849745  40.7966234  34.9392725  29.0703826  40.4100248
  36.3849108  29.0155940  40.8561272  29.5160373  25.5738882  41.1953369
  30.2891249  25.0267869  41.0566245  29.8685772  26.4383132  41.4067830
  31.3545415  26.9015265  54.4020268  31.0635281  27.8060895  54.2866934
  31.9902400  26.9431792  55.1164338  32.2801622  24.2792113  50.9921628
  32.8765194  24.0548136  50.2778591  32.3376594  23.5376859  51.5947076
  31.8526650  21.7331548  38.8271819  32.1052171  21.2113070  38.0655282
  30.9151210  21.5697694  38.9298502  36.8969933  20.7367327  46.6346562
  37.6833023  20.3186750  46.2836979  37.1608638  21.6413419  46.8028210
  37.0680011  26.1740177  41.3335219  36.4325844  26.2474804  42.0456123
  36.7377417  26.7633776  40.6554298  42.2978360  20.6742560  47.5379540
  43.0303532  20.1041777  47.7717370  41.5417716  20.2864161  47.9786046
  31.5722939  23.6359654  41.0296194  31.4559197  22.9604558  41.6977278
  31.6825199  23.1492028  40.2128347  33.9154480  23.0969802  44.7342883
  33.5512687  22.5700423  45.4455804  34.7721596  22.7068271  44.5609368
  39.8203781  14.3864134  51.9974149  39.4887106  15.2559545  51.7735364
  39.2249394  14.0700418  52.6768179  33.5559967  18.1259701  39.7304231
  33.7234369  18.9939938  40.0974702  33.3657136  18.2886983  38.8065521
  36.3135300  26.5876680  51.3970062  36.0136023  27.4901719  51.2885869
  35.9686360  26.3208863  52.2491215  29.7647782  23.0390477  47.4306766
  28.8398278  22.9066691  47.6384458  30.0132195  23.8184696  47.9276709
  39.7132444  19.1059220  49.0767499  38.8049321  19.0374629  48.7826260
  39.6620040  19.5831165  49.9049325  33.5349188  20.5817359  40.7150898
  33.4148813  21.0274410  41.5536378  32.8401776  20.9302676  40.1564436
  27.1256593  22.6823751  48.2650555  27.2548974  22.9358229  49.1789967
  26.4454044  23.2751459  47.9455210  31.2956080  33.3521001  44.3641029
  31.2180110  34.3028826  44.4429510  30.6917724  33.0066873  45.0215956
  33.7873310  20.5248866  57.0202396  33.0106644  21.0842786  57.0105261
  34.4263873  21.0105649  57.5417266  41.5794091  17.3075659  50.8545373
  40.9368471  17.6008192  50.2085168  41.0749019  17.1928579  51.6598570
  39.2334254  21.0538832  41.5431232  40.1452110  21.2866219  41.3678930
  38.7243901  21.6375876  40.9806311  32.0419682  23.3334319  56.5820363
  32.7834367  23.8719363  56.3055187  31.3356668  23.9600608  56.7391915
  37.5175022  25.4763460  55.1792525  37.9258378  25.0345870  54.4347157
  36.7952283  24.9016087  55.4326718  33.8706092  20.4136067  52.5526082
  34.7167287  20.8375480  52.6960731  33.8104730  19.7569691  53.2464645
  37.8403836  26.0364650  48.9344814  37.2112699  26.2010365  48.2320882
  37.4529499  26.4506260  49.7055778  41.7193068  26.9719088  46.2889177
  41.0344107  27.3517990  45.7386211  41.8036918  27.5814415  47.0221125
  37.0205537  18.0740435  54.2107255  36.7766469  18.8282495  53.6741531
  37.2965468  18.4525782  55.0454502  38.9744000  24.6179047  52.8884521
  39.1860895  25.2610807  52.2118902  38.9273748  23.7841364  52.4206451
  36.5770229  17.2296868  49.7921093  35.7154708  17.5278121  50.0837831
  36.6032664  17.4467267  48.8602126  33.3931798  25.7739058  46.1994899
  33.8570144  26.0526761  45.4099521  33.1288596  24.8722503  46.0167989
  30.2855879  25.3210540  49.1374662  30.8557236  25.7497808  48.4992147
  30.8763991  25.0393125  49.8358848  32.3300684  21.8962211  43.0084464
  33.0324728  22.3483255  43.4758390  31.9981313  21.2546030  43.6364357
  30.7781046  20.4873967  57.3835673  30.1479707  21.1690248  57.6171070
  30.6717134  20.3757049  56.4388812  26.0726018  20.1545763  48.3101597
  25.2825072  20.4103292  47.8341708  26.5637266  20.9694101  48.4153638
  40.0889828  27.4951003  51.0606878  40.9107272  27.0931190  50.7789560
  40.0852231  27.3919237  52.0122994  28.0240764  20.5190343  45.2685074
  27.2271927  20.6309037  45.7868570  27.7966356  20.8576995  44.4025965
  33.8546431  27.0435046  53.2167589  33.9190864  27.5055453  54.0525761
  33.1457355  26.4132411  53.3449899  24.3563721  20.4076254  50.7416588
  24.6071760  21.2923264  51.0074164  24.8923270  20.2280855  49.9691680
  48.1795821  23.8389751  47.4091850  47.4259529  23.2697149  47.2535854
  48.3143362  23.8052416  48.3562484  33.5694449  28.7103153  43.0846569
  33.4340124  29.5554689  43.5131417  34.1104262  28.9122431  42.3212503
  30.0561789  14.7894733  59.7460924  29.6628734  14.2360932  60.4208569
  30.8727929  15.1005312  60.1367442  27.0223846  26.2278591  43.6574494
  27.5348367  27.0221842  43.8080059  27.6746559  25.5304882  43.5908096
  28.8318731  29.3444348  45.7397247  29.0085359  30.2662312  45.5518231
  29.6275565  29.0302767  46.1691627  32.9729750  16.2052612  57.3381181
  33.7139463  16.8059766  57.2585643  33.2047672  15.4630250  56.7799223
  28.1171088  21.3908980  55.6159411  28.0024603  20.4894237  55.9166510
  27.2615605  21.6372676  55.2644227  35.1962925  29.3326720  57.2146911
  34.7526780  28.5463099  56.8967816  35.8580139  29.5205870  56.5490802
  29.9550047  30.8622522  51.7407590  30.5057472  30.7339585  50.9684584
  29.1161522  31.1617411  51.3902483  37.2944163  29.6129520  55.2428313
  37.2762639  30.4338401  54.7508582  38.2164084  29.4883595  55.4678454
  33.7517218  27.1273649  56.0851821  34.2845554  26.3661938  55.8551129
  33.2231299  26.8347301  56.8275975  36.9186913  12.2333715  51.6145463
  36.5751182  13.1235357  51.5384573  37.2865875  12.0435373  50.7515048
  24.9872763  24.5567246  44.4334065  25.8247985  24.9664254  44.2167772
  25.1651031  23.6166688  44.4034259  36.8837195  22.2242326  40.1217898
  36.3683819  22.9946931  40.3606285  36.6114504  21.5507463  40.7450959
  34.4684306  17.0692027  45.1803136  33.6125903  16.6798878  45.0008775
  34.8811258  17.1483988  44.3202922  35.9983453  14.6038371  49.5794696
  35.4948249  14.5668506  48.7662501  36.2914060  15.5131113  49.6391353
  32.2426339  14.6877100  48.5860878  33.1079336  14.4919909  48.2266767
  32.3103848  14.4587452  49.5130234  41.8571469  24.9774681  42.0571071
  41.0800912  24.6385841  41.6126233  42.5362950  24.9827304  41.3826036
  36.6723498  20.0969419  41.9477679  36.3673634  20.4115568  42.7987822
  37.6253941  20.1750838  41.9905012  35.1169930  26.2559642  43.5970633
  34.5891292  25.5212401  43.2843870  34.6157433  27.0334318  43.3510601
  40.0962776  24.4508662  48.7137679  39.4386451  25.1407924  48.8017808
  40.9003176  24.8405094  49.0571666  29.8488658  16.9179308  45.9577244
  30.4232410  16.6954490  45.2250437  30.4359640  16.9868003  46.7105846
  38.9068235  22.8053035  46.7641621  39.4200117  23.4383027  47.2663331
  39.5569459  22.2054231  46.3984981  30.1758245  18.9483769  39.9773130
  29.3395557  19.2858456  40.2982404  30.0363015  18.8132749  39.0400267
  32.1511326  13.7920557  44.6852314  31.4975738  13.4769574  44.0608929
  32.1091800  13.1696298  45.4112137  33.2622531  24.0739852  36.6005606
  32.3549592  23.8429106  36.7996755  33.7593562  23.2777471  36.7879587
  36.1690609  32.7837359  39.5202292  35.4952308  33.0869056  40.1287250
  36.5556431  33.5866440  39.1707749  35.3849066  20.2802491  49.0099961
  34.4671627  20.5017438  48.8521650  35.8009210  20.3548801  48.1511669
  36.1684114  21.6793906  44.1402642  36.9155933  22.1915303  43.8309764
  36.4375703  21.3577959  45.0007035  34.4410764  24.1752447  41.1229596
  33.5321983  23.8911480  41.2202066  34.4705848  24.5951526  40.2632903
  39.6730031  27.7859036  44.8920764  39.2192358  26.9449946  44.9485954
  39.0423998  28.4220435  45.2295544  38.6162951  18.7151023  46.1221431
  37.8785708  18.2028409  46.4531674  38.8689724  18.2751404  45.3104708
  38.1162971  29.6235533  45.8270582  38.4085945  30.1840590  45.1082947
  38.6261591  29.9164094  46.5823741  38.7174578  11.4927275  46.7163200
  39.0233455  10.6324638  46.4289115  39.4427183  12.0844895  46.5162194
  25.0098934  21.8957961  45.1044798  24.8123334  21.3027322  44.3795865
  24.4545598  21.5910171  45.8220737  32.9895658  21.7881068  47.2239391
  33.0444268  20.8354904  47.1481868  32.1786860  21.9440507  47.7080690
  34.1386852  25.7161191  38.4617675  33.7006282  24.9997050  38.0023312
  34.8797293  25.9437305  37.9002766  30.9288018  20.4058127  44.9829770
  30.1155883  20.7052298  45.3894962  31.4247012  20.0113816  45.7004252
  33.0796596  30.4015884  46.9164035  33.0372775  30.6276731  45.9872567
  33.9959295  30.1679259  47.0649836  36.5262230  20.8699952  53.8144664
  36.8811617  21.0971425  54.6739130  37.1734361  21.2018329  53.1921919
  42.2559967  23.9918388  44.5193993  42.1177865  24.1819984  43.5915182
  41.8996185  24.7537771  44.9762044  30.4202093  17.9776483  50.5991005
  31.0601472  17.8365242  49.9013968  29.5879623  17.6910996  50.2229607
  42.2829346  26.0594915  49.5305265  42.7165853  25.9670204  50.3788319
  42.9960927  26.0352415  48.8925281  31.1962397  27.2778913  46.7125998
  31.9902995  26.7829233  46.5108573  30.4854089  26.7496776  46.3493703
  36.0157241  29.6597009  51.0638365  36.0694263  30.2287945  51.8316081
  35.1472022  29.8298894  50.6992402  27.5045160  21.4221995  42.7885750
  26.5742748  21.3606451  43.0055712  27.6002632  20.8997948  41.9922392
  27.4230709  17.9476808  45.3763992  27.6837526  18.8622141  45.2673152
  28.2447881  17.4801250  45.5260605  28.8955634  19.3614565  52.5462817
  29.5678688  19.1531927  51.8975465  28.0685421  19.1636651  52.1068049
  43.1444896  26.1018615  52.0638150  43.3380786  27.0064426  52.3097425
  43.0445514  25.6426034  52.8976735  34.7981206  15.9876506  54.5628477
  34.1509121  16.6866456  54.4692954  35.5682222  16.4212650  54.9304726
  38.2060004  26.2525358  57.6379031  38.0545511  26.0235910  56.7209114
  38.1964684  27.2095960  57.6510376  34.9745341  23.8257271  52.6225297
  35.9037401  23.9768430  52.4494264  34.5536371  23.9141292  51.7673944
  33.7733673  27.8507935  50.3923835  33.6344758  27.4826720  51.2649773
  32.9848269  28.3655575  50.2207793  34.3681825  32.9517032  41.7349371
  34.5433580  32.4805075  42.5494994  33.6814613  33.5782798  41.9630632
  35.3238888  27.2289538  47.7812673  34.9888720  27.1890308  48.6770322
  34.8242833  26.5634254  47.3083083  29.2983132  22.6357168  53.3065254
  29.1602930  21.9037407  53.9076793  30.2088055  22.5466068  53.0249441
  38.2598079  24.5745572  38.0549732  37.6427250  23.8492400  37.9582785
  37.7914568  25.3354933  37.7116806  31.9265432  22.3477127  52.7948933
  32.6365051  21.7070320  52.7535552  31.8834741  22.5990022  53.7175114
  39.9152211  29.2844481  55.7155513  39.8564757  28.6003701  55.0486096
  40.3171729  30.0263471  55.2636139  30.6394366  19.3342345  54.6144573
  30.1031723  18.8833084  55.2666169  30.0511075  19.4688254  53.8715037
  28.9342910  36.1006395  48.5089231  29.1739508  36.7324919  49.1868250
  28.0912106  35.7494435  48.7954591  30.0496625  18.7930997  37.1771036
  29.1726092  18.6719797  36.8133283  30.5254378  18.0017075  36.9249925
  39.9169618  27.2484065  53.9469492  39.0296397  26.9109986  54.0695891
  40.4868169  26.5167096  54.1838258  21.5698765  23.5808156  47.2712544
  22.2569805  23.2669886  46.6833559  21.4146894  24.4849521  46.9979795
  26.3733488  18.4698353  51.6997567  26.2891676  17.8624022  50.9647977
  25.5516194  18.9607371  51.7007064  33.4470772  31.9085517  50.9130735
  33.3740943  32.7140488  51.4250040  33.0048165  32.1077483  50.0878757
  33.2360551  31.1457287  44.4233557  32.4528073  31.6878967  44.5171781
  33.9353296  31.6631267  44.8227798  36.5457201  16.9551916  47.0667762
  37.0425901  16.2021879  46.7468833  35.7744183  16.9916233  46.5010972
  44.3986959  22.6592282  48.7086054  44.3876835  23.5416997  48.3379987
  43.5304338  22.3063833  48.5140591  35.9069455  31.8072351  53.0688894
  36.6197427  32.4419816  52.9964796  35.4159484  31.9036217  52.2528896
  37.6286982  25.7123604  44.6406186  36.6943261  25.8325066  44.4710890
  37.8063651  24.8096070  44.3766196  33.1292170  19.0969299  46.7939447
  32.7589958  18.5440340  47.4820353  33.6251263  18.4927433  46.2414447
  41.0159533  21.5540923  45.1756220  41.4819986  22.3868915  45.1016523
  41.4667034  21.0885905  45.8801478  30.9581369  29.5566794  53.8894465
  31.6590828  30.1903277  54.0423859  30.4876484  29.8981526  53.1290104
  39.0835765  27.8984744  42.1742372  39.3595608  27.7841339  43.0836246
  38.2140263  27.5002229  42.1354545  38.9876196  13.9221510  49.2147121
  38.0739276  14.1525737  49.3829328  39.4169298  14.0059954  50.0661154
  38.7582655  22.1111402  51.7147015  38.1054105  22.3587309  51.0599468
  39.1363035  21.2975540  51.3809493  35.7189829  32.1471095  45.8175186
  35.9012223  31.3292751  46.2802938  36.5422815  32.3638787  45.3800076
  36.0531994  31.0739280  43.0790234  36.5819761  30.5631735  42.4660396
  36.3160214  30.7581810  43.9435767  34.8070228  22.8531213  58.2013052
  34.1310865  22.7525342  58.8715428  35.6297862  22.6970427  58.6649050
  26.5549087  29.0903149  50.8225568  27.1402524  28.3446837  50.9553472
  26.3573925  29.4007106  51.7062231  29.4087742  32.1254397  45.8388010
  28.7398117  32.6100525  45.3552050  29.2700612  32.3723617  46.7531388
  21.1466742  21.6608750  49.5430011  21.1850841  21.1272340  50.3367129
  20.6407034  21.1343955  48.9240988  33.5493011  34.1598140  52.4370668
  34.1011319  34.3229762  53.2019754  33.8899204  34.7502578  51.7650693
  28.5257504  16.5073290  53.0392553  28.5898830  17.3688121  52.6269951
  28.4624624  15.8947292  52.3064912  28.0009776  18.5796423  56.6865587
  28.6281815  18.1973500  57.3003112  27.1437695  18.3610625  57.0521280
  38.4003885  28.9859398  58.2919323  38.9443789  29.5989356  57.7974278
  37.8190730  29.5438976  58.8086336  24.7775319  20.3872852  42.6183942
  25.0728760  19.4783530  42.5650996  23.8763355  20.3660591  42.2964944
  36.6861398  32.1080116  49.4234351  36.5612537  31.3069856  48.9145296
  37.3440489  32.6026309  48.9348320  28.3069566  18.4628848  48.6011491
  27.5856152  19.0764816  48.4618964  29.0962822  18.9986613  48.5228137
  38.7496306  29.9089136  51.0513901  37.8026642  29.7894487  50.9792227
  39.0979079  29.0211634  51.1340162  31.1095880  15.7983275  54.8752142
  31.6330281  16.0445571  55.6378452  30.8908213  16.6303310  54.4555280
  26.5063161  18.0686950  42.7423267  26.1775867  17.1884328  42.5598373
  26.8602531  18.0134618  43.6299657  35.7542740  29.7041852  47.2518253
  35.6067702  28.7758560  47.4325823  36.5796233  29.7261943  46.7675328
  29.6204984  18.3559919  43.1098745  29.9601056  18.8845841  42.3877353
  30.0677104  18.6940325  43.8857311  39.3576861  30.5270411  48.3383126
  40.2823409  30.3213272  48.2007577  39.1892165  30.2786812  49.2472467
  32.3148425  16.7396970  52.5601813  31.9745245  15.9404783  52.9622493
  31.6087431  17.0398681  51.9878646  32.9664897  13.8246282  51.0129136
  33.7890966  13.3506761  50.8908026  33.2102960  14.6036766  51.5127822
  31.6073131  16.8534541  41.3092038  32.3281494  17.2315794  40.8055755
  30.9838435  17.5723418  41.4127016  35.7504254  17.5579690  42.2450370
  35.9667868  18.4404328  41.9439198  35.2698321  17.1665903  41.5156012
  30.4903475  20.5165403  48.8221115  30.3448056  20.8305706  49.7145396
  30.0128679  21.1350303  48.2692013  32.3499858  17.5067951  48.8702004
  32.3361427  16.6109044  48.5334302  33.0672286  17.5138615  49.5040290
  34.2025989  17.9405291  50.9155132  33.9443767  18.8622362  50.9139462
  33.6711029  17.5435726  51.6055596  39.1472178  31.0456078  43.6945217
  39.3209055  30.4802501  42.9419069  39.6401069  31.8456973  43.5124707
  24.9649137  23.0570747  51.7608776  24.4202606  23.8330555  51.8929050
  25.8428487  23.4041552  51.6027897  31.7536754  16.3882331  44.1389574
  31.8752665  15.4598978  44.3380462  31.4638796  16.4021017  43.2267890
  34.6227944  14.0737242  47.2756294  34.6449641  14.1376575  46.3208274
  35.0396003  13.2341750  47.4696800  45.0011569  23.8092501  45.3135517
  45.4442715  23.0599827  44.9154640  44.1238079  23.8002638  44.9309249
  40.1347350  30.3622843  40.7942115  40.8298255  30.9829535  41.0129430
  40.4770500  29.5118194  41.0694493  25.7515159  22.1840644  54.6538933
  25.0096895  22.3323279  55.2403563  25.4307904  22.4448909  53.7905682
  42.0338773  27.8122548  42.3229446  42.5590097  28.1509821  41.5978766
  41.9461126  26.8769564  42.1392581  33.6958822  31.7256622  54.4519323
  34.0045948  31.4805769  55.3242022  34.4934304  31.9303260  53.9638193
  33.7179434  33.8794532  46.6824699  33.2784424  33.3870910  47.3757556
  34.4687551  33.3367499  46.4416774  26.1971773  30.0706072  46.6849327
  27.0229793  29.7709844  46.3047971  25.8465825  29.3013695  47.1339116
  31.1653306  29.4232541  48.7547001  30.5433315  28.7603246  48.4549229
  31.8358173  29.4493673  48.0720649  24.3980378  27.9892399  47.6438261
  23.5612286  27.5614573  47.4622262  24.3704023  28.1824842  48.5809052
  31.2377834  17.9014329  58.3479507  31.2865989  18.7776452  57.9657277
  31.7800348  17.3591722  57.7751150  41.7232679  28.4455452  57.6280644
  40.9328223  28.4279591  57.0885143  41.4866034  28.9843746  58.3829681
  41.8430554  25.2947918  54.9413373  41.8928559  25.1297926  55.8828895
  41.7344478  24.4275177  54.5511253  30.7266813  27.9736464  42.2305461
  30.8754933  28.6571928  41.5772134  31.5333256  27.9541554  42.7454917
  39.1334317  21.2778846  56.2572679  40.0344179  21.1385311  55.9656677
  39.2082291  21.4433301  57.1970857  33.4677122  18.6545701  55.1025866
  32.5980431  18.9479267  54.8308454  33.7036602  19.2386146  55.8233129
  43.3448751  27.7144860  55.1855394  43.0533559  28.0774840  56.0218855
  42.7320882  27.0011868  55.0068726  44.5444433  25.2797740  47.7057964
  45.3791325  25.7187544  47.8695525  44.6803562  24.8036393  46.8866210
  41.5935939  22.8377474  53.6535452  42.0690061  23.0305121  52.8454303
  40.6701505  22.8936660  53.4078836  28.4819446  24.0001642  43.2366530
  28.2365488  23.0963972  43.4346741  28.6515361  24.0018792  42.2946008
  36.1716156  14.8725318  52.6191286  36.6898100  15.6086345  52.2937775
  35.8171289  15.1789311  53.4538045  27.7515094  19.7329999  40.7352692
  27.0584338  19.8074354  40.0792728  27.5066845  18.9690343  41.2574209
  36.4228750  11.2925601  48.1392183  36.7030504  10.6248790  48.7652609
  37.2079357  11.4854696  47.6266846  34.2262219  30.4684594  39.7017209
  33.6536186  31.0874782  39.2487681  34.7995012  31.0183956  40.2357131
  40.2937608  19.7143235  51.8863758  41.2455031  19.8141332  51.9075982
  40.1241059  18.9221503  52.3961842  38.3151988  16.7998818  52.0723159
  37.7201920  17.0803831  51.3769647  38.0301685  17.2892719  52.8439900
  37.4459478  30.7521745  40.8325791  38.3790152  30.6867306  41.0358667
  37.3582691  31.5878011  40.3740324  40.0747495  30.0687615  37.7929739
  39.9961127  29.7347479  38.6865497  40.8957162  30.5609383  37.7921211
  42.7725686  22.9349354  51.0006057  42.7402006  21.9965355  51.1865741
  43.3826310  23.0133391  50.2671882  34.6109017  21.8045407  37.0433261
  35.5568122  21.6751615  37.1121679  34.2323262  21.0660069  37.5202690
  42.9220175  19.7260398  51.0464341  42.4059223  18.9418854  50.8594269
  43.8060123  19.3979114  51.2110860  40.5830902  13.4701413  47.0060153
  40.3855723  13.1616501  47.8903485  41.1930607  14.1963052  47.1358083
  48.5902236  23.9965361  50.1412094  49.3205625  23.7350649  50.7019797
  47.9809182  23.2594083  50.1814162  46.6717533  22.1373224  50.7386545
  45.9450697  22.0029189  50.1303037  46.2564820  22.4450052  51.5443263
  34.4947710  25.8563153  58.5033918  35.4150719  26.0341752  58.6973965
  34.4597293  24.9119199  58.3513618  32.7951934  19.7295384  36.9788147
  31.8883390  19.4328496  37.0550860  33.0727915  19.4325202  36.1122433
  23.7129875  21.0501747  47.4287193  23.3932659  20.1967055  47.1361567
  23.1663303  21.2650325  48.1845160  27.4909782  23.7664188  51.1456700
  27.7095792  24.6981296  51.1644733  27.9035556  23.4072162  51.9311503
  34.4114000  14.2732273  43.1332388  33.6014728  13.9279358  43.5087634
  35.0998417  13.9639817  43.7219999  36.3404548  13.3510320  44.7556685
  36.8935587  13.7705774  45.4146708  36.5774635  12.4246068  44.7979641
  32.3637647  19.3397394  60.5359448  32.2634374  20.2891751  60.4671540
  32.1459190  19.0115633  59.6635519  31.5650719  16.5882319  37.1200126
  32.4269883  16.9137217  37.3795943  31.7501063  15.8013815  36.6073192
  23.5818135  24.6704659  49.3980315  22.8881606  24.2558611  48.8850269
  24.3291126  24.7125195  48.8013733  39.7183355  15.4610845  44.2635349
  39.1382024  16.1195649  43.8813401  39.4519288  14.6388190  43.8522766
  38.1686922  14.8615903  46.4656669  38.6686700  14.9732438  45.6570988
  38.8122530  14.5576956  47.1057478  32.2268918  22.7694533  59.3524510
  31.7435999  23.5694893  59.5588399  32.3129857  22.7802478  58.3991954
  25.4954877  24.6022912  47.2746329  25.4725565  24.7010600  46.3228213
  25.8055514  25.4488063  47.5963496  28.1542255  26.6599067  51.3892944
  29.1085509  26.6283010  51.3222875  27.9554779  26.1989691  52.2043170
  28.7441637  25.2300183  53.9563742  29.5634526  25.7244262  53.9798579
  29.0178445  24.3132152  53.9281309  38.5008233  17.6210936  43.3191697
  37.6134088  17.9060586  43.1011892  38.9162222  17.4604699  42.4718974
  41.8522769  17.6457457  47.0346036  42.6283160  18.1353909  47.3070653
  41.1270904  18.0715511  47.4917906  44.2895328  18.3585076  48.0919977
  44.8839819  18.1180812  47.3813285  44.3621912  17.6392206  48.7193513
  26.5092484  32.2018687  48.4063142  26.3746952  31.4419088  47.8401140
  26.0924546  32.9259587  47.9391931  37.6451447  27.3855610  37.4139717
  38.3487297  27.5905613  38.0297373  36.9214096  27.9532372  37.6788801
  38.4749257  23.1365472  43.5341987  38.4184458  23.5934023  42.6949620
  39.0277600  22.3756156  43.3564830  42.2854063  18.9255203  44.3592107
  42.0290997  18.5251839  45.1900314  41.6606931  19.6398997  44.2342246
  46.5966401  21.6651277  46.8663398  46.0365959  21.7344466  47.6394960
  45.9909904  21.4892261  46.1462894  29.6661610  33.0988004  48.6181584
  29.5493994  34.0433436  48.5160275  28.8454056  32.7961565  49.0067384
  39.5538144  27.8238140  39.4638177  40.3883748  27.3919338  39.2815652
  39.3922487  27.6520153  40.3915072  39.2084036  24.3270253  40.8294516
  39.1532840  24.1614524  39.8882961  38.5830092  25.0346286  40.9856706
  23.9976551  19.5638317  54.6555939  24.6435415  19.0537271  55.1443164
  23.7893702  20.3006999  55.2299364  36.5229944  26.6319165  60.1548079
  37.3921103  26.8059817  59.7934714  36.0436695  27.4513582  60.0323809
  32.5180162  13.8278362  40.4079835  32.5058832  14.7720202  40.5648106
  33.4103584  13.6448507  40.1139296  30.6916124  33.7516266  51.8337513
  31.5943371  33.7839876  52.1504008  30.4653494  32.8216717  51.8483849
  32.4469726  32.5047252  48.4947591  31.4965357  32.5049114  48.3811964
  32.7502212  31.7579987  47.9783626  36.3332281  10.4221139  44.6625772
  35.5664677   9.8679625  44.8082454  36.7442986  10.4943007  45.5239923
  28.3374042  16.7105934  58.7530953  29.2005504  16.3542739  58.9634277
  27.7639453  16.3719829  59.4406357  48.1822419  38.3407791  49.5593354
  48.8200829  38.2214538  48.8556694  48.0643262  39.2888635  49.6181306
  44.9912126  38.2935219  49.4954879  44.6530637  38.1776283  48.6075413
  45.8601894  37.8926384  49.4755885  40.8498941  40.1470695  45.4851769
  40.2863806  40.0560632  44.7168057  40.7351336  39.3270600  45.9654262
  45.4731909  39.4470071  55.4541084  45.4620549  39.0522869  54.5821588
  45.6352548  38.7136143  56.0474856  38.3963373  41.6421887  48.3235990
  39.1884665  41.3012711  47.9082289  38.6360023  41.7516862  49.2438143
  46.4298500  43.8141663  40.7966234  45.7786480  44.3995743  40.4100248
  47.2242863  44.3447858  40.8561272  40.3554127  40.9030800  41.1953369
  41.1285003  40.3559787  41.0566245  40.7079526  41.7675049  41.4067830
  42.1939170  42.2307182  54.4020268  41.9029036  43.1352813  54.2866934
  42.8296154  42.2723710  55.1164338  43.1195377  39.6084031  50.9921628
  43.7158949  39.3840053  50.2778591  43.1770348  38.8668776  51.5947076
  42.6920405  37.0623466  38.8271819  42.9445926  36.5404987  38.0655282
  41.7544964  36.8989612  38.9298502  47.7363688  36.0659245  46.6346562
  48.5226777  35.6478668  46.2836979  48.0002392  36.9705337  46.8028210
  47.9073765  41.5032095  41.3335219  47.2719598  41.5766721  42.0456123
  47.5771172  42.0925694  40.6554298  53.1372115  36.0034478  47.5379540
  53.8697287  35.4333695  47.7717370  52.3811471  35.6156078  47.9786046
  42.4116694  38.9651572  41.0296194  42.2952952  38.2896476  41.6977278
  42.5218954  38.4783946  40.2128347  44.7548235  38.4261719  44.7342883
  44.3906442  37.8992340  45.4455804  45.6115351  38.0360188  44.5609368
  50.6597535  29.7156052  51.9974149  50.3280860  30.5851463  51.7735364
  50.0643149  29.3992336  52.6768179  44.3953722  33.4551619  39.7304231
  44.5628124  34.3231855  40.0974702  44.2050891  33.6178901  38.8065521
  47.1529055  41.9168598  51.3970062  46.8529778  42.8193637  51.2885869
  46.8080114  41.6500781  52.2491215  40.6041536  38.3682395  47.4306766
  39.6792033  38.2358609  47.6384458  40.8525949  39.1476614  47.9276709
  50.5526199  34.4351138  49.0767499  49.6443076  34.3666546  48.7826260
  50.5013794  34.9123083  49.9049325  44.3742942  35.9109276  40.7150898
  44.2542568  36.3566327  41.5536378  43.6795531  36.2594594  40.1564436
  37.9650347  38.0115668  48.2650555  38.0942728  38.2650147  49.1789967
  37.2847799  38.6043376  47.9455210  42.1349835  48.6812918  44.3641029
  42.0573864  49.6320743  44.4429510  41.5311478  48.3358791  45.0215956
  44.6267064  35.8540784  57.0202396  43.8500398  36.4134704  57.0105261
  45.2657627  36.3397567  57.5417266  52.4187845  32.6367576  50.8545373
  51.7762225  32.9300110  50.2085168  51.9142774  32.5220497  51.6598570
  50.0728009  36.3830750  41.5431232  50.9845865  36.6158136  41.3678930
  49.5637656  36.9667794  40.9806311  42.8813437  38.6626237  56.5820363
  43.6228121  39.2011281  56.3055187  42.1750422  39.2892526  56.7391915
  48.3568776  40.8055377  55.1792525  48.7652132  40.3637788  54.4347157
  47.6346038  40.2308005  55.4326718  44.7099846  35.7427984  52.5526082
  45.5561042  36.1667398  52.6960731  44.6498484  35.0861609  53.2464645
  48.6797591  41.3656568  48.9344814  48.0506453  41.5302282  48.2320882
  48.2923253  41.7798178  49.7055778  52.5586823  42.3011006  46.2889177
  51.8737861  42.6809907  45.7386211  52.6430672  42.9106333  47.0221125
  47.8599292  33.4032353  54.2107255  47.6160224  34.1574413  53.6741531
  48.1359222  33.7817700  55.0454502  49.8137754  39.9470965  52.8884521
  50.0254650  40.5902725  52.2118902  49.7667503  39.1133281  52.4206451
  47.4163983  32.5588786  49.7921093  46.5548462  32.8570039  50.0837831
  47.4426418  32.7759184  48.8602126  44.2325553  41.1030976  46.1994899
  44.6963898  41.3818679  45.4099521  43.9682351  40.2014421  46.0167989
  41.1249634  40.6502458  49.1374662  41.6950991  41.0789726  48.4992147
  41.7157746  40.3685042  49.8358848  43.1694439  37.2254129  43.0084464
  43.8718482  37.6775172  43.4758390  42.8375067  36.5837947  43.6364357
  41.6174800  35.8165885  57.3835673  40.9873461  36.4982166  57.6171070
  41.5110888  35.7048967  56.4388812  36.9119773  35.4837681  48.3101597
  36.1218827  35.7395210  47.8341708  37.4031020  36.2986019  48.4153638
  50.9283582  42.8242920  51.0606878  51.7501026  42.4223108  50.7789560
  50.9245985  42.7211155  52.0122994  38.8634518  35.8482260  45.2685074
  38.0665682  35.9600955  45.7868570  38.6360110  36.1868913  44.4025965
  44.6940186  42.3726964  53.2167589  44.7584618  42.8347371  54.0525761
  43.9851110  41.7424329  53.3449899  35.1957476  35.7368172  50.7416588
  35.4465514  36.6215182  51.0074164  35.7317024  35.5572773  49.9691680
  59.0189575  39.1681669  47.4091850  58.2653284  38.5989067  47.2535854
  59.1537117  39.1344333  48.3562484  44.4088204  44.0395071  43.0846569
  44.2733878  44.8846607  43.5131417  44.9498016  44.2414349  42.3212503
  40.8955543  30.1186651  59.7460924  40.5022489  29.5652850  60.4208569
  41.7121683  30.4297229  60.1367442  37.8617601  41.5570509  43.6574494
  38.3742121  42.3513759  43.8080059  38.5140314  40.8596800  43.5908096
  39.6712486  44.6736265  45.7397247  39.8479114  45.5954230  45.5518231
  40.4669319  44.3594685  46.1691627  43.8123504  31.5344530  57.3381181
  44.5533218  32.1351683  57.2585643  44.0441427  30.7922168  56.7799223
  38.9564842  36.7200897  55.6159411  38.8418357  35.8186155  55.9166510
  38.1009360  36.9664594  55.2644227  46.0356680  44.6618638  57.2146911
  45.5920534  43.8755016  56.8967816  46.6973893  44.8497788  56.5490802
  40.7943801  46.1914439  51.7407590  41.3451226  46.0631503  50.9684584
  39.9555277  46.4909328  51.3902483  48.1337918  44.9421438  55.2428313
  48.1156393  45.7630319  54.7508582  49.0557838  44.8175513  55.4678454
  44.5910972  42.4565567  56.0851821  45.1239309  41.6953855  55.8551129
  44.0625053  42.1639219  56.8275975  47.7580667  27.5625633  51.6145463
  47.4144936  28.4527275  51.5384573  48.1259630  27.3727291  50.7515048
  35.8266518  39.8859163  44.4334065  36.6641740  40.2956172  44.2167772
  36.0044785  38.9458606  44.4034259  47.7230950  37.5534244  40.1217898
  47.2077573  38.3238849  40.3606285  47.4508258  36.8799380  40.7450959
  45.3078061  32.3983945  45.1803136  44.4519657  32.0090795  45.0008775
  45.7205013  32.4775906  44.3202922  46.8377207  29.9330288  49.5794696
  46.3342003  29.8960423  48.7662501  47.1307814  30.8423031  49.6391353
  43.0820093  30.0169018  48.5860878  43.9473090  29.8211827  48.2266767
  43.1497602  29.7879370  49.5130234  52.6965224  40.3066599  42.0571071
  51.9194667  39.9677758  41.6126233  53.3756705  40.3119222  41.3826036
  47.5117253  35.4261336  41.9477679  47.2067389  35.7407485  42.7987822
  48.4647695  35.5042756  41.9905012  45.9563685  41.5851560  43.5970633
  45.4285046  40.8504319  43.2843870  45.4551188  42.3626236  43.3510601
  50.9356531  39.7800580  48.7137679  50.2780205  40.4699841  48.8017808
  51.7396930  40.1697012  49.0571666  40.6882412  32.2471226  45.9577244
  41.2626164  32.0246407  45.2250437  41.2753395  32.3159920  46.7105846
  49.7461990  38.1344953  46.7641621  50.2593871  38.7674945  47.2663331
  50.3963214  37.5346148  46.3984981  41.0152000  34.2775687  39.9773130
  40.1789312  34.6150373  40.2982404  40.8756769  34.1424667  39.0400267
  42.9905080  29.1212475  44.6852314  42.3369492  28.8061492  44.0608929
  42.9485554  28.4988215  45.4112137  44.1016285  39.4031770  36.6005606
  43.1943347  39.1721023  36.7996755  44.5987317  38.6069389  36.7879587
  47.0084364  48.1129277  39.5202292  46.3346063  48.4160974  40.1287250
  47.3950186  48.9158357  39.1707749  46.2242821  35.6094408  49.0099961
  45.3065382  35.8309355  48.8521650  46.6402964  35.6840719  48.1511669
  47.0077868  37.0085824  44.1402642  47.7549687  37.5207221  43.8309764
  47.2769458  36.6869877  45.0007035  45.2804518  39.5044365  41.1229596
  44.3715738  39.2203397  41.2202066  45.3099602  39.9243443  40.2632903
  50.5123786  43.1150954  44.8920764  50.0586113  42.2741864  44.9485954
  49.8817753  43.7512353  45.2295544  49.4556705  34.0442940  46.1221431
  48.7179462  33.5320326  46.4531674  49.7083479  33.6043322  45.3104708
  48.9556725  44.9527451  45.8270582  49.2479699  45.5132508  45.1082947
  49.4655346  45.2456012  46.5823741  49.5568333  26.8219192  46.7163200
  49.8627210  25.9616556  46.4289115  50.2820938  27.4136812  46.5162194
  35.8492689  37.2249879  45.1044798  35.6517089  36.6319240  44.3795865
  35.2939353  36.9202089  45.8220737  43.8289412  37.1172985  47.2239391
  43.8838022  36.1646822  47.1481868  43.0180615  37.2732424  47.7080690
  44.9780606  41.0453108  38.4617675  44.5400036  40.3288967  38.0023312
  45.7191047  41.2729223  37.9002766  41.7681772  35.7350045  44.9829770
  40.9549638  36.0344216  45.3894962  42.2640767  35.3405734  45.7004252
  43.9190350  45.7307802  46.9164035  43.8766529  45.9568648  45.9872567
  44.8353049  45.4971177  47.0649836  47.3655984  36.1991869  53.8144664
  47.7205372  36.4263343  54.6739130  48.0128115  36.5310246  53.1921919
  53.0953721  39.3210305  44.5193993  52.9571620  39.5111901  43.5915182
  52.7389940  40.0829688  44.9762044  41.2595847  33.3068401  50.5991005
  41.8995226  33.1657160  49.9013968  40.4273378  33.0202914  50.2229607
  53.1223101  41.3886832  49.5305265  53.5559607  41.2962121  50.3788319
  53.8354681  41.3644333  48.8925281  42.0356151  42.6070831  46.7125998
  42.8296750  42.1121151  46.5108573  41.3247843  42.0788694  46.3493703
  46.8550996  44.9888926  51.0638365  46.9088018  45.5579863  51.8316081
  45.9865777  45.1590812  50.6992402  38.3438915  36.7513913  42.7885750
  37.4136503  36.6898368  43.0055712  38.4396387  36.2289865  41.9922392
  38.2624464  33.2768726  45.3763992  38.5231281  34.1914059  45.2673152
  39.0841636  32.8093168  45.5260605  39.7349389  34.6906483  52.5462817
  40.4072442  34.4823845  51.8975465  38.9079175  34.4928569  52.1068049
  53.9838650  41.4310533  52.0638150  54.1774540  42.3356344  52.3097425
  53.8839268  40.9717952  52.8976735  45.6374961  31.3168424  54.5628477
  44.9902876  32.0158373  54.4692954  46.4075976  31.7504568  54.9304726
  49.0453759  41.5817276  57.6379031  48.8939265  41.3527827  56.7209114
  49.0358438  42.5387877  57.6510376  45.8139095  39.1549189  52.6225297
  46.7431155  39.3060348  52.4494264  45.3930125  39.2433209  51.7673944
  44.6127427  43.1799853  50.3923835  44.4738513  42.8118637  51.2649773
  43.8242023  43.6947492  50.2207793  45.2075579  48.2808949  41.7349371
  45.3827335  47.8096993  42.5494994  44.5208367  48.9074716  41.9630632
  46.1632642  42.5581456  47.7812673  45.8282475  42.5182226  48.6770322
  45.6636588  41.8926172  47.3083083  40.1376886  37.9649086  53.3065254
  39.9996684  37.2329325  53.9076793  41.0481810  37.8757986  53.0249441
  49.0991834  39.9037490  38.0549732  48.4821004  39.1784318  37.9582785
  48.6308322  40.6646850  37.7116806  42.7659187  37.6769045  52.7948933
  43.4758805  37.0362237  52.7535552  42.7228495  37.9281940  53.7175114
  50.7545966  44.6136398  55.7155513  50.6958512  43.9295618  55.0486096
  51.1565484  45.3555388  55.2636139  41.4788121  34.6634263  54.6144573
  40.9425478  34.2125001  55.2666169  40.8904829  34.7980172  53.8715037
  39.7736664  51.4298312  48.5089231  40.0133263  52.0616836  49.1868250
  38.9305861  51.0786352  48.7954591  40.8890380  34.1222914  37.1771036
  40.0119846  34.0011715  36.8133283  41.3648133  33.3308993  36.9249925
  50.7563373  42.5775982  53.9469492  49.8690152  42.2401904  54.0695891
  51.3261924  41.8459014  54.1838258  32.4092520  38.9100074  47.2712544
  33.0963560  38.5961804  46.6833559  32.2540649  39.8141439  46.9979795
  37.2127242  33.7990271  51.6997567  37.1285431  33.1915940  50.9647977
  36.3909948  34.2899289  51.7007064  44.2864526  47.2377435  50.9130735
  44.2134698  48.0432406  51.4250040  43.8441919  47.4369400  50.0878757
  44.0754306  46.4749205  44.4233557  43.2921828  47.0170885  44.5171781
  44.7747051  46.9923184  44.8227798  47.3850956  32.2843834  47.0667762
  47.8819655  31.5313796  46.7468833  46.6137937  32.3208151  46.5010972
  55.2380713  37.9884200  48.7086054  55.2270590  38.8708915  48.3379987
  54.3698093  37.6355750  48.5140591  46.7463210  47.1364269  53.0688894
  47.4591182  47.7711733  52.9964796  46.2553238  47.2328135  52.2528896
  48.4680737  41.0415521  44.6406186  47.5337015  41.1616984  44.4710890
  48.6457405  40.1387988  44.3766196  43.9685925  34.4261217  46.7939447
  43.5983712  33.8732257  47.4820353  44.4645017  33.8219351  46.2414447
  51.8553288  36.8832841  45.1756220  52.3213740  37.7160832  45.1016523
  52.3060788  36.4177822  45.8801478  41.7975123  44.8858712  53.8894465
  42.4984583  45.5195195  54.0423859  41.3270238  45.2273444  53.1290104
  49.9229519  43.2276662  42.1742372  50.1989363  43.1133256  43.0836246
  49.0534018  42.8294147  42.1354545  49.8269951  29.2513428  49.2147121
  48.9133030  29.4817654  49.3829328  50.2563052  29.3351872  50.0661154
  49.5976409  37.4403320  51.7147015  48.9447859  37.6879227  51.0599468
  49.9756789  36.6267458  51.3809493  46.5583583  47.4763013  45.8175186
  46.7405978  46.6584669  46.2802938  47.3816569  47.6930705  45.3800076
  46.8925749  46.4031198  43.0790234  47.4213515  45.8923652  42.4660396
  47.1553968  46.0873728  43.9435767  45.6463982  38.1823131  58.2013052
  44.9704619  38.0817260  58.8715428  46.4691616  38.0262344  58.6649050
  37.3942841  44.4195067  50.8225568  37.9796278  43.6738755  50.9553472
  37.1967680  44.7299024  51.7062231  40.2481497  47.4546315  45.8388010
  39.5791872  47.9392442  45.3552050  40.1094366  47.7015535  46.7531388
  31.9860496  36.9900667  49.5430011  32.0244596  36.4564258  50.3367129
  31.4800789  36.4635873  48.9240988  44.3886765  49.4890058  52.4370668
  44.9405073  49.6521680  53.2019754  44.7292959  50.0794496  51.7650693
  39.3651258  31.8365208  53.0392553  39.4292585  32.6980039  52.6269951
  39.3018379  31.2239210  52.3064912  38.8403531  33.9088340  56.6865587
  39.4675570  33.5265418  57.3003112  37.9831450  33.6902542  57.0521280
  49.2397639  44.3151316  58.2919323  49.7837543  44.9281274  57.7974278
  48.6584484  44.8730894  58.8086336  35.6169074  35.7164770  42.6183942
  35.9122515  34.8075448  42.5650996  34.7157109  35.6952509  42.2964944
  47.5255152  47.4372034  49.4234351  47.4006292  46.6361773  48.9145296
  48.1834243  47.9318227  48.9348320  39.1463321  33.7920766  48.6011491
  38.4249906  34.4056734  48.4618964  39.9356576  34.3278531  48.5228137
  49.5890061  45.2381054  51.0513901  48.6420396  45.1186405  50.9792227
  49.9372834  44.3503552  51.1340162  41.9489634  31.1275193  54.8752142
  42.4724036  31.3737489  55.6378452  41.7301967  31.9595227  54.4555280
  37.3456915  33.3978867  42.7423267  37.0169621  32.5176246  42.5598373
  37.6996286  33.3426536  43.6299657  46.5936494  45.0333770  47.2518253
  46.4461456  44.1050477  47.4325823  47.4189988  45.0553861  46.7675328
  40.4598738  33.6851837  43.1098745  40.7994811  34.2137758  42.3877353
  40.9070859  34.0232243  43.8857311  50.1970616  45.8562329  48.3383126
  51.1217163  45.6505190  48.2007577  50.0285919  45.6078730  49.2472467
  43.1542179  32.0688888  52.5601813  42.8139000  31.2696701  52.9622493
  42.4481185  32.3690599  51.9878646  43.8058651  29.1538200  51.0129136
  44.6284720  28.6798678  50.8908026  44.0496715  29.9328684  51.5127822
  42.4466885  32.1826459  41.3092038  43.1675248  32.5607711  40.8055755
  41.8232190  32.9015335  41.4127016  46.5898008  32.8871608  42.2450370
  46.8061623  33.7696245  41.9439198  46.1092076  32.4957821  41.5156012
  41.3297230  35.8457321  48.8221115  41.1841810  36.1597624  49.7145396
  40.8522433  36.4642221  48.2692013  43.1893613  32.8359869  48.8702004
  43.1755181  31.9400962  48.5334302  43.9066041  32.8430533  49.5040290
  45.0419743  33.2697209  50.9155132  44.7837521  34.1914280  50.9139462
  44.5104784  32.8727644  51.6055596  49.9865932  46.3747996  43.6945217
  50.1602810  45.8094419  42.9419069  50.4794823  47.1748891  43.5124707
  35.8042892  38.3862665  51.7608776  35.2596360  39.1622473  51.8929050
  36.6822242  38.7333470  51.6027897  42.5930509  31.7174249  44.1389574
  42.7146420  30.7890895  44.3380462  42.3032551  31.7312935  43.2267890
  45.4621699  29.4029159  47.2756294  45.4843396  29.4668493  46.3208274
  45.8789758  28.5633668  47.4696800  55.8405323  39.1384419  45.3135517
  56.2836469  38.3891744  44.9154640  54.9631834  39.1294555  44.9309249
  50.9741105  45.6914760  40.7942115  51.6692009  46.3121453  41.0129430
  51.3164255  44.8410112  41.0694493  36.5908914  37.5132561  54.6538933
  35.8490650  37.6615197  55.2403563  36.2701658  37.7740827  53.7905682
  52.8732528  43.1414466  42.3229446  53.3983852  43.4801739  41.5978766
  52.7854880  42.2061481  42.1392581  44.5352576  47.0548540  54.4519323
  44.8439703  46.8097686  55.3242022  45.3328058  47.2595178  53.9638193
  44.5573188  49.2086449  46.6824699  44.1178179  48.7162828  47.3757556
  45.3081305  48.6659417  46.4416774  37.0365527  45.3997990  46.6849327
  37.8623547  45.1001762  46.3047971  36.6859579  44.6305613  47.1339116
  42.0047061  44.7524458  48.7547001  41.3827070  44.0895163  48.4549229
  42.6751928  44.7785590  48.0720649  35.2374133  43.3184317  47.6438261
  34.4006041  42.8906491  47.4622262  35.2097778  43.5116760  48.5809052
  42.0771588  33.2306246  58.3479507  42.1259744  34.1068369  57.9657277
  42.6194102  32.6883639  57.7751150  52.5626434  43.7747370  57.6280644
  51.7721977  43.7571509  57.0885143  52.3259788  44.3135663  58.3829681
  52.6824309  40.6239836  54.9413373  52.7322314  40.4589843  55.8828895
  52.5738232  39.7567095  54.5511253  41.5660568  43.3028382  42.2305461
  41.7148688  43.9863846  41.5772134  42.3727011  43.2833472  42.7454917
  49.9728071  36.6070764  56.2572679  50.8737934  36.4677229  55.9656677
  50.0476046  36.7725219  57.1970857  44.3070877  33.9837619  55.1025866
  43.4374186  34.2771185  54.8308454  44.5430357  34.5678064  55.8233129
  54.1842506  43.0436778  55.1855394  53.8927314  43.4066758  56.0218855
  53.5714637  42.3303786  55.0068726  55.3838188  40.6089657  47.7057964
  56.2185079  41.0479461  47.8695525  55.5197317  40.1328311  46.8866210
  52.4329694  38.1669392  53.6535452  52.9083816  38.3597038  52.8454303
  51.5095259  38.2228578  53.4078836  39.3213201  39.3293559  43.2366530
  39.0759242  38.4255889  43.4346741  39.4909115  39.3310710  42.2946008
  47.0109910  30.2017236  52.6191286  47.5291854  30.9378263  52.2937775
  46.6565043  30.5081229  53.4538045  38.5908848  35.0621917  40.7352692
  37.8978093  35.1366272  40.0792728  38.3460600  34.2982261  41.2574209
  47.2622505  26.6217518  48.1392183  47.5424258  25.9540707  48.7652609
  48.0473111  26.8146614  47.6266846  45.0655973  45.7976512  39.7017209
  44.4929940  46.4166699  39.2487681  45.6388767  46.3475874  40.2357131
  51.1331363  35.0435152  51.8863758  52.0848786  35.1433250  51.9075982
  50.9634813  34.2513421  52.3961842  49.1545742  32.1290735  52.0723159
  48.5595674  32.4095748  51.3769647  48.8695439  32.6184636  52.8439900
  48.2853233  46.0813662  40.8325791  49.2183906  46.0159224  41.0358667
  48.1976446  46.9169929  40.3740324  50.9141250  45.3979533  37.7929739
  50.8354881  45.0639396  38.6865497  51.7350916  45.8901301  37.7921211
  53.6119441  38.2641272  51.0006057  53.5795761  37.3257273  51.1865741
  54.2220064  38.3425309  50.2671882  45.4502772  37.1337325  37.0433261
  46.3961876  37.0043533  37.1121679  45.0717017  36.3951987  37.5202690
  53.7613929  35.0552315  51.0464341  53.2452978  34.2710772  50.8594269
  54.6453878  34.7271032  51.2110860  51.4224656  28.7993331  47.0060153
  51.2249477  28.4908419  47.8903485  52.0324362  29.5254970  47.1358083
  59.4295991  39.3257279  50.1412094  60.1599379  39.0642567  50.7019797
  58.8202936  38.5886001  50.1814162  57.5111288  37.4665141  50.7386545
  56.7844451  37.3321106  50.1303037  57.0958575  37.7741970  51.5443263
  45.3341464  41.1855071  58.5033918  46.2544474  41.3633670  58.6973965
  45.2991047  40.2411116  58.3513618  43.6345689  35.0587301  36.9788147
  42.7277144  34.7620414  37.0550860  43.9121670  34.7617119  36.1122433
  34.5523629  36.3793665  47.4287193  34.2326413  35.5258973  47.1361567
  34.0057057  36.5942243  48.1845160  38.3303537  39.0956106  51.1456700
  38.5489546  40.0273214  51.1644733  38.7429310  38.7364080  51.9311503
  45.2507754  29.6024191  43.1332388  44.4408483  29.2571276  43.5087634
  45.9392171  29.2931735  43.7219999  47.1798303  28.6802238  44.7556685
  47.7329341  29.0997691  45.4146708  47.4168389  27.7537986  44.7979641
  43.2031402  34.6689311  60.5359448  43.1028129  35.6183668  60.4671540
  42.9852944  34.3407550  59.6635519  42.4044473  31.9174237  37.1200126
  43.2663637  32.2429135  37.3795943  42.5894817  31.1305732  36.6073192
  34.4211889  39.9996576  49.3980315  33.7275361  39.5850529  48.8850269
  35.1684880  40.0417113  48.8013733  50.5577110  30.7902763  44.2635349
  49.9775779  31.4487567  43.8813401  50.2913042  29.9680108  43.8522766
  49.0080676  30.1907821  46.4656669  49.5080455  30.3024355  45.6570988
  49.6516284  29.8868874  47.1057478  43.0662672  38.0986450  59.3524510
  42.5829754  38.8986810  59.5588399  43.1523611  38.1094395  58.3991954
  36.3348632  39.9314830  47.2746329  36.3119320  40.0302517  46.3228213
  36.6449268  40.7779981  47.5963496  38.9936010  41.9890985  51.3892944
  39.9479263  41.9574927  51.3222875  38.7948533  41.5281609  52.2043170
  39.5835392  40.5592101  53.9563742  40.4028281  41.0536180  53.9798579
  39.8572199  39.6424069  53.9281309  49.3401988  32.9502853  43.3191697
  48.4527843  33.2352504  43.1011892  49.7555977  32.7896617  42.4718974
  52.6916524  32.9749374  47.0346036  53.4676914  33.4645827  47.3070653
  51.9664658  33.4007429  47.4917906  55.1289083  33.6876994  48.0919977
  55.7233573  33.4472730  47.3813285  55.2015666  32.9684124  48.7193513
  37.3486238  47.5310605  48.4063142  37.2140706  46.7711005  47.8401140
  36.9318301  48.2551504  47.9391931  48.4845201  42.7147528  37.4139717
  49.1881051  42.9197531  38.0297373  47.7607850  43.2824290  37.6788801
  49.3143012  38.4657389  43.5341987  49.2578213  38.9225941  42.6949620
  49.8671354  37.7048074  43.3564830  53.1247817  34.2547121  44.3592107
  52.8684752  33.8543757  45.1900314  52.5000686  34.9690915  44.2342246
  57.4360155  36.9943194  46.8663398  56.8759713  37.0636384  47.6394960
  56.8303659  36.8184179  46.1462894  40.5055364  48.4279922  48.6181584
  40.3887748  49.3725354  48.5160275  39.6847810  48.1253483  49.0067384
  50.3931899  43.1530057  39.4638177  51.2277503  42.7211256  39.2815652
  50.2316242  42.9812071  40.3915072  50.0477791  39.6562171  40.8294516
  49.9926595  39.4906442  39.8882961  49.4223846  40.3638203  40.9856706
  34.8370306  34.8930235  54.6555939  35.4829169  34.3829189  55.1443164
  34.6287457  35.6298917  55.2299364  47.3623698  41.9611082  60.1548079
  48.2314858  42.1351735  59.7934714  46.8830450  42.7805499  60.0323809
  43.3573916  29.1570280  40.4079835  43.3452586  30.1012119  40.5648106
  44.2497338  28.9740425  40.1139296  41.5309878  49.0808183  51.8337513
  42.4337125  49.1131794  52.1504008  41.3047248  48.1508634  51.8483849
  43.2863480  47.8339170  48.4947591  42.3359111  47.8341032  48.3811964
  43.5895966  47.0871905  47.9783626  47.1726036  25.7513056  44.6625772
  46.4058432  25.1971543  44.8082454  47.5836741  25.8234925  45.5239923
  39.1767797  32.0397852  58.7530953  40.0399258  31.6834657  58.9634277
  38.6033208  31.7011747  59.4406357  59.0216174  53.6699708  49.5593354
  59.6594584  53.5506456  48.8556694  58.9037017  54.6180552  49.6181306
  55.8305880  53.6227136  49.4954879  55.4924392  53.5068201  48.6075413
  56.6995648  53.2218302  49.4755885  51.6892696  55.4762613  45.4851769
  51.1257561  55.3852550  44.7168057  51.5745091  54.6562517  45.9654262
  56.3125663  54.7761988  55.4541084  56.3014304  54.3814786  54.5821588
  56.4746303  54.0428061  56.0474856  49.2357128  56.9713804  48.3235990
  50.0278420  56.6304629  47.9082289  49.4753778  57.0808780  49.2438143
  57.2692254  59.1433581  40.7966234  56.6180234  59.7287661  40.4100248
  58.0636617  59.6739775  40.8561272  51.1947882  56.2322718  41.1953369
  51.9678758  55.6851705  41.0566245  51.5473281  57.0966967  41.4067830
  53.0332924  57.5599100  54.4020268  52.7422790  58.4644731  54.2866934
  53.6689909  57.6015628  55.1164338  53.9589131  54.9375949  50.9921628
  54.5552703  54.7131971  50.2778591  54.0164103  54.1960694  51.5947076
  53.5314159  52.3915384  38.8271819  53.7839680  51.8696905  38.0655282
  52.5938719  52.2281529  38.9298502  58.7467520  56.8324013  41.3335219
  58.1113353  56.9058639  42.0456123  58.4164926  57.4217611  40.6554298
  53.2510448  54.2943490  41.0296194  53.1346706  53.6188393  41.6977278
  53.3612708  53.8075864  40.2128347  55.5941989  53.7553637  44.7342883
  55.2300196  53.2284258  45.4455804  56.4509105  53.3652106  44.5609368
  61.4991290  45.0447970  51.9974149  61.1674615  45.9143380  51.7735364
  60.9036903  44.7284254  52.6768179  57.9922809  57.2460516  51.3970062
  57.6923532  58.1485554  51.2885869  57.6473869  56.9792699  52.2491215
  51.4435291  53.6974312  47.4306766  50.5185787  53.5650526  47.6384458
  51.6919704  54.4768532  47.9276709  61.3919953  49.7643056  49.0767499
  60.4836830  49.6958464  48.7826260  61.3407549  50.2415001  49.9049325
  48.8044102  53.3407586  48.2650555  48.9336483  53.5942065  49.1789967
  48.1241553  53.9335294  47.9455210  52.9743589  64.0104836  44.3641029
  52.8967619  64.9612661  44.4429510  52.3705233  63.6650708  45.0215956
  59.1962531  56.1347295  55.1792525  59.6045887  55.6929706  54.4347157
  58.4739792  55.5599923  55.4326718  55.5493601  51.0719902  52.5526082
  56.3954796  51.4959315  52.6960731  55.4892239  50.4153526  53.2464645
  59.5191345  56.6948486  48.9344814  58.8900208  56.8594200  48.2320882
  59.1317008  57.1090095  49.7055778  58.6993046  48.7324270  54.2107255
  58.4553978  49.4866331  53.6741531  58.9752977  49.1109618  55.0454502
  60.6531509  55.2762883  52.8884521  60.8648404  55.9194643  52.2118902
  60.6061257  54.4425199  52.4206451  58.2557738  47.8880703  49.7921093
  57.3942217  48.1861957  50.0837831  58.2820173  48.1051102  48.8602126
  55.0719307  56.4322894  46.1994899  55.5357653  56.7110597  45.4099521
  54.8076105  55.5306338  46.0167989  51.9643388  55.9794375  49.1374662
  52.5344745  56.4081644  48.4992147  52.5551500  55.6976960  49.8358848
  47.7513527  50.8129599  48.3101597  46.9612581  51.0687127  47.8341708
  48.2424775  51.6277937  48.4153638  61.7677337  58.1534838  51.0606878
  62.5894781  57.7515025  50.7789560  61.7639740  58.0503072  52.0122994
  49.7028273  51.1774178  45.2685074  48.9059436  51.2892872  45.7868570
  49.4753865  51.5160830  44.4025965  55.5333940  57.7018881  53.2167589
  55.5978373  58.1639289  54.0525761  54.8244864  57.0716246  53.3449899
  46.0351230  51.0660089  50.7416588  46.2859269  51.9507099  51.0074164
  46.5710779  50.8864691  49.9691680  69.8583330  54.4973587  47.4091850
  69.1047038  53.9280985  47.2535854  69.9930871  54.4636251  48.3562484
  55.2481958  59.3686989  43.0846569  55.1127633  60.2138525  43.5131417
  55.7891771  59.5706266  42.3212503  48.7011355  56.8862427  43.6574494
  49.2135876  57.6805677  43.8080059  49.3534068  56.1888717  43.5908096
  50.5106240  60.0028183  45.7397247  50.6872868  60.9246148  45.5518231
  51.3063074  59.6886602  46.1691627  54.6517259  46.8636448  57.3381181
  55.3926972  47.4643601  57.2585643  54.8835181  46.1214086  56.7799223
  49.7958597  52.0492815  55.6159411  49.6812112  51.1478072  55.9166510
  48.9403114  52.2956512  55.2644227  56.8750434  59.9910555  57.2146911
  56.4314289  59.2046934  56.8967816  57.5367648  60.1789706  56.5490802
  51.6337556  61.5206357  51.7407590  52.1844981  61.3923420  50.9684584
  50.7949031  61.8201246  51.3902483  58.9731672  60.2713355  55.2428313
  58.9550148  61.0922236  54.7508582  59.8951593  60.1467430  55.4678454
  55.4304727  57.7857485  56.0851821  55.9633063  57.0245773  55.8551129
  54.9018808  57.4931137  56.8275975  58.5974422  42.8917551  51.6145463
  58.2538691  43.7819192  51.5384573  58.9653384  42.7019208  50.7515048
  46.6660272  55.2151081  44.4334065  47.5035494  55.6248090  44.2167772
  46.8438540  54.2750523  44.4034259  56.1471815  47.7275863  45.1803136
  55.2913412  47.3382713  45.0008775  56.5598767  47.8067823  44.3202922
  57.6770962  45.2622206  49.5794696  57.1735758  45.2252341  48.7662501
  57.9701569  46.1714949  49.6391353  53.9213848  45.3460936  48.5860878
  54.7866845  45.1503744  48.2266767  53.9891357  45.1171287  49.5130234
  63.5358978  55.6358516  42.0571071  62.7588421  55.2969676  41.6126233
  64.2150459  55.6411140  41.3826036  56.7957439  56.9143477  43.5970633
  56.2678801  56.1796237  43.2843870  56.2944942  57.6918154  43.3510601
  61.7750285  55.1092498  48.7137679  61.1173960  55.7991759  48.8017808
  62.5790685  55.4988930  49.0571666  51.5276167  47.5763144  45.9577244
  52.1019919  47.3538325  45.2250437  52.1147149  47.6451838  46.7105846
  60.5855744  53.4636870  46.7641621  61.0987626  54.0966862  47.2663331
  61.2356968  52.8638066  46.3984981  51.8545754  49.6067605  39.9773130
  51.0183066  49.9442291  40.2982404  51.7150524  49.4716584  39.0400267
  53.8298835  44.4504392  44.6852314  53.1763247  44.1353410  44.0608929
  53.7879309  43.8280133  45.4112137  54.9410039  54.7323687  36.6005606
  54.0337101  54.5012941  36.7996755  55.4381071  53.9361307  36.7879587
  57.8478118  63.4421195  39.5202292  57.1739817  63.7452891  40.1287250
  58.2343940  64.2450275  39.1707749  57.0636575  50.9386326  49.0099961
  56.1459136  51.1601273  48.8521650  57.4796719  51.0132636  48.1511669
  59.7950480  60.2819369  45.8270582  60.0873454  60.8424426  45.1082947
  60.3049100  60.5747930  46.5823741  46.6886443  52.5541796  45.1044798
  46.4910843  51.9611157  44.3795865  46.1333107  52.2494007  45.8220737
  54.6683167  52.4464903  47.2239391  54.7231777  51.4938739  47.1481868
  53.8574369  52.6024342  47.7080690  55.8174361  56.3745026  38.4617675
  55.3793791  55.6580885  38.0023312  56.5584802  56.6021141  37.9002766
  52.6075527  51.0641963  44.9829770  51.7943392  51.3636133  45.3894962
  53.1034521  50.6697651  45.7004252  54.7584105  61.0599720  46.9164035
  54.7160284  61.2860566  45.9872567  55.6746804  60.8263094  47.0649836
  58.2049739  51.5283787  53.8144664  58.5599126  51.7555260  54.6739130
  58.8521870  51.8602164  53.1921919  63.9347476  54.6502223  44.5193993
  63.7965374  54.8403819  43.5915182  63.5783694  55.4121606  44.9762044
  52.0989602  48.6360318  50.5991005  52.7388981  48.4949077  49.9013968
  51.2667132  48.3494832  50.2229607  52.8749906  57.9362749  46.7125998
  53.6690504  57.4413069  46.5108573  52.1641598  57.4080612  46.3493703
  57.6944750  60.3180844  51.0638365  57.7481772  60.8871780  51.8316081
  56.8259531  60.4882729  50.6992402  49.1832669  52.0805830  42.7885750
  48.2530257  52.0190286  43.0055712  49.2790141  51.5581783  41.9922392
  49.1018218  48.6060643  45.3763992  49.3625035  49.5205976  45.2673152
  49.9235390  48.1385086  45.5260605  50.5743143  50.0198400  52.5462817
  51.2466197  49.8115763  51.8975465  49.7472930  49.8220486  52.1068049
  64.8232405  56.7602451  52.0638150  65.0168295  57.6648261  52.3097425
  64.7233023  56.3009870  52.8976735  56.4768715  46.6460341  54.5628477
  55.8296630  47.3450291  54.4692954  57.2469731  47.0796485  54.9304726
  56.6532850  54.4841106  52.6225297  57.5824910  54.6352266  52.4494264
  56.2323880  54.5725127  51.7673944  55.4521182  58.5091771  50.3923835
  55.3132267  58.1410555  51.2649773  54.6635778  59.0239410  50.2207793
  56.0469334  63.6100867  41.7349371  56.2221089  63.1388910  42.5494994
  55.3602122  64.2366633  41.9630632  57.0026397  57.8873373  47.7812673
  56.6676229  57.8474143  48.6770322  56.5030342  57.2218089  47.3083083
  50.9770641  53.2941003  53.3065254  50.8390439  52.5621242  53.9076793
  51.8875564  53.2049903  53.0249441  53.6052941  53.0060963  52.7948933
  54.3152560  52.3654155  52.7535552  53.5622249  53.2573858  53.7175114
  52.3181875  49.9926181  54.6144573  51.7819232  49.5416919  55.2666169
  51.7298584  50.1272089  53.8715037  50.6130419  66.7590230  48.5089231
  50.8527017  67.3908754  49.1868250  49.7699615  66.4078270  48.7954591
  51.7284134  49.4514832  37.1771036  50.8513601  49.3303633  36.8133283
  52.2041887  48.6600910  36.9249925  61.5957127  57.9067900  53.9469492
  60.7083906  57.5693822  54.0695891  62.1655678  57.1750931  54.1838258
  43.2486274  54.2391992  47.2712544  43.9357314  53.9253722  46.6833559
  43.0934403  55.1433356  46.9979795  48.0520997  49.1282188  51.6997567
  47.9679185  48.5207858  50.9647977  47.2303703  49.6191207  51.7007064
  55.1258281  62.5669352  50.9130735  55.0528452  63.3724324  51.4250040
  54.6835674  62.7661318  50.0878757  54.9148060  61.8041122  44.4233557
  54.1315582  62.3462803  44.5171781  55.6140805  62.3215102  44.8227798
  58.2244710  47.6135752  47.0667762  58.7213410  46.8605714  46.7468833
  57.4531692  47.6500068  46.5010972  66.0774468  53.3176117  48.7086054
  66.0664344  54.2000833  48.3379987  65.2091847  52.9647668  48.5140591
  57.5856964  62.4656186  53.0688894  58.2984936  63.1003651  52.9964796
  57.0946993  62.5620052  52.2528896  59.3074491  56.3707439  44.6406186
  58.3730770  56.4908901  44.4710890  59.4851160  55.4679906  44.3766196
  54.8079679  49.7553135  46.7939447  54.4377467  49.2024175  47.4820353
  55.3038772  49.1511268  46.2414447  52.6368878  60.2150630  53.8894465
  53.3378337  60.8487113  54.0423859  52.1663993  60.5565361  53.1290104
  60.7623274  58.5568580  42.1742372  61.0383117  58.4425174  43.0836246
  59.8927772  58.1586064  42.1354545  60.6663705  44.5805345  49.2147121
  59.7526785  44.8109572  49.3829328  61.0956807  44.6643789  50.0661154
  60.4370164  52.7695237  51.7147015  59.7841614  53.0171145  51.0599468
  60.8150544  51.9559375  51.3809493  57.3977338  62.8054930  45.8175186
  57.5799732  61.9876586  46.2802938  58.2210324  63.0222623  45.3800076
  57.7319503  61.7323116  43.0790234  58.2607269  61.2215570  42.4660396
  57.9947723  61.4165646  43.9435767  48.2336596  59.7486985  50.8225568
  48.8190033  59.0030673  50.9553472  48.0361434  60.0590942  51.7062231
  51.0875251  62.7838232  45.8388010  50.4185626  63.2684360  45.3552050
  50.9488121  63.0307453  46.7531388  42.8254251  52.3192585  49.5430011
  42.8638350  51.7856176  50.3367129  42.3194543  51.7927791  48.9240988
  55.2280520  64.8181976  52.4370668  55.7798828  64.9813597  53.2019754
  55.5686713  65.4086414  51.7650693  50.2045013  47.1657126  53.0392553
  50.2686339  48.0271956  52.6269951  50.1412133  46.5531127  52.3064912
  49.6797285  49.2380258  56.6865587  50.3069324  48.8557335  57.3003112
  48.8225204  49.0194460  57.0521280  60.0791394  59.6443233  58.2919323
  60.6231298  60.2573192  57.7974278  59.4978239  60.2022812  58.8086336
  46.4562828  51.0456687  42.6183942  46.7516269  50.1367366  42.5650996
  45.5550864  51.0244427  42.2964944  58.3648907  62.7663951  49.4234351
  58.2400046  61.9653691  48.9145296  59.0227998  63.2610145  48.9348320
  49.9857075  49.1212684  48.6011491  49.2643661  49.7348651  48.4618964
  50.7750331  49.6570449  48.5228137  60.4283815  60.5672971  51.0513901
  59.4814151  60.4478323  50.9792227  60.7766588  59.6795469  51.1340162
  52.7883389  46.4567110  54.8752142  53.3117790  46.7029407  55.6378452
  52.5695722  47.2887145  54.4555280  48.1850670  48.7270785  42.7423267
  47.8563376  47.8468164  42.5598373  48.5390040  48.6718454  43.6299657
  57.4330249  60.3625688  47.2518253  57.2855211  59.4342395  47.4325823
  58.2583742  60.3845778  46.7675328  51.2992493  49.0143755  43.1098745
  51.6388565  49.5429676  42.3877353  51.7464613  49.3524161  43.8857311
  53.9935934  47.3980805  52.5601813  53.6532754  46.5988618  52.9622493
  53.2874940  47.6982516  51.9878646  54.6452405  44.4830118  51.0129136
  55.4678475  44.0090596  50.8908026  54.8890469  45.2620602  51.5127822
  52.1690984  51.1749238  48.8221115  52.0235565  51.4889542  49.7145396
  51.6916188  51.7934139  48.2692013  54.0287367  48.1651786  48.8702004
  54.0148936  47.2692880  48.5334302  54.7459795  48.1722450  49.5040290
  55.8813498  48.5989127  50.9155132  55.6231276  49.5206197  50.9139462
  55.3498538  48.2019561  51.6055596  60.8259687  61.7039914  43.6945217
  60.9996564  61.1386336  42.9419069  61.3188578  62.5040809  43.5124707
  46.6436646  53.7154583  51.7608776  46.0990114  54.4914391  51.8929050
  47.5215996  54.0625387  51.6027897  53.4324263  47.0466167  44.1389574
  53.5540174  46.1182813  44.3380462  53.1426305  47.0604853  43.2267890
  56.3015453  44.7321077  47.2756294  56.3237150  44.7960410  46.3208274
  56.7183512  43.8925586  47.4696800  66.6799078  54.4676337  45.3135517
  67.1230224  53.7183662  44.9154640  65.8025588  54.4586473  44.9309249
  61.8134859  61.0206678  40.7942115  62.5085764  61.6413371  41.0129430
  62.1558009  60.1702029  41.0694493  47.4302668  52.8424479  54.6538933
  46.6884404  52.9907114  55.2403563  47.1095413  53.1032745  53.7905682
  63.7126282  58.4706384  42.3229446  64.2377606  58.8093656  41.5978766
  63.6248635  57.5353399  42.1392581  55.3746331  62.3840457  54.4519323
  55.6833457  62.1389604  55.3242022  56.1721813  62.5887096  53.9638193
  55.3966943  64.5378367  46.6824699  54.9571933  64.0454746  47.3757556
  56.1475060  63.9951335  46.4416774  47.8759282  60.7289908  46.6849327
  48.7017302  60.4293680  46.3047971  47.5253334  59.9597530  47.1339116
  52.8440815  60.0816376  48.7547001  52.2220824  59.4187081  48.4549229
  53.5145682  60.1077508  48.0720649  46.0767887  58.6476234  47.6438261
  45.2399795  58.2198409  47.4622262  46.0491532  58.8408678  48.5809052
  52.4054322  58.6320299  42.2305461  52.5542442  59.3155764  41.5772134
  53.2120765  58.6125389  42.7454917  55.1464631  49.3129536  55.1025866
  54.2767940  49.6063103  54.8308454  55.3824111  49.8969981  55.8233129
  65.0236260  58.3728695  55.1855394  64.7321068  58.7358676  56.0218855
  64.4108391  57.6595704  55.0068726  66.2231942  55.9381575  47.7057964
  67.0578834  56.3771379  47.8695525  66.3591071  55.4620228  46.8866210
  63.2723448  53.4961310  53.6535452  63.7477570  53.6888956  52.8454303
  62.3489014  53.5520496  53.4078836  50.1606955  54.6585477  43.2366530
  49.9152997  53.7547807  43.4346741  50.3302870  54.6602627  42.2946008
  57.8503665  45.5309153  52.6191286  58.3685609  46.2670180  52.2937775
  57.4958798  45.8373147  53.4538045  49.4302603  50.3913835  40.7352692
  48.7371847  50.4658190  40.0792728  49.1854354  49.6274178  41.2574209
  58.1016259  41.9509436  48.1392183  58.3818013  41.2832625  48.7652609
  58.8866866  42.1438532  47.6266846  55.9049728  61.1268430  39.7017209
  55.3323695  61.7458617  39.2487681  56.4782521  61.6767792  40.2357131
  61.9725117  50.3727070  51.8863758  62.9242540  50.4725168  51.9075982
  61.8028568  49.5805338  52.3961842  59.9939497  47.4582653  52.0723159
  59.3989429  47.7387666  51.3769647  59.7089194  47.9476554  52.8439900
  59.1246987  61.4105580  40.8325791  60.0577660  61.3451142  41.0358667
  59.0370200  62.2461847  40.3740324  61.7535004  60.7271450  37.7929739
  61.6748636  60.3931314  38.6865497  62.5744671  61.2193218  37.7921211
  64.4513195  53.5933190  51.0006057  64.4189515  52.6549190  51.1865741
  65.0613819  53.6717226  50.2671882  56.2896526  52.4629243  37.0433261
  57.2355631  52.3335451  37.1121679  55.9110771  51.7243905  37.5202690
  54.4739443  50.3879219  36.9788147  53.5670899  50.0912332  37.0550860
  54.7515424  50.0909037  36.1122433  45.3917384  51.7085582  47.4287193
  45.0720168  50.8550891  47.1361567  44.8450812  51.9234161  48.1845160
  49.1697291  54.4248023  51.1456700  49.3883301  55.3565131  51.1644733
  49.5823065  54.0655998  51.9311503  56.0901509  44.9316109  43.1332388
  55.2802237  44.5863194  43.5087634  56.7785926  44.6223652  43.7219999
  58.0192057  44.0094156  44.7556685  58.5723096  44.4289609  45.4146708
  58.2562144  43.0829904  44.7979641  45.2605644  55.3288494  49.3980315
  44.5669115  54.9142447  48.8850269  46.0078635  55.3709030  48.8013733
  59.8474431  45.5199738  46.4656669  60.3474209  45.6316273  45.6570988
  60.4910039  45.2160791  47.1057478  47.1742386  55.2606748  47.2746329
  47.1513074  55.3594435  46.3228213  47.4843023  56.1071898  47.5963496
  49.8329764  57.3182903  51.3892944  50.7873018  57.2866845  51.3222875
  49.6342288  56.8573526  52.2043170  50.4229146  55.8884019  53.9563742
  51.2422035  56.3828097  53.9798579  50.6965954  54.9715987  53.9281309
  48.1879993  62.8602522  48.4063142  48.0534461  62.1002923  47.8401140
  47.7712055  63.5843422  47.9391931  59.3238956  58.0439446  37.4139717
  60.0274806  58.2489448  38.0297373  58.6001605  58.6116208  37.6788801
  51.3449119  63.7571839  48.6181584  51.2281503  64.7017272  48.5160275
  50.5241565  63.4545401  49.0067384  61.2325653  58.4821975  39.4638177
  62.0671257  58.0503173  39.2815652  61.0709996  58.3103989  40.3915072
  45.6764060  50.2222153  54.6555939  46.3222924  49.7121107  55.1443164
  45.4681211  50.9590834  55.2299364  54.1967671  44.4862197  40.4079835
  54.1846341  45.4304037  40.5648106  55.0891093  44.3032343  40.1139296
  52.3703633  64.4100101  51.8337513  53.2730879  64.4423711  52.1504008
  52.1441003  63.4800552  51.8483849  54.1257235  63.1631088  48.4947591
  53.1752866  63.1632949  48.3811964  54.4289721  62.4163822  47.9783626
  58.0119790  41.0804974  44.6625772  57.2452186  40.5263461  44.8082454
  58.4230495  41.1526843  45.5239923  50.0161551  47.3689770  58.7530953
  50.8793013  47.0126575  58.9634277  49.4426962  47.0303665  59.4406357
  62.0341636  71.5614635  41.1953369  62.8072512  71.0143622  41.0566245
  62.3867035  72.4258885  41.4067830  64.3707914  67.7207302  38.8271819
  64.6233435  67.1988823  38.0655282  63.4332473  67.5573447  38.9298502
  64.0904203  69.6235407  41.0296194  63.9740461  68.9480311  41.6977278
  64.2006463  69.1367781  40.2128347  66.0741231  64.1135454  39.7304231
  66.2415633  64.9815691  40.0974702  65.8838400  64.2762736  38.8065521
  63.8137344  79.3396754  44.3641029  63.7361373  80.2904579  44.4429510
  63.2098987  78.9942626  45.0215956  56.8744985  66.3952007  50.7416588
  57.1253023  67.2799017  51.0074164  57.4104533  66.2156609  49.9691680
  66.0875712  74.6978906  43.0846569  65.9521387  75.5430442  43.5131417
  66.6285525  74.8998184  42.3212503  59.5405110  72.2154345  43.6574494
  60.0529630  73.0097595  43.8080059  60.1927823  71.5180635  43.5908096
  57.5054027  70.5442999  44.4334065  58.3429249  70.9540007  44.2167772
  57.6832294  69.6042441  44.4034259  62.6939509  64.9359522  39.9773130
  61.8576821  65.2734209  40.2982404  62.5544278  64.8008502  39.0400267
  65.7803794  70.0615605  36.6005606  64.8730856  69.8304859  36.7996755
  66.2774826  69.2653224  36.7879587  68.6871873  78.7713112  39.5202292
  68.0133572  79.0744809  40.1287250  69.0737695  79.5742193  39.1707749
  59.9411973  63.9352561  45.3763992  60.2018790  64.8497894  45.2673152
  60.7629145  63.4677003  45.5260605  66.8863088  78.9392785  41.7349371
  67.0614844  78.4680828  42.5494994  66.1995876  79.5658551  41.9630632
  61.4524173  82.0882148  48.5089231  61.6920772  82.7200672  49.1868250
  60.6093370  81.7370188  48.7954591  62.5677889  64.7806750  37.1771036
  61.6907355  64.6595550  36.8133283  63.0435642  63.9892828  36.9249925
  54.0880029  69.5683909  47.2712544  54.7751069  69.2545639  46.6833559
  53.9328158  70.4725274  46.9979795  65.9652035  77.8961270  50.9130735
  65.8922207  78.7016241  51.4250040  65.5229428  78.0953236  50.0878757
  65.7541815  77.1333040  44.4233557  64.9709337  77.6754720  44.5171781
  66.4534560  77.6507020  44.8227798  68.2371092  78.1346848  45.8175186
  68.4193487  77.3168504  46.2802938  69.0604078  78.3514540  45.3800076
  68.5713258  77.0615033  43.0790234  69.1001024  76.5507488  42.4660396
  68.8341477  76.7457563  43.9435767  61.9269005  78.1130150  45.8388010
  61.2579381  78.5976278  45.3552050  61.7881875  78.3599370  46.7531388
  53.6648005  67.6484503  49.5430011  53.7032105  67.1148093  50.3367129
  53.1588298  67.1219708  48.9240988  66.0674274  80.1473893  52.4370668
  66.6192582  80.3105515  53.2019754  66.4080468  80.7378331  51.7650693
  57.2956583  66.3748605  42.6183942  57.5910024  65.4659283  42.5650996
  56.3944618  66.3536344  42.2964944  69.2042661  78.0955869  49.4234351
  69.0793801  77.2945609  48.9145296  69.8621752  78.5902062  48.9348320
  59.0244424  64.0562703  42.7423267  58.6957130  63.1760081  42.5598373
  59.3783795  64.0010371  43.6299657  64.1254394  62.8410294  41.3092038
  64.8462757  63.2191547  40.8055755  63.5019699  63.5599171  41.4127016
  71.6653441  77.0331831  43.6945217  71.8390319  76.4678254  42.9419069
  72.1582332  77.8332726  43.5124707  57.4830401  69.0446501  51.7608776
  56.9383869  69.8206308  51.8929050  58.3609751  69.3917305  51.6027897
  66.2360697  79.8670285  46.6824699  65.7965688  79.3746663  47.3757556
  66.9868814  79.3243252  46.4416774  63.2448077  73.9612217  42.2305461
  63.3936197  74.6447681  41.5772134  64.0514520  73.9417307  42.7454917
  60.2696357  65.7205752  40.7352692  59.5765602  65.7950107  40.0792728
  60.0248109  64.9566096  41.2574209  66.7443482  76.4560348  39.7017209
  66.1717449  77.0750535  39.2487681  67.3176276  77.0059709  40.2357131
  69.9640742  76.7397498  40.8325791  70.8971415  76.6743059  41.0358667
  69.8763955  77.5753765  40.3740324  72.5928758  76.0563368  37.7929739
  72.5142390  75.7223232  38.6865497  73.4138425  76.5485136  37.7921211
  67.1290281  67.7921160  37.0433261  68.0749385  67.6627368  37.1121679
  66.7504525  67.0535822  37.5202690  65.3133198  65.7171137  36.9788147
  64.4064653  65.4204249  37.0550860  65.5909179  65.4200955  36.1122433
  56.2311138  67.0377500  47.4287193  55.9113922  66.1842808  47.1361567
  55.6844566  67.2526078  48.1845160  68.8585812  59.3386073  44.7556685
  69.4116850  59.7581527  45.4146708  69.0955898  58.4121821  44.7979641
  64.0831982  62.5758072  37.1200126  64.9451146  62.9012970  37.3795943
  64.2682326  61.7889568  36.6073192  56.0999398  70.6580412  49.3980315
  55.4062870  70.2434364  48.8850269  56.8472389  70.7000948  48.8013733
  58.0136141  70.5898665  47.2746329  57.9906829  70.6886353  46.3228213
  58.3236777  71.4363816  47.5963496  59.0273747  78.1894440  48.4063142
  58.8928215  77.4294841  47.8401140  58.6105810  78.9135340  47.9391931
  70.1632710  73.3731363  37.4139717  70.8668560  73.5781366  38.0297373
  69.4395359  73.9408125  37.6788801  62.1842873  79.0863757  48.6181584
  62.0675257  80.0309189  48.5160275  61.3635319  78.7837318  49.0067384
  56.5157815  65.5514070  54.6555939  57.1616678  65.0413024  55.1443164
  56.3074966  66.2882752  55.2299364  65.0361425  59.8154115  40.4079835
  65.0240095  60.7595955  40.5648106  65.9284847  59.6324260  40.1139296
  63.2097387  79.7392019  51.8337513  64.1124634  79.7715629  52.1504008
  62.9834757  78.8092470  51.8483849  64.9650989  78.4923005  48.4947591
  64.0146620  78.4924867  48.3811964  65.2683475  77.7455740  47.9783626
  80.7003683  84.3283544  49.5593354  81.3382093  84.2090291  48.8556694
  80.5824526  85.2764388  49.6181306  77.5093389  84.2810972  49.4954879
  77.1711901  84.1652037  48.6075413  78.3783157  83.8802137  49.4755885
  73.3680205  86.1346448  45.4851769  72.8045070  86.0436385  44.7168057
  73.2532600  85.3146353  45.9654262  77.9913172  85.4345824  55.4541084
  77.9801813  85.0398622  54.5821588  78.1533812  84.7011896  56.0474856
  70.9144637  87.6297640  48.3235990  71.7065929  87.2888464  47.9082289
  71.1541287  87.7392615  49.2438143  78.9479763  89.8017416  40.7966234
  78.2967743  90.3871496  40.4100248  79.7424126  90.3323611  40.8561272
  72.8735391  86.8906553  41.1953369  73.6466267  86.3435540  41.0566245
  73.2260789  87.7550802  41.4067830  74.7120433  88.2182935  54.4020268
  74.4210299  89.1228566  54.2866934  75.3477418  88.2599463  55.1164338
  75.6376640  85.5959784  50.9921628  76.2340212  85.3715806  50.2778591
  75.6951612  84.8544529  51.5947076  75.2101668  83.0499219  38.8271819
  75.4627189  82.5280740  38.0655282  74.2726228  82.8865365  38.9298502
  80.2544951  82.0534998  46.6346562  81.0408040  81.6354421  46.2836979
  80.5183656  82.9581090  46.8028210  80.4255029  87.4907848  41.3335219
  79.7900862  87.5642474  42.0456123  80.0952435  88.0801447  40.6554298
  85.6553378  81.9910231  47.5379540  86.3878550  81.4209448  47.7717370
  84.8992734  81.6031831  47.9786046  74.9297957  84.9527325  41.0296194
  74.8134215  84.2772229  41.6977278  75.0400217  84.4659699  40.2128347
  77.2729498  84.4137472  44.7342883  76.9087705  83.8868093  45.4455804
  78.1296614  84.0235941  44.5609368  76.9134985  79.4427372  39.7304231
  77.0809387  80.3107608  40.0974702  76.7232154  79.6054654  38.8065521
  79.6710318  87.9044351  51.3970062  79.3711041  88.8069390  51.2885869
  79.3261378  87.6376534  52.2491215  73.1222800  84.3558148  47.4306766
  72.1973296  84.2234362  47.6384458  73.3707213  85.1352367  47.9276709
  83.0707462  80.4226891  49.0767499  82.1624339  80.3542299  48.7826260
  83.0195058  80.8998836  49.9049325  76.8924206  81.8985029  40.7150898
  76.7723831  82.3442080  41.5536378  76.1976794  82.2470347  40.1564436
  70.4831611  83.9991421  48.2650555  70.6123992  84.2525900  49.1789967
  69.8029062  84.5919129  47.9455210  74.6531098  94.6688671  44.3641029
  74.5755128  95.6196496  44.4429510  74.0492742  94.3234544  45.0215956
  77.1448328  81.8416537  57.0202396  76.3681662  82.4010457  57.0105261
  77.7838891  82.3273320  57.5417266  84.9369108  78.6243329  50.8545373
  84.2943489  78.9175863  50.2085168  84.4324037  78.5096250  51.6598570
  82.5909272  82.3706503  41.5431232  83.5027128  82.6033889  41.3678930
  82.0818919  82.9543547  40.9806311  75.3994700  84.6501990  56.5820363
  76.1409385  85.1887034  56.3055187  74.6931686  85.2768279  56.7391915
  80.8750040  86.7931130  55.1792525  81.2833396  86.3513541  54.4347157
  80.1527301  86.2183758  55.4326718  77.2281110  81.7303737  52.5526082
  78.0742305  82.1543151  52.6960731  77.1679748  81.0737362  53.2464645
  81.1978854  87.3532321  48.9344814  80.5687717  87.5178035  48.2320882
  80.8104517  87.7673931  49.7055778  85.0768086  88.2886759  46.2889177
  84.3919124  88.6685660  45.7386211  85.1611936  88.8982086  47.0221125
  80.3780555  79.3908106  54.2107255  80.1341487  80.1450166  53.6741531
  80.6540486  79.7693453  55.0454502  82.3319018  85.9346718  52.8884521
  82.5435913  86.5778478  52.2118902  82.2848766  85.1009035  52.4206451
  79.9345247  78.5464539  49.7921093  79.0729726  78.8445792  50.0837831
  79.9607682  78.7634938  48.8602126  76.7506816  87.0906729  46.1994899
  77.2145162  87.3694432  45.4099521  76.4863614  86.1890174  46.0167989
  73.6430897  86.6378211  49.1374662  74.2132254  87.0665479  48.4992147
  74.2339009  86.3560795  49.8358848  75.6875702  83.2129882  43.0084464
  76.3899746  83.6650925  43.4758390  75.3556331  82.5713700  43.6364357
  74.1356064  81.8041638  57.3835673  73.5054724  82.4857919  57.6171070
  74.0292152  81.6924720  56.4388812  69.4301036  81.4713434  48.3101597
  68.6400090  81.7270963  47.8341708  69.9212284  82.2861772  48.4153638
  83.4464846  88.8118673  51.0606878  84.2682290  88.4098861  50.7789560
  83.4427249  88.7086908  52.0122994  71.3815782  81.8358013  45.2685074
  70.5846945  81.9476708  45.7868570  71.1541374  82.1744666  44.4025965
  77.2121449  88.3602717  53.2167589  77.2765882  88.8223124  54.0525761
  76.5032373  87.7300082  53.3449899  67.7138739  81.7243925  50.7416588
  67.9646778  82.6090935  51.0074164  68.2498288  81.5448526  49.9691680
  91.5370839  85.1557422  47.4091850  90.7834547  84.5864820  47.2535854
  91.6718380  85.1220086  48.3562484  76.9269467  90.0270824  43.0846569
  76.7915142  90.8722360  43.5131417  77.4679279  90.2290102  42.3212503
  70.3798864  87.5446262  43.6574494  70.8923385  88.3389512  43.8080059
  71.0321577  86.8472553  43.5908096  72.1893749  90.6612018  45.7397247
  72.3660377  91.5829983  45.5518231  72.9850583  90.3470438  46.1691627
  71.4746106  82.7076650  55.6159411  71.3599621  81.8061908  55.9166510
  70.6190623  82.9540347  55.2644227  78.5537943  90.6494391  57.2146911
  78.1101798  89.8630769  56.8967816  79.2155157  90.8373541  56.5490802
  73.3125065  92.1790192  51.7407590  73.8632490  92.0507256  50.9684584
  72.4736540  92.4785081  51.3902483  80.6519181  90.9297191  55.2428313
  80.6337657  91.7506072  54.7508582  81.5739101  90.8051266  55.4678454
  77.1092236  88.4441320  56.0851821  77.6420572  87.6829608  55.8551129
  76.5806317  88.1514972  56.8275975  68.3447781  85.8734917  44.4334065
  69.1823003  86.2831925  44.2167772  68.5226049  84.9334359  44.4034259
  80.2412213  83.5409997  40.1217898  79.7258837  84.3114602  40.3606285
  79.9689522  82.8675133  40.7450959  77.8259324  78.3859698  45.1803136
  76.9700921  77.9966548  45.0008775  78.2386276  78.4651659  44.3202922
  85.2146487  86.2942352  42.0571071  84.4375930  85.9553511  41.6126233
  85.8937968  86.2994975  41.3826036  80.0298516  81.4137089  41.9477679
  79.7248652  81.7283238  42.7987822  80.9828959  81.4918509  41.9905012
  78.4744948  87.5727313  43.5970633  77.9466310  86.8380072  43.2843870
  77.9732451  88.3501989  43.3510601  83.4537794  85.7676333  48.7137679
  82.7961469  86.4575594  48.8017808  84.2578194  86.1572765  49.0571666
  82.2643253  84.1220706  46.7641621  82.7775135  84.7550698  47.2663331
  82.9144477  83.5221901  46.3984981  73.5333263  80.2651440  39.9773130
  72.6970575  80.6026126  40.2982404  73.3938033  80.1300420  39.0400267
  76.6197548  85.3907523  36.6005606  75.7124610  85.1596776  36.7996755
  77.1168580  84.5945142  36.7879587  79.5265627  94.1005030  39.5202292
  78.8527326  94.4036727  40.1287250  79.9131449  94.9034110  39.1707749
  78.7424084  81.5970161  49.0099961  77.8246645  81.8185108  48.8521650
  79.1584228  81.6716472  48.1511669  79.5259132  82.9961577  44.1402642
  80.2730951  83.5082974  43.8309764  79.7950721  82.6745630  45.0007035
  77.7985782  85.4920118  41.1229596  76.8897001  85.2079151  41.2202066
  77.8280866  85.9119196  40.2632903  83.0305049  89.1026707  44.8920764
  82.5767376  88.2617617  44.9485954  82.3999016  89.7388106  45.2295544
  81.9737969  80.0318693  46.1221431  81.2360726  79.5196079  46.4531674
  82.2264742  79.5919075  45.3104708  81.4737989  90.9403204  45.8270582
  81.7660963  91.5008261  45.1082947  81.9836609  91.2331765  46.5823741
  68.3673952  83.2125632  45.1044798  68.1698352  82.6194993  44.3795865
  67.8120616  82.9077842  45.8220737  76.3470676  83.1048738  47.2239391
  76.4019286  82.1522575  47.1481868  75.5361878  83.2608177  47.7080690
  77.4961870  87.0328861  38.4617675  77.0581300  86.3164720  38.0023312
  78.2372311  87.2604976  37.9002766  74.2863036  81.7225798  44.9829770
  73.4730901  82.0219969  45.3894962  74.7822030  81.3281487  45.7004252
  76.4371614  91.7183555  46.9164035  76.3947793  91.9444401  45.9872567
  77.3534313  91.4846930  47.0649836  79.8837248  82.1867623  53.8144664
  80.2386635  82.4139096  54.6739130  80.5309379  82.5185999  53.1921919
  85.6134984  85.3086058  44.5193993  85.4752883  85.4987654  43.5915182
  85.2571203  86.0705441  44.9762044  85.6404364  87.3762585  49.5305265
  86.0740871  87.2837875  50.3788319  86.3535945  87.3520086  48.8925281
  74.5537415  88.5946584  46.7125998  75.3478013  88.0996904  46.5108573
  73.8429107  88.0664447  46.3493703  79.3732259  90.9764680  51.0638365
  79.4269281  91.5455616  51.8316081  78.5047040  91.1466565  50.6992402
  70.8620178  82.7389666  42.7885750  69.9317766  82.6774121  43.0055712
  70.9577650  82.2165618  41.9922392  70.7805727  79.2644479  45.3763992
  71.0412544  80.1789812  45.2673152  71.6022899  78.7968921  45.5260605
  72.2530652  80.6782236  52.5462817  72.9253706  80.4699598  51.8975465
  71.4260439  80.4804322  52.1068049  86.5019914  87.4186286  52.0638150
  86.6955804  88.3232097  52.3097425  86.4020532  86.9593705  52.8976735
  81.5635022  87.5693029  57.6379031  81.4120529  87.3403581  56.7209114
  81.5539702  88.5263630  57.6510376  78.3320359  85.1424942  52.6225297
  79.2612419  85.2936101  52.4494264  77.9111389  85.2308962  51.7673944
  77.1308691  89.1675606  50.3923835  76.9919776  88.7994390  51.2649773
  76.3423287  89.6823245  50.2207793  77.7256842  94.2684702  41.7349371
  77.9008598  93.7972746  42.5494994  77.0389631  94.8950469  41.9630632
  78.6813906  88.5457209  47.7812673  78.3463738  88.5057979  48.6770322
  78.1817851  87.8801925  47.3083083  72.6558150  83.9524839  53.3065254
  72.5177948  83.2205078  53.9076793  73.5663073  83.8633739  53.0249441
  81.6173097  85.8913243  38.0549732  81.0002268  85.1660071  37.9582785
  81.1489586  86.6522603  37.7116806  75.2840450  83.6644798  52.7948933
  75.9940069  83.0237990  52.7535552  75.2409758  83.9157693  53.7175114
  83.2727229  90.6012151  55.7155513  83.2139775  89.9171371  55.0486096
  83.6746747  91.3431141  55.2636139  73.9969384  80.6510016  54.6144573
  73.4606741  80.2000754  55.2666169  73.4086093  80.7855925  53.8715037
  72.2917928  97.4174065  48.5089231  72.5314526  98.0492589  49.1868250
  71.4487124  97.0662105  48.7954591  73.4071643  80.1098667  37.1771036
  72.5301110  79.9887468  36.8133283  73.8829396  79.3184746  36.9249925
  83.2744636  88.5651735  53.9469492  82.3871415  88.2277657  54.0695891
  83.8443187  87.8334767  54.1838258  64.9273783  84.8975827  47.2712544
  65.6144823  84.5837557  46.6833559  64.7721912  85.8017192  46.9979795
  69.7308506  79.7866024  51.6997567  69.6466694  79.1791693  50.9647977
  68.9091212  80.2775042  51.7007064  76.8045790  93.2253188  50.9130735
  76.7315961  94.0308159  51.4250040  76.3623183  93.4245153  50.0878757
  76.5935569  92.4624958  44.4233557  75.8103091  93.0046638  44.5171781
  77.2928314  92.9798937  44.8227798  79.9032219  78.2719587  47.0667762
  80.4000919  77.5189549  46.7468833  79.1319201  78.3083904  46.5010972
  87.7561977  83.9759953  48.7086054  87.7451853  84.8584668  48.3379987
  86.8879356  83.6231504  48.5140591  79.2644473  93.1240022  53.0688894
  79.9772445  93.7587487  52.9964796  78.7734502  93.2203888  52.2528896
  80.9862000  87.0291274  44.6406186  80.0518279  87.1492737  44.4710890
  81.1638669  86.1263741  44.3766196  76.4867188  80.4136970  46.7939447
  76.1164976  79.8608011  47.4820353  76.9826281  79.8095104  46.2414447
  84.3734551  82.8708594  45.1756220  84.8395004  83.7036585  45.1016523
  84.8242052  82.4053575  45.8801478  74.3156387  90.8734465  53.8894465
  75.0165846  91.5070948  54.0423859  73.8451502  91.2149197  53.1290104
  82.4410783  89.2152415  42.1742372  82.7170626  89.1009010  43.0836246
  81.5715281  88.8169900  42.1354545  82.1157673  83.4279073  51.7147015
  81.4629123  83.6754980  51.0599468  82.4938053  82.6143211  51.3809493
  79.0764847  93.4638766  45.8175186  79.2587241  92.6460422  46.2802938
  79.8997833  93.6806458  45.3800076  79.4107012  92.3906951  43.0790234
  79.9394778  91.8799405  42.4660396  79.6735232  92.0749481  43.9435767
  78.1645246  84.1698884  58.2013052  77.4885883  84.0693013  58.8715428
  78.9872880  84.0138097  58.6649050  69.9124105  90.4070820  50.8225568
  70.4977542  89.6614508  50.9553472  69.7148943  90.7174777  51.7062231
  72.7662760  93.4422068  45.8388010  72.0973135  93.9268195  45.3552050
  72.6275630  93.6891288  46.7531388  64.5041760  82.9776420  49.5430011
  64.5425859  82.4440011  50.3367129  63.9982052  82.4511626  48.9240988
  76.9068029  95.4765811  52.4370668  77.4586337  95.6397433  53.2019754
  77.2474222  96.0670249  51.7650693  71.3584794  79.8964093  56.6865587
  71.9856833  79.5141171  57.3003112  70.5012713  79.6778295  57.0521280
  81.7578903  90.3027069  58.2919323  82.3018807  90.9157027  57.7974278
  81.1765748  90.8606647  58.8086336  68.1350337  81.7040523  42.6183942
  68.4303778  80.7951201  42.5650996  67.2338373  81.6828262  42.2964944
  80.0436416  93.4247787  49.4234351  79.9187555  92.6237526  48.9145296
  80.7015507  93.9193980  48.9348320  71.6644584  79.7796519  48.6011491
  70.9431170  80.3932487  48.4618964  72.4537840  80.3154284  48.5228137
  82.1071324  91.2256807  51.0513901  81.1601660  91.1062158  50.9792227
  82.4554097  90.3379305  51.1340162  69.8638179  79.3854620  42.7423267
  69.5350885  78.5051999  42.5598373  70.2177549  79.3302289  43.6299657
  79.1117758  91.0209523  47.2518253  78.9642720  90.0926230  47.4325823
  79.9371251  91.0429614  46.7675328  72.9780002  79.6727590  43.1098745
  73.3176074  80.2013511  42.3877353  73.4252122  80.0107996  43.8857311
  82.7151879  91.8438082  48.3383126  83.6398427  91.6380943  48.2007577
  82.5467183  91.5954483  49.2472467  74.9648149  78.1702212  41.3092038
  75.6856511  78.5483464  40.8055755  74.3413453  78.8891088  41.4127016
  79.1079272  78.8747361  42.2450370  79.3242886  79.7571998  41.9439198
  78.6273339  78.4833574  41.5156012  73.8478493  81.8333074  48.8221115
  73.7023074  82.1473377  49.7145396  73.3703697  82.4517974  48.2692013
  77.5601007  79.2572962  50.9155132  77.3018785  80.1790033  50.9139462
  77.0286047  78.8603397  51.6055596  82.5047196  92.3623749  43.6945217
  82.6784073  91.7970172  42.9419069  82.9976087  93.1624644  43.5124707
  68.3224155  84.3738418  51.7608776  67.7777623  85.1498226  51.8929050
  69.2003505  84.7209223  51.6027897  75.1111772  77.7050002  44.1389574
  75.2327683  76.7766648  44.3380462  74.8213814  77.7188688  43.2267890
  88.3586587  85.1260172  45.3135517  88.8017733  84.3767497  44.9154640
  87.4813097  85.1170308  44.9309249  83.4922368  91.6790514  40.7942115
  84.1873273  92.2997206  41.0129430  83.8345518  90.8285865  41.0694493
  69.1090177  83.5008314  54.6538933  68.3671913  83.6490950  55.2403563
  68.7882922  83.7616580  53.7905682  85.3913791  89.1290219  42.3229446
  85.9165115  89.4677492  41.5978766  85.3036144  88.1937234  42.1392581
  77.0533840  93.0424293  54.4519323  77.3620966  92.7973439  55.3242022
  77.8509322  93.2470931  53.9638193  77.0754452  95.1962202  46.6824699
  76.6359442  94.7038581  47.3757556  77.8262569  94.6535170  46.4416774
  69.5546791  91.3873743  46.6849327  70.3804811  91.0877515  46.3047971
  69.2040843  90.6181366  47.1339116  74.5228324  90.7400211  48.7547001
  73.9008333  90.0770916  48.4549229  75.1933191  90.7661343  48.0720649
  67.7555396  89.3060070  47.6438261  66.9187304  88.8782244  47.4622262
  67.7279041  89.4992513  48.5809052  74.5952852  79.2181999  58.3479507
  74.6441007  80.0944122  57.9657277  75.1375366  78.6759392  57.7751150
  85.0807697  89.7623123  57.6280644  84.2903241  89.7447262  57.0885143
  84.8441052  90.3011416  58.3829681  85.2005572  86.6115589  54.9413373
  85.2503577  86.4465597  55.8828895  85.0919496  85.7442848  54.5511253
  74.0841831  89.2904135  42.2305461  74.2329951  89.9739599  41.5772134
  74.8908274  89.2709225  42.7454917  82.4909335  82.5946517  56.2572679
  83.3919197  82.4552982  55.9656677  82.5657309  82.7600972  57.1970857
  76.8252140  79.9713372  55.1025866  75.9555449  80.2646938  54.8308454
  77.0611620  80.5553817  55.8233129  86.7023769  89.0312531  55.1855394
  86.4108577  89.3942511  56.0218855  86.0895900  88.3179539  55.0068726
  87.9019451  86.5965410  47.7057964  88.7366343  87.0355214  47.8695525
  88.0378580  86.1204064  46.8866210  84.9510957  84.1545145  53.6535452
  85.4265079  84.3472792  52.8454303  84.0276523  84.2104331  53.4078836
  71.8394464  85.3169312  43.2366530  71.5940506  84.4131642  43.4346741
  72.0090379  85.3186463  42.2946008  79.5291174  76.1892989  52.6191286
  80.0473118  76.9254016  52.2937775  79.1746307  76.4956982  53.4538045
  71.1090112  81.0497670  40.7352692  70.4159356  81.1242025  40.0792728
  70.8641863  80.2858014  41.2574209  77.5837237  91.7852265  39.7017209
  77.0111204  92.4042452  39.2487681  78.1570030  92.3351627  40.2357131
  83.6512626  81.0310905  51.8863758  84.6030049  81.1309003  51.9075982
  83.4816077  80.2389174  52.3961842  81.6727006  78.1166489  52.0723159
  81.0776938  78.3971501  51.3769647  81.3876703  78.6060389  52.8439900
  80.8034496  92.0689415  40.8325791  81.7365169  92.0034977  41.0358667
  80.7157709  92.9045682  40.3740324  83.4322513  91.3855286  37.7929739
  83.3536145  91.0515149  38.6865497  84.2532180  91.8777054  37.7921211
  86.1300704  84.2517025  51.0006057  86.0977024  83.3133026  51.1865741
  86.7401328  84.3301062  50.2671882  77.9684035  83.1213078  37.0433261
  78.9143140  82.9919286  37.1121679  77.5898280  82.3827740  37.5202690
  86.2795193  81.0428068  51.0464341  85.7634241  80.2586525  50.8594269
  87.1635141  80.7146785  51.2110860  91.9477254  85.3133032  50.1412094
  92.6780642  85.0518320  50.7019797  91.3384199  84.5761754  50.1814162
  90.0292551  83.4540894  50.7386545  89.3025715  83.3196859  50.1303037
  89.6139838  83.7617723  51.5443263  77.8522728  87.1730824  58.5033918
  78.7725737  87.3509423  58.6973965  77.8172311  86.2286869  58.3513618
  76.1526952  81.0463054  36.9788147  75.2458408  80.7496167  37.0550860
  76.4302933  80.7492872  36.1122433  67.0704893  82.3669418  47.4287193
  66.7507677  81.5134726  47.1361567  66.5238321  82.5817996  48.1845160
  70.8484800  85.0831859  51.1456700  71.0670810  86.0148967  51.1644733
  71.2610574  84.7239833  51.9311503  75.7212665  80.6565065  60.5359448
  75.6209392  81.6059421  60.4671540  75.5034207  80.3283303  59.6635519
  74.9225737  77.9049990  37.1200126  75.7844901  78.2304888  37.3795943
  75.1076081  77.1181485  36.6073192  66.9393153  85.9872329  49.3980315
  66.2456624  85.5726282  48.8850269  67.6866144  86.0292866  48.8013733
  75.5843935  84.0862203  59.3524510  75.1011017  84.8862563  59.5588399
  75.6704875  84.0970148  58.3991954  68.8529895  85.9190583  47.2746329
  68.8300583  86.0178270  46.3228213  69.1630532  86.7655734  47.5963496
  71.5117273  87.9766738  51.3892944  72.4660527  87.9450680  51.3222875
  71.3129797  87.5157362  52.2043170  72.1016655  86.5467854  53.9563742
  72.9209544  87.0411933  53.9798579  72.3753463  85.6299822  53.9281309
  81.8583251  78.9378606  43.3191697  80.9709106  79.2228257  43.1011892
  82.2737240  78.7772370  42.4718974  85.2097787  78.9625127  47.0346036
  85.9858178  79.4521580  47.3070653  84.4845922  79.3883182  47.4917906
  87.6470346  79.6752747  48.0919977  88.2414837  79.4348483  47.3813285
  87.7196930  78.9559877  48.7193513  69.8667502  93.5186358  48.4063142
  69.7321970  92.7586758  47.8401140  69.4499564  94.2427257  47.9391931
  81.0026465  88.7023281  37.4139717  81.7062315  88.9073284  38.0297373
  80.2789114  89.2700043  37.6788801  81.8324275  84.4533142  43.5341987
  81.7759476  84.9101694  42.6949620  82.3852618  83.6923827  43.3564830
  85.6429081  80.2422874  44.3592107  85.3866015  79.8419510  45.1900314
  85.0181949  80.9566668  44.2342246  89.9541419  82.9818947  46.8663398
  89.3940977  83.0512137  47.6394960  89.3484922  82.8059932  46.1462894
  73.0236628  94.4155675  48.6181584  72.9069012  95.3601107  48.5160275
  72.2029074  94.1129236  49.0067384  82.9113162  89.1405810  39.4638177
  83.7458766  88.7087009  39.2815652  82.7497505  88.9687824  40.3915072
  82.5659054  85.6437924  40.8294516  82.5107858  85.4782195  39.8882961
  81.9405110  86.3513956  40.9856706  67.3551569  80.8805988  54.6555939
  68.0010433  80.3704942  55.1443164  67.1468720  81.6174670  55.2299364
  79.8804962  87.9486835  60.1548079  80.7496121  88.1227488  59.7934714
  79.4011713  88.7681252  60.0323809  74.0491142  95.0683936  51.8337513
  74.9518388  95.1007547  52.1504008  73.8228512  94.1384387  51.8483849
  75.8044744  93.8214923  48.4947591  74.8540375  93.8216785  48.3811964
  76.1077230  93.0747658  47.9783626  71.6949060  78.0273605  58.7530953
  72.5580522  77.6710410  58.9634277  71.1214471  77.6887500  59.4406357
  91.5397437  99.6575461  49.5593354  92.1775847  99.5382209  48.8556694
  91.4218280 100.6056305  49.6181306  88.3487144  99.6102889  49.4954879
  88.0105655  99.4943954  48.6075413  89.2176912  99.2094055  49.4755885
  84.2073959 101.4638366  45.4851769  83.6438824 101.3728303  44.7168057
  84.0926354 100.6438270  45.9654262  88.8306927 100.7637741  55.4541084
  88.8195567 100.3690539  54.5821588  88.9927566 100.0303814  56.0474856
  81.7538391 102.9589558  48.3235990  82.5459683 102.6180382  47.9082289
  81.9935041 103.0684533  49.2438143  89.7873518 105.1309334  40.7966234
  89.1361498 105.7163414  40.4100248  90.5817881 105.6615529  40.8561272
  83.7129145 102.2198471  41.1953369  84.4860021 101.6727458  41.0566245
  84.0654544 103.0842720  41.4067830  85.5514188 103.5474853  54.4020268
  85.2604054 104.4520484  54.2866934  86.1871172 103.5891381  55.1164338
  86.4770395 100.9251702  50.9921628  87.0733967 100.7007724  50.2778591
  86.5345366 100.1836447  51.5947076  86.0495423  98.3791137  38.8271819
  86.3020944  97.8572658  38.0655282  85.1119982  98.2157282  38.9298502
  91.0938706  97.3826915  46.6346562  91.8801795  96.9646338  46.2836979
  91.3577410  98.2873007  46.8028210  91.2648783 102.8199766  41.3335219
  90.6294616 102.8934392  42.0456123  90.9346190 103.4093364  40.6554298
  96.4947133  97.3202148  47.5379540  97.2272305  96.7501365  47.7717370
  95.7386489  96.9323749  47.9786046  85.7691712 100.2819243  41.0296194
  85.6527970  99.6064146  41.6977278  85.8793972  99.7951617  40.2128347
  88.1123253  99.7429390  44.7342883  87.7481460  99.2160011  45.4455804
  88.9690369  99.3527859  44.5609368  94.0172553  91.0323723  51.9974149
  93.6855878  91.9019134  51.7735364  93.4218167  90.7160007  52.6768179
  87.7528740  94.7719290  39.7304231  87.9203142  95.6399526  40.0974702
  87.5625909  94.9346571  38.8065521  90.5104073 103.2336269  51.3970062
  90.2104796 104.1361307  51.2885869  90.1655132 102.9668452  52.2491215
  83.9616554  99.6850065  47.4306766  83.0367051  99.5526279  47.6384458
  84.2100967 100.4644285  47.9276709  93.9101217  95.7518809  49.0767499
  93.0018094  95.6834217  48.7826260  93.8588812  96.2290754  49.9049325
  87.7317960  97.2276947  40.7150898  87.6117586  97.6733998  41.5536378
  87.0370549  97.5762265  40.1564436  81.3225365  99.3283339  48.2650555
  81.4517746  99.5817818  49.1789967  80.6422817  99.9211047  47.9455210
  85.4924853 109.9980589  44.3641029  85.4148882 110.9488414  44.4429510
  84.8886496 109.6526461  45.0215956  87.9842082  97.1708454  57.0202396
  87.2075416  97.7302374  57.0105261  88.6232645  97.6565237  57.5417266
  95.7762863  93.9535247  50.8545373  95.1337243  94.2467780  50.2085168
  95.2717791  93.8388167  51.6598570  93.4303027  97.6998420  41.5431232
  94.3420883  97.9325807  41.3678930  92.9212674  98.2835465  40.9806311
  86.2388455  99.9793908  56.5820363  86.9803139 100.5178952  56.3055187
  85.5325440 100.6060196  56.7391915  91.7143794 102.1223048  55.1792525
  92.1227150 101.6805459  54.4347157  90.9921056 101.5475676  55.4326718
  88.0674864  97.0595655  52.5526082  88.9136060  97.4835068  52.6960731
  88.0073502  96.4029279  53.2464645  92.0372609 102.6824239  48.9344814
  91.4081471 102.8469953  48.2320882  91.6498271 103.0965848  49.7055778
  95.9161841 103.6178677  46.2889177  95.2312879 103.9977578  45.7386211
  96.0005690 104.2274003  47.0221125  91.2174310  94.7200023  54.2107255
  90.9735242  95.4742084  53.6741531  91.4934240  95.0985371  55.0454502
  93.1712772 101.2638636  52.8884521  93.3829668 101.9070396  52.2118902
  93.1242521 100.4300952  52.4206451  90.7739001  93.8756456  49.7921093
  89.9123480  94.1737710  50.0837831  90.8001436  94.0926855  48.8602126
  87.5900571 102.4198647  46.1994899  88.0538916 102.6986350  45.4099521
  87.3257369 101.5182091  46.0167989  84.4824652 101.9670128  49.1374662
  85.0526009 102.3957397  48.4992147  85.0732764 101.6852713  49.8358848
  86.5269457  98.5421799  43.0084464  87.2293500  98.9942843  43.4758390
  86.1950085  97.9005618  43.6364357  84.9749818  97.1333556  57.3835673
  84.3448479  97.8149837  57.6171070  84.8685906  97.0216637  56.4388812
  80.2694791  96.8005352  48.3101597  79.4793845  97.0562880  47.8341708
  80.7606038  97.6153690  48.4153638  94.2858600 104.1410591  51.0606878
  95.1076044 103.7390778  50.7789560  94.2821003 104.0378825  52.0122994
  82.2209536  97.1649931  45.2685074  81.4240699  97.2768625  45.7868570
  81.9935128  97.5036583  44.4025965  88.0515204 103.6894634  53.2167589
  88.1159636 104.1515042  54.0525761  87.3426128 103.0591999  53.3449899
  78.5532494  97.0535842  50.7416588  78.8040532  97.9382852  51.0074164
  79.0892042  96.8740444  49.9691680 102.3764593 100.4849340  47.4091850
 101.6228302  99.9156738  47.2535854 102.5112135 100.4512004  48.3562484
  87.7663221 105.3562742  43.0846569  87.6308896 106.2014278  43.5131417
  88.3073034 105.5582019  42.3212503  84.2530561  91.4354322  59.7460924
  83.8597507  90.8820520  60.4208569  85.0696701  91.7464900  60.1367442
  81.2192619 102.8738180  43.6574494  81.7317139 103.6681430  43.8080059
  81.8715332 102.1764470  43.5908096  83.0287504 105.9903936  45.7397247
  83.2054132 106.9121901  45.5518231  83.8244337 105.6762355  46.1691627
  87.1698522  92.8512201  57.3381181  87.9108235  93.4519354  57.2585643
  87.4016445  92.1089839  56.7799223  82.3139860  98.0368568  55.6159411
  82.1993375  97.1353825  55.9166510  81.4584378  98.2832265  55.2644227
  89.3931698 105.9786308  57.2146911  88.9495552 105.1922687  56.8967816
  90.0548911 106.1665459  56.5490802  84.1518819 107.5082110  51.7407590
  84.7026244 107.3799173  50.9684584  83.3130295 107.8076999  51.3902483
  91.4912936 106.2589108  55.2428313  91.4731411 107.0797989  54.7508582
  92.4132856 106.1343184  55.4678454  87.9485990 103.7733238  56.0851821
  88.4814327 103.0121526  55.8551129  87.4200071 103.4806890  56.8275975
  91.1155685  88.8793304  51.6145463  90.7719954  89.7694945  51.5384573
  91.4834648  88.6894961  50.7515048  79.1841536 101.2026834  44.4334065
  80.0216758 101.6123843  44.2167772  79.3619803 100.2626276  44.4034259
  91.0805968  98.8701915  40.1217898  90.5652591  99.6406519  40.3606285
  90.8083276  98.1967051  40.7450959  88.6653079  93.7151616  45.1803136
  87.8094675  93.3258466  45.0008775  89.0780031  93.7943576  44.3202922
  90.1952225  91.2497959  49.5794696  89.6917021  91.2128094  48.7662501
  90.4882832  92.1590702  49.6391353  86.4395111  91.3336689  48.5860878
  87.3048108  91.1379497  48.2266767  86.5072620  91.1047040  49.5130234
  96.0540242 101.6234269  42.0571071  95.2769685 101.2845429  41.6126233
  96.7331723 101.6286893  41.3826036  90.8692271  96.7429007  41.9477679
  90.5642407  97.0575156  42.7987822  91.8222713  96.8210427  41.9905012
  89.3138703 102.9019230  43.5970633  88.7860064 102.1671990  43.2843870
  88.8126206 103.6793907  43.3510601  94.2931549 101.0968251  48.7137679
  93.6355223 101.7867512  48.8017808  95.0971948 101.4864683  49.0571666
  84.0457430  93.5638897  45.9577244  84.6201182  93.3414078  45.2250437
  84.6328413  93.6327591  46.7105846  93.1037008  99.4512623  46.7641621
  93.6168889 100.0842615  47.2663331  93.7538231  98.8513819  46.3984981
  84.3727017  95.5943358  39.9773130  83.5364330  95.9318044  40.2982404
  84.2331787  95.4592337  39.0400267  86.3480098  90.4380145  44.6852314
  85.6944510  90.1229163  44.0608929  86.3060572  89.8155886  45.4112137
  87.4591303 100.7199441  36.6005606  86.5518365 100.4888694  36.7996755
  87.9562335  99.9237060  36.7879587  90.3659382 109.4296948  39.5202292
  89.6921081 109.7328644  40.1287250  90.7525204 110.2326028  39.1707749
  89.5817838  96.9262079  49.0099961  88.6640400  97.1477026  48.8521650
  89.9977982  97.0008389  48.1511669  90.3652886  98.3253495  44.1402642
  91.1124705  98.8374892  43.8309764  90.6344476  98.0037547  45.0007035
  88.6379536 100.8212035  41.1229596  87.7290756 100.5371068  41.2202066
  88.6674620 101.2411114  40.2632903  93.8698804 104.4318625  44.8920764
  93.4161131 103.5909535  44.9485954  93.2392771 105.0680023  45.2295544
  92.8131723  95.3610611  46.1221431  92.0754480  94.8487997  46.4531674
  93.0658497  94.9210993  45.3104708  92.3131743 106.2695122  45.8270582
  92.6054717 106.8300179  45.1082947  92.8230364 106.5623683  46.5823741
  92.9143351  88.1386863  46.7163200  93.2202228  87.2784226  46.4289115
  93.6395956  88.7304483  46.5162194  79.2067707  98.5417549  45.1044798
  79.0092107  97.9486910  44.3795865  78.6514371  98.2369760  45.8220737
  87.1864430  98.4340656  47.2239391  87.2413040  97.4814492  47.1481868
  86.3755632  98.5900095  47.7080690  88.3355624 102.3620779  38.4617675
  87.8975054 101.6456638  38.0023312  89.0766065 102.5896894  37.9002766
  85.1256790  97.0517716  44.9829770  84.3124656  97.3511886  45.3894962
  85.6215785  96.6573404  45.7004252  87.2765368 107.0475473  46.9164035
  87.2341547 107.2736319  45.9872567  88.1928067 106.8138847  47.0649836
  90.7231002  97.5159540  53.8144664  91.0780390  97.7431013  54.6739130
  91.3703133  97.8477917  53.1921919  96.4528739 100.6377976  44.5193993
  96.3146638 100.8279572  43.5915182  96.0964958 101.3997359  44.9762044
  84.6170865  94.6236071  50.5991005  85.2570244  94.4824830  49.9013968
  83.7848396  94.3370585  50.2229607  96.4798119 102.7054503  49.5305265
  96.9134625 102.6129792  50.3788319  97.1929699 102.6812004  48.8925281
  85.3931169 103.9238502  46.7125998  86.1871768 103.4288822  46.5108573
  84.6822861 103.3956365  46.3493703  90.2126013 106.3056597  51.0638365
  90.2663036 106.8747534  51.8316081  89.3440795 106.4758482  50.6992402
  81.7013932  98.0681583  42.7885750  80.7711521  98.0066039  43.0055712
  81.7971404  97.5457536  41.9922392  81.6199482  94.5936396  45.3763992
  81.8806299  95.5081729  45.2673152  82.4416654  94.1260839  45.5260605
  83.0924407  96.0074153  52.5462817  83.7647460  95.7991516  51.8975465
  82.2654193  95.8096239  52.1068049  97.3413668 102.7478204  52.0638150
  97.5349558 103.6524014  52.3097425  97.2414286 102.2885623  52.8976735
  88.9949979  92.6336094  54.5628477  88.3477894  93.3326044  54.4692954
  89.7650994  93.0672238  54.9304726  92.4028777 102.8984946  57.6379031
  92.2514283 102.6695498  56.7209114  92.3933456 103.8555548  57.6510376
  89.1714113 100.4716859  52.6225297  90.1006173 100.6228019  52.4494264
  88.7505143 100.5600880  51.7673944  87.9702445 104.4967524  50.3923835
  87.8313531 104.1286308  51.2649773  87.1817041 105.0115163  50.2207793
  88.5650597 109.5976620  41.7349371  88.7402353 109.1264663  42.5494994
  87.8783385 110.2242386  41.9630632  89.5207660 103.8749126  47.7812673
  89.1857493 103.8349896  48.6770322  89.0211606 103.2093842  47.3083083
  83.4951904  99.2816756  53.3065254  83.3571702  98.5496995  53.9076793
  84.4056828  99.1925656  53.0249441  92.4566852 101.2205161  38.0549732
  91.8396022 100.4951989  37.9582785  91.9883340 101.9814521  37.7116806
  86.1234205  98.9936716  52.7948933  86.8333823  98.3529908  52.7535552
  86.0803513  99.2449611  53.7175114  94.1120983 105.9304069  55.7155513
  94.0533530 105.2463289  55.0486096  94.5140502 106.6723059  55.2636139
  84.8363139  95.9801934  54.6144573  84.3000496  95.5292672  55.2666169
  84.2479847  96.1147842  53.8715037  83.1311682 112.7465983  48.5089231
  83.3708280 113.3784507  49.1868250  82.2880879 112.3954023  48.7954591
  84.2465398  95.4390585  37.1771036  83.3694864  95.3179386  36.8133283
  84.7223151  94.6476663  36.9249925  94.1138391 103.8943653  53.9469492
  93.2265170 103.5569575  54.0695891  94.6836942 103.1626684  54.1838258
  75.7667538 100.2267745  47.2712544  76.4538578  99.9129475  46.6833559
  75.6115667 101.1309109  46.9979795  80.5702260  95.1157941  51.6997567
  80.4860449  94.5083611  50.9647977  79.7484966  95.6066960  51.7007064
  87.6439544 108.5545105  50.9130735  87.5709716 109.3600077  51.4250040
  87.2016937 108.7537071  50.0878757  87.4329324 107.7916875  44.4233557
  86.6496846 108.3338556  44.5171781  88.1322069 108.3090855  44.8227798
  90.7425974  93.6011505  47.0667762  91.2394673  92.8481467  46.7468833
  89.9712955  93.6375821  46.5010972  98.5955731  99.3051870  48.7086054
  98.5845608 100.1876586  48.3379987  97.7273111  98.9523421  48.5140591
  90.1038228 108.4531939  53.0688894  90.8166200 109.0879404  52.9964796
  89.6128256 108.5495805  52.2528896  91.8255755 102.3583192  44.6406186
  90.8912033 102.4784654  44.4710890  92.0032423 101.4555659  44.3766196
  87.3260943  95.7428888  46.7939447  86.9558730  95.1899928  47.4820353
  87.8220035  95.1387021  46.2414447  95.2128306  98.2000511  45.1756220
  95.6788758  99.0328503  45.1016523  95.6635806  97.7345493  45.8801478
  85.1550141 106.2026383  53.8894465  85.8559601 106.8362866  54.0423859
  84.6845256 106.5441114  53.1290104  93.2804537 104.5444333  42.1742372
  93.5564381 104.4300927  43.0836246  92.4109036 104.1461817  42.1354545
  93.1844969  90.5681098  49.2147121  92.2708048  90.7985325  49.3829328
  93.6138070  90.6519542  50.0661154  92.9551427  98.7570990  51.7147015
  92.3022877  99.0046898  51.0599468  93.3331807  97.9435128  51.3809493
  89.9158601 108.7930683  45.8175186  90.0980996 107.9752339  46.2802938
  90.7391587 109.0098376  45.3800076  90.2500767 107.7198869  43.0790234
  90.7788533 107.2091323  42.4660396  90.5128986 107.4041399  43.9435767
  89.0039000  99.4990801  58.2013052  88.3279637  99.3984931  58.8715428
  89.8266634  99.3430015  58.6649050  80.7517859 105.7362738  50.8225568
  81.3371296 104.9906426  50.9553472  80.5542698 106.0466695  51.7062231
  83.6056514 108.7713985  45.8388010  82.9366890 109.2560113  45.3552050
  83.4669384 109.0183206  46.7531388  75.3435514  98.3068338  49.5430011
  75.3819614  97.7731929  50.3367129  74.8375807  97.7803544  48.9240988
  87.7461783 110.8057729  52.4370668  88.2980091 110.9689350  53.2019754
  88.0867977 111.3962167  51.7650693  82.7226276  93.1532879  53.0392553
  82.7867603  94.0147709  52.6269951  82.6593397  92.5406880  52.3064912
  82.1978549  95.2256011  56.6865587  82.8250588  94.8433088  57.3003112
  81.3406468  95.0070213  57.0521280  92.5972657 105.6318986  58.2919323
  93.1412561 106.2448945  57.7974278  92.0159502 106.1898565  58.8086336
  78.9744092  97.0332440  42.6183942  79.2697533  96.1243119  42.5650996
  78.0732127  97.0120180  42.2964944  90.8830170 108.7539704  49.4234351
  90.7581310 107.9529444  48.9145296  91.5409261 109.2485898  48.9348320
  82.5038339  95.1088437  48.6011491  81.7824924  95.7224405  48.4618964
  83.2931594  95.6446202  48.5228137  92.9465079 106.5548724  51.0513901
  91.9995414 106.4354076  50.9792227  93.2947852 105.6671222  51.1340162
  85.3064652  92.4442863  54.8752142  85.8299054  92.6905160  55.6378452
  85.0876985  93.2762898  54.4555280  80.7031933  94.7146538  42.7423267
  80.3744639  93.8343917  42.5598373  81.0571304  94.6594207  43.6299657
  89.9511512 106.3501441  47.2518253  89.8036474 105.4218148  47.4325823
  90.7765006 106.3721531  46.7675328  83.8173756  95.0019508  43.1098745
  84.1569829  95.5305429  42.3877353  84.2645877  95.3399914  43.8857311
  93.5545634 107.1729999  48.3383126  94.4792181 106.9672861  48.2007577
  93.3860937 106.9246401  49.2472467  86.5117197  93.3856558  52.5601813
  86.1714017  92.5864371  52.9622493  85.8056203  93.6858269  51.9878646
  87.1633669  90.4705871  51.0129136  87.9859738  89.9966349  50.8908026
  87.4071732  91.2496355  51.5127822  85.8041903  93.4994129  41.3092038
  86.5250266  93.8775382  40.8055755  85.1807208  94.2183006  41.4127016
  89.9473026  94.2039278  42.2450370  90.1636641  95.0863916  41.9439198
  89.4667093  93.8125492  41.5156012  84.6872248  97.1624991  48.8221115
  84.5416828  97.4765295  49.7145396  84.2097451  97.7809892  48.2692013
  86.5468631  94.1527539  48.8702004  86.5330199  93.2568633  48.5334302
  87.2641059  94.1598203  49.5040290  88.3994761  94.5864880  50.9155132
  88.1412539  95.5081950  50.9139462  87.8679802  94.1895314  51.6055596
  93.3440950 107.6915667  43.6945217  93.5177828 107.1262089  42.9419069
  93.8369841 108.4916562  43.5124707  79.1617910  99.7030336  51.7608776
  78.6171378 100.4790144  51.8929050  80.0397260 100.0501140  51.6027897
  85.9505527  93.0341920  44.1389574  86.0721438  92.1058566  44.3380462
  85.6607569  93.0480606  43.2267890  88.8196717  90.7196830  47.2756294
  88.8418414  90.7836163  46.3208274  89.2364776  89.8801339  47.4696800
  99.1980341 100.4552090  45.3135517  99.6411487  99.7059415  44.9154640
  98.3206852 100.4462226  44.9309249  94.3316123 107.0082431  40.7942115
  95.0267027 107.6289124  41.0129430  94.6739273 106.1577782  41.0694493
  79.9483932  98.8300232  54.6538933  79.2065668  98.9782867  55.2403563
  79.6276676  99.0908498  53.7905682  96.2307546 104.4582137  42.3229446
  96.7558870 104.7969409  41.5978766  96.1429898 103.5229152  42.1392581
  87.8927594 108.3716210  54.4519323  88.2014721 108.1265357  55.3242022
  88.6903076 108.5762849  53.9638193  87.9148206 110.5254120  46.6824699
  87.4753197 110.0330499  47.3757556  88.6656323 109.9827088  46.4416774
  80.3940545 106.7165661  46.6849327  81.2198565 106.4169433  46.3047971
  80.0434597 105.9473283  47.1339116  85.3622079 106.0692129  48.7547001
  84.7402088 105.4062834  48.4549229  86.0326945 106.0953261  48.0720649
  78.5949150 104.6351987  47.6438261  77.7581059 104.2074162  47.4622262
  78.5672796 104.8284431  48.5809052  85.4346606  94.5473917  58.3479507
  85.4834762  95.4236040  57.9657277  85.9769120  94.0051310  57.7751150
  95.9201452 105.0915040  57.6280644  95.1296995 105.0739179  57.0885143
  95.6834806 105.6303334  58.3829681  96.0399327 101.9407507  54.9413373
  96.0897332 101.7757514  55.8828895  95.9313250 101.0734766  54.5511253
  84.9235585 104.6196052  42.2305461  85.0723706 105.3031517  41.5772134
  85.7302029 104.6001142  42.7454917  93.3303089  97.9238435  56.2572679
  94.2312952  97.7844900  55.9656677  93.4051064  98.0892890  57.1970857
  87.6645895  95.3005290  55.1025866  86.7949204  95.5938856  54.8308454
  87.9005375  95.8845735  55.8233129  97.5417524 104.3604448  55.1855394
  97.2502332 104.7234429  56.0218855  96.9289655 103.6471457  55.0068726
  98.7413206 101.9257328  47.7057964  99.5760097 102.3647132  47.8695525
  98.8772335 101.4495981  46.8866210  95.7904712  99.4837063  53.6535452
  96.2658833  99.6764709  52.8454303  94.8670277  99.5396249  53.4078836
  82.6788218 100.6461230  43.2366530  82.4334260  99.7423560  43.4346741
  82.8484133 100.6478381  42.2946008  90.3684928  91.5184906  52.6191286
  90.8866872  92.2545933  52.2937775  90.0140061  91.8248900  53.4538045
  81.9483866  96.3789588  40.7352692  81.2553111  96.4533943  40.0792728
  81.7035618  95.6149931  41.2574209  90.6197523  87.9385189  48.1392183
  90.8999276  87.2708378  48.7652609  91.4048129  88.1314285  47.6266846
  88.4230991 107.1144183  39.7017209  87.8504958 107.7334370  39.2487681
  88.9963785 107.6643545  40.2357131  94.4906381  96.3602823  51.8863758
  95.4423804  96.4600921  51.9075982  94.3209831  95.5681092  52.3961842
  92.5120760  93.4458406  52.0723159  91.9170692  93.7263419  51.3769647
  92.2270457  93.9352307  52.8439900  91.6428251 107.3981333  40.8325791
  92.5758924 107.3326895  41.0358667  91.5551464 108.2337600  40.3740324
  94.2716267 106.7147203  37.7929739  94.1929899 106.3807067  38.6865497
  95.0925934 107.2068971  37.7921211  96.9694459  99.5808943  51.0006057
  96.9370779  98.6424943  51.1865741  97.5795082  99.6592979  50.2671882
  88.8077790  98.4504996  37.0433261  89.7536894  98.3211204  37.1121679
  88.4292034  97.7119658  37.5202690  97.1188947  96.3719986  51.0464341
  96.6027996  95.5878443  50.8594269  98.0028896  96.0438703  51.2110860
  94.7799674  90.1161002  47.0060153  94.5824495  89.8076090  47.8903485
  95.3899380  90.8422641  47.1358083 102.7871009 100.6424950  50.1412094
 103.5174397 100.3810238  50.7019797 102.1777954  99.9053671  50.1814162
 100.8686306  98.7832812  50.7386545 100.1419469  98.6488777  50.1303037
 100.4533593  99.0909641  51.5443263  88.6916482 102.5022742  58.5033918
  89.6119492 102.6801341  58.6973965  88.6566065 101.5578787  58.3513618
  86.9920707  96.3754972  36.9788147  86.0852162  96.0788085  37.0550860
  87.2696688  96.0784790  36.1122433  77.9098647  97.6961335  47.4287193
  77.5901431  96.8426644  47.1361567  77.3632075  97.9109914  48.1845160
  81.6878555 100.4123776  51.1456700  81.9064564 101.3440884  51.1644733
  82.1004328 100.0531751  51.9311503  88.6082772  90.9191862  43.1332388
  87.7983501  90.5738947  43.5087634  89.2967189  90.6099405  43.7219999
  90.5373321  89.9969909  44.7556685  91.0904359  90.4165362  45.4146708
  90.7743407  89.0705657  44.7979641  86.5606420  95.9856982  60.5359448
  86.4603147  96.9351339  60.4671540  86.3427962  95.6575221  59.6635519
  85.7619491  93.2341907  37.1200126  86.6238655  93.5596806  37.3795943
  85.9469835  92.4473403  36.6073192  77.7786907 101.3164247  49.3980315
  77.0850378 100.9018200  48.8850269  78.5259898 101.3584783  48.8013733
  93.9152128  92.1070434  44.2635349  93.3350797  92.7655238  43.8813401
  93.6488060  91.2847778  43.8522766  92.3655694  91.5075491  46.4656669
  92.8655472  91.6192026  45.6570988  93.0091302  91.2036544  47.1057478
  86.4237690  99.4154121  59.3524510  85.9404772 100.2154481  59.5588399
  86.5098629  99.4262066  58.3991954  79.6923650 101.2482501  47.2746329
  79.6694338 101.3470188  46.3228213  80.0024286 102.0947651  47.5963496
  82.3511027 103.3058656  51.3892944  83.3054281 103.2742598  51.3222875
  82.1523551 102.8449279  52.2043170  82.9410410 101.8759772  53.9563742
  83.7603299 102.3703850  53.9798579  83.2147217 100.9591740  53.9281309
  92.6977006  94.2670524  43.3191697  91.8102861  94.5520175  43.1011892
  93.1130995  94.1064287  42.4718974  96.0491542  94.2917045  47.0346036
  96.8251932  94.7813498  47.3070653  95.3239676  94.7175099  47.4917906
  98.4864101  95.0044664  48.0919977  99.0808591  94.7640400  47.3813285
  98.5590684  94.2851795  48.7193513  80.7061256 108.8478275  48.4063142
  80.5715724 108.0878676  47.8401140  80.2893319 109.5719175  47.9391931
  91.8420219 104.0315199  37.4139717  92.5456069 104.2365201  38.0297373
  91.1182868 104.5991961  37.6788801  92.6718030  99.7825060  43.5341987
  92.6153231 100.2393611  42.6949620  93.2246372  99.0215745  43.3564830
  96.4822835  95.5714792  44.3592107  96.2259770  95.1711428  45.1900314
  95.8575703  96.2858586  44.2342246 100.7935173  98.3110865  46.8663398
 100.2334731  98.3804054  47.6394960 100.1878677  98.1351850  46.1462894
  83.8630382 109.7447592  48.6181584  83.7462766 110.6893025  48.5160275
  83.0422828 109.4421154  49.0067384  93.7506917 104.4697728  39.4638177
  94.5852521 104.0378926  39.2815652  93.5891260 104.2979742  40.3915072
  93.4052809 100.9729841  40.8294516  93.3501613 100.8074113  39.8882961
  92.7798864 101.6805874  40.9856706  78.1945324  96.2097906  54.6555939
  78.8404187  95.6996860  55.1443164  77.9862475  96.9466587  55.2299364
  90.7198716 103.2778753  60.1548079  91.5889876 103.4519405  59.7934714
  90.2405467 104.0973170  60.0323809  86.7148934  90.4737950  40.4079835
  86.7027604  91.4179790  40.5648106  87.6072356  90.2908096  40.1139296
  84.8884896 110.3975854  51.8337513  85.7912143 110.4299464  52.1504008
  84.6622266 109.4676305  51.8483849  86.6438498 109.1506841  48.4947591
  85.6934129 109.1508702  48.3811964  86.9470984 108.4039575  47.9783626
  90.5301054  87.0680727  44.6625772  89.7633450  86.5139214  44.8082454
  90.9411759  87.1402596  45.5239923  82.5342815  93.3565523  58.7530953
  83.3974276  93.0002328  58.9634277  81.9608225  93.0179418  59.4406357
 102.3791192 114.9867379  49.5593354 103.0169602 114.8674126  48.8556694
 102.2612035 115.9348223  49.6181306  99.1880898 114.9394807  49.4954879
  98.8499410 114.8235872  48.6075413 100.0570666 114.5385972  49.4755885
  95.0467714 116.7930284  45.4851769  94.4832579 116.7020221  44.7168057
  94.9320109 115.9730188  45.9654262  99.6700681 116.0929659  55.4541084
  99.6589322 115.6982457  54.5821588  99.8321321 115.3595732  56.0474856
  92.5932146 118.2881475  48.3235990  93.3853438 117.9472300  47.9082289
  92.8328796 118.3976450  49.2438143  94.5522900 117.5490388  41.1953369
  95.3253776 117.0019376  41.0566245  94.9048298 118.4134638  41.4067830
  96.3907942 118.8766771  54.4020268  96.0997808 119.7812402  54.2866934
  97.0264927 118.9183298  55.1164338  97.3164149 116.2543619  50.9921628
  97.9127721 116.0299642  50.2778591  97.3739121 115.5128365  51.5947076
  96.8889177 113.7083055  38.8271819  97.1414698 113.1864576  38.0655282
  95.9513737 113.5449200  38.9298502 101.9332460 112.7118833  46.6346562
 102.7195549 112.2938256  46.2836979 102.1971165 113.6164925  46.8028210
 102.1042538 118.1491683  41.3335219 101.4688371 118.2226310  42.0456123
 101.7739944 118.7385282  40.6554298 107.3340887 112.6494066  47.5379540
 108.0666059 112.0793283  47.7717370 106.5780243 112.2615667  47.9786046
  96.6085466 115.6111161  41.0296194  96.4921724 114.9356064  41.6977278
  96.7187726 115.1243534  40.2128347  98.9517007 115.0721308  44.7342883
  98.5875214 114.5451929  45.4455804  99.8084123 114.6819777  44.5609368
 104.8566308 106.3615640  51.9974149 104.5249633 107.2311051  51.7735364
 104.2611921 106.0451924  52.6768179  98.5922494 110.1011207  39.7304231
  98.7596896 110.9691444  40.0974702  98.4019663 110.2638489  38.8065521
 101.3497827 118.5628186  51.3970062 101.0498550 119.4653225  51.2885869
 101.0048887 118.2960369  52.2491215  94.8010309 115.0141983  47.4306766
  93.8760805 114.8818197  47.6384458  95.0494722 115.7936202  47.9276709
 104.7494971 111.0810726  49.0767499 103.8411848 111.0126135  48.7826260
 104.6982567 111.5582671  49.9049325  98.5711715 112.5568865  40.7150898
  98.4511340 113.0025916  41.5536378  97.8764303 112.9054182  40.1564436
  92.1619120 114.6575257  48.2650555  92.2911501 114.9109736  49.1789967
  91.4816571 115.2502965  47.9455210  98.8235837 112.5000372  57.0202396
  98.0469171 113.0594292  57.0105261  99.4626400 112.9857155  57.5417266
 106.6156617 109.2827165  50.8545373 105.9730998 109.5759698  50.2085168
 106.1111546 109.1680085  51.6598570 104.2696781 113.0290338  41.5431232
 105.1814637 113.2617725  41.3678930 103.7606428 113.6127382  40.9806311
  97.0782209 115.3085825  56.5820363  97.8196894 115.8470869  56.3055187
  96.3719195 115.9352114  56.7391915 102.5537549 117.4514966  55.1792525
 102.9620905 117.0097376  54.4347157 101.8314810 116.8767593  55.4326718
  98.9068619 112.3887573  52.5526082  99.7529814 112.8126986  52.6960731
  98.8467256 111.7321197  53.2464645 102.8766363 118.0116156  48.9344814
 102.2475226 118.1761871  48.2320882 102.4892025 118.4257766  49.7055778
 102.0568064 110.0491941  54.2107255 101.8128996 110.8034001  53.6741531
 102.3327995 110.4277289  55.0454502 104.0106527 116.5930553  52.8884521
 104.2223422 117.2362313  52.2118902 103.9636275 115.7592870  52.4206451
 101.6132756 109.2048374  49.7921093 100.7517235 109.5029628  50.0837831
 101.6395191 109.4218773  48.8602126  98.4294325 117.7490565  46.1994899
  98.8932671 118.0278268  45.4099521  98.1651123 116.8474009  46.0167989
  95.3218406 117.2962046  49.1374662  95.8919763 117.7249314  48.4992147
  95.9126518 117.0144631  49.8358848  97.3663211 113.8713717  43.0084464
  98.0687255 114.3234761  43.4758390  97.0343840 113.2297536  43.6364357
  95.8143573 112.4625474  57.3835673  95.1842233 113.1441754  57.6171070
  95.7079661 112.3508555  56.4388812  91.1088545 112.1297270  48.3101597
  90.3187599 112.3854798  47.8341708  91.5999793 112.9445607  48.4153638
  93.0603291 112.4941849  45.2685074  92.2634454 112.6060543  45.7868570
  92.8328883 112.8328501  44.4025965  98.8908958 119.0186552  53.2167589
  98.9553391 119.4806959  54.0525761  98.1819882 118.3883917  53.3449899
  89.3926248 112.3827760  50.7416588  89.6434287 113.2674770  51.0074164
  89.9285797 112.2032362  49.9691680  98.6056976 120.6854660  43.0846569
  98.4702651 121.5306195  43.5131417  99.1466788 120.8873937  42.3212503
  95.0924316 106.7646239  59.7460924  94.6991261 106.2112438  60.4208569
  95.9090456 107.0756818  60.1367442  92.0586373 118.2030098  43.6574494
  92.5710894 118.9973348  43.8080059  92.7109086 117.5056388  43.5908096
  93.8681258 121.3195854  45.7397247  94.0447886 122.2413819  45.5518231
  94.6638092 121.0054273  46.1691627  98.0092277 108.1804118  57.3381181
  98.7501990 108.7811272  57.2585643  98.2410199 107.4381756  56.7799223
  93.1533615 113.3660486  55.6159411  93.0387130 112.4645743  55.9166510
  92.2978132 113.6124182  55.2644227  94.9912574 122.8374028  51.7407590
  95.5419999 122.7091091  50.9684584  94.1524049 123.1368917  51.3902483
  98.7879745 119.1025155  56.0851821  99.3208081 118.3413444  55.8551129
  98.2593826 118.8098807  56.8275975 101.9549440 104.2085221  51.6145463
 101.6113709 105.0986863  51.5384573 102.3228402 104.0186879  50.7515048
  90.0235290 116.5318752  44.4334065  90.8610512 116.9415760  44.2167772
  90.2013558 115.5918194  44.4034259 101.9199722 114.1993833  40.1217898
 101.4046346 114.9698437  40.3606285 101.6477031 113.5258969  40.7450959
  99.5046833 109.0443533  45.1803136  98.6488430 108.6550384  45.0008775
  99.9173785 109.1235494  44.3202922 101.0345980 106.5789877  49.5794696
 100.5310776 106.5420012  48.7662501 101.3276587 107.4882619  49.6391353
  97.2788866 106.6628606  48.5860878  98.1441863 106.4671415  48.2266767
  97.3466375 106.4338958  49.5130234 101.7086025 112.0720925  41.9477679
 101.4036161 112.3867074  42.7987822 102.6616468 112.1502344  41.9905012
 100.1532457 118.2311148  43.5970633  99.6253819 117.4963907  43.2843870
  99.6519960 119.0085824  43.3510601  94.8851185 108.8930814  45.9577244
  95.4594937 108.6705996  45.2250437  95.4722167 108.9619509  46.7105846
 103.9430762 114.7804541  46.7641621 104.4562644 115.4134533  47.2663331
 104.5931986 114.1805737  46.3984981  95.2120772 110.9235275  39.9773130
  94.3758084 111.2609962  40.2982404  95.0725542 110.7884255  39.0400267
  97.1873853 105.7672063  44.6852314  96.5338265 105.4521080  44.0608929
  97.1454327 105.1447804  45.4112137  98.2985057 116.0491358  36.6005606
  97.3912119 115.8180612  36.7996755  98.7956089 115.2528977  36.7879587
 100.4211593 112.2553997  49.0099961  99.5034154 112.4768944  48.8521650
 100.8371737 112.3300307  48.1511669 101.2046641 113.6545412  44.1402642
 101.9518460 114.1666810  43.8309764 101.4738230 113.3329465  45.0007035
  99.4773291 116.1503953  41.1229596  98.5684510 115.8662986  41.2202066
  99.5068375 116.5703032  40.2632903 103.6525478 110.6902529  46.1221431
 102.9148235 110.1779915  46.4531674 103.9052251 110.2502910  45.3104708
 103.7537105 103.4678781  46.7163200 104.0595982 102.6076144  46.4289115
 104.4789710 104.0596401  46.5162194  90.0461461 113.8709467  45.1044798
  89.8485861 113.2778828  44.3795865  89.4908125 113.5661677  45.8220737
  98.0258185 113.7632574  47.2239391  98.0806795 112.8106410  47.1481868
  97.2149387 113.9192013  47.7080690  99.1749379 117.6912697  38.4617675
  98.7368809 116.9748556  38.0023312  99.9159820 117.9188812  37.9002766
  95.9650545 112.3809633  44.9829770  95.1518410 112.6803804  45.3894962
  96.4609539 111.9865322  45.7004252 101.5624757 112.8451458  53.8144664
 101.9174144 113.0722931  54.6739130 102.2096888 113.1769835  53.1921919
  95.4564620 109.9527989  50.5991005  96.0963999 109.8116748  49.9013968
  94.6242150 109.6662502  50.2229607  96.2324924 119.2530419  46.7125998
  97.0265522 118.7580739  46.5108573  95.5216616 118.7248282  46.3493703
  92.5407687 113.3973501  42.7885750  91.6105275 113.3357957  43.0055712
  92.6365159 112.8749454  41.9922392  92.4593236 109.9228314  45.3763992
  92.7200053 110.8373647  45.2673152  93.2810408 109.4552756  45.5260605
  93.9318161 111.3366071  52.5462817  94.6041215 111.1283433  51.8975465
  93.1047948 111.1388157  52.1068049  99.8343733 107.9628012  54.5628477
  99.1871648 108.6617962  54.4692954 100.6044749 108.3964156  54.9304726
 100.0107868 115.8008777  52.6225297 100.9399928 115.9519937  52.4494264
  99.5898898 115.8892798  51.7673944  98.8096200 119.8259441  50.3923835
  98.6707285 119.4578226  51.2649773  98.0210796 120.3407081  50.2207793
 100.3601415 119.2041044  47.7812673 100.0251247 119.1641814  48.6770322
  99.8605360 118.5385760  47.3083083  94.3345659 114.6108674  53.3065254
  94.1965457 113.8788913  53.9076793  95.2450582 114.5217574  53.0249441
 103.2960606 116.5497078  38.0549732 102.6789777 115.8243907  37.9582785
 102.8277095 117.3106439  37.7116806  96.9627959 114.3228633  52.7948933
  97.6727578 113.6821826  52.7535552  96.9197267 114.5741528  53.7175114
  95.6756893 111.3093851  54.6144573  95.1394250 110.8584590  55.2666169
  95.0873602 111.4439760  53.8715037  95.0859152 110.7682503  37.1771036
  94.2088619 110.6471303  36.8133283  95.5616905 109.9768581  36.9249925
  86.6061292 115.5559662  47.2712544  87.2932332 115.2421392  46.6833559
  86.4509421 116.4601027  46.9979795  91.4096014 110.4449859  51.6997567
  91.3254203 109.8375529  50.9647977  90.5878721 110.9358877  51.7007064
 101.5819728 108.9303422  47.0667762 102.0788428 108.1773385  46.7468833
 100.8106710 108.9667739  46.5010972 102.6649509 117.6875110  44.6406186
 101.7305788 117.8076572  44.4710890 102.8426178 116.7847576  44.3766196
  98.1654697 111.0720805  46.7939447  97.7952485 110.5191846  47.4820353
  98.6613790 110.4678939  46.2414447 106.0522060 113.5292429  45.1756220
 106.5182513 114.3620421  45.1016523 106.5029561 113.0637411  45.8801478
  95.9943896 121.5318301  53.8894465  96.6953355 122.1654783  54.0423859
  95.5239011 121.8733032  53.1290104 104.0238723 105.8973016  49.2147121
 103.1101803 106.1277243  49.3829328 104.4531825 105.9811460  50.0661154
 103.7945182 114.0862908  51.7147015 103.1416632 114.3338815  51.0599468
 104.1725562 113.2727046  51.3809493  99.8432755 114.8282719  58.2013052
  99.1673392 114.7276848  58.8715428 100.6660389 114.6721933  58.6649050
  91.5911614 121.0654656  50.8225568  92.1765051 120.3198343  50.9553472
  91.3936452 121.3758612  51.7062231  94.4450269 124.1005903  45.8388010
  93.7760644 124.5852031  45.3552050  94.3063139 124.3475123  46.7531388
  86.1829268 113.6360256  49.5430011  86.2213368 113.1023846  50.3367129
  85.6769561 113.1095461  48.9240988  93.5620031 108.4824796  53.0392553
  93.6261357 109.3439627  52.6269951  93.4987151 107.8698798  52.3064912
  93.0372303 110.5547929  56.6865587  93.6644342 110.1725006  57.3003112
  92.1800222 110.3362131  57.0521280  89.8137846 112.3624358  42.6183942
  90.1091287 111.4535036  42.5650996  88.9125882 112.3412097  42.2964944
  93.3432093 110.4380354  48.6011491  92.6218679 111.0516322  48.4618964
  94.1325349 110.9738119  48.5228137  96.1458407 107.7734781  54.8752142
  96.6692808 108.0197078  55.6378452  95.9270740 108.6054816  54.4555280
  91.5425688 110.0438456  42.7423267  91.2138394 109.1635834  42.5598373
  91.8965058 109.9886124  43.6299657  94.6567511 110.3311425  43.1098745
  94.9963583 110.8597347  42.3877353  95.1039631 110.6691831  43.8857311
  97.3510952 108.7148476  52.5601813  97.0107772 107.9156289  52.9622493
  96.6449958 109.0150187  51.9878646  98.0027423 105.7997789  51.0129136
  98.8253493 105.3258267  50.8908026  98.2465487 106.5788272  51.5127822
  96.6435658 108.8286047  41.3092038  97.3644020 109.2067300  40.8055755
  96.0200962 109.5474924  41.4127016 100.7866781 109.5331196  42.2450370
 101.0030395 110.4155834  41.9439198 100.3060848 109.1417409  41.5156012
  95.5266002 112.4916909  48.8221115  95.3810583 112.8057212  49.7145396
  95.0491206 113.1101809  48.2692013  97.3862385 109.4819457  48.8702004
  97.3723954 108.5860550  48.5334302  98.1034813 109.4890121  49.5040290
  99.2388516 109.9156797  50.9155132  98.9806294 110.8373868  50.9139462
  98.7073556 109.5187232  51.6055596  90.0011664 115.0322254  51.7608776
  89.4565132 115.8082062  51.8929050  90.8791014 115.3793058  51.6027897
  96.7899281 108.3633837  44.1389574  96.9115192 107.4350484  44.3380462
  96.5001323 108.3772523  43.2267890  99.6590471 106.0488748  47.2756294
  99.6812168 106.1128081  46.3208274 100.0758530 105.2093256  47.4696800
  90.7877686 114.1592150  54.6538933  90.0459422 114.3074785  55.2403563
  90.4670431 114.4200415  53.7905682  91.2334300 122.0457579  46.6849327
  92.0592320 121.7461350  46.3047971  90.8828352 121.2765201  47.1339116
  96.2015833 121.3984047  48.7547001  95.5795842 120.7354752  48.4549229
  96.8720700 121.4245179  48.0720649  89.4342905 119.9643905  47.6438261
  88.5974813 119.5366079  47.4622262  89.4066550 120.1576348  48.5809052
  96.2740361 109.8765835  58.3479507  96.3228516 110.7527958  57.9657277
  96.8162875 109.3343228  57.7751150  95.7629340 119.9487970  42.2305461
  95.9117460 120.6323434  41.5772134  96.5695783 119.9293060  42.7454917
 104.1696844 113.2530352  56.2572679 105.0706706 113.1136817  55.9656677
 104.2444818 113.4184807  57.1970857  98.5039649 110.6297207  55.1025866
  97.6342958 110.9230773  54.8308454  98.7399129 111.2137652  55.8233129
 106.6298466 114.8128981  53.6535452 107.1052588 115.0056627  52.8454303
 105.7064032 114.8688166  53.4078836  93.5181973 115.9753148  43.2366530
  93.2728015 115.0715478  43.4346741  93.6877888 115.9770298  42.2946008
 101.2078683 106.8476824  52.6191286 101.7260627 107.5837851  52.2937775
 100.8533816 107.1540817  53.4538045  92.7877620 111.7081505  40.7352692
  92.0946865 111.7825860  40.0792728  92.5429372 110.9441849  41.2574209
 101.4591277 103.2677107  48.1392183 101.7393031 102.6000296  48.7652609
 102.2441884 103.4606202  47.6266846 105.3300135 111.6894741  51.8863758
 106.2817558 111.7892838  51.9075982 105.1603586 110.8973009  52.3961842
 103.3514515 108.7750324  52.0723159 102.7564447 109.0555337  51.3769647
 103.0664212 109.2644225  52.8439900  99.6471544 113.7796913  37.0433261
 100.5930649 113.6503121  37.1121679  99.2685789 113.0411575  37.5202690
 107.9582702 111.7011904  51.0464341 107.4421750 110.9170360  50.8594269
 108.8422650 111.3730620  51.2110860 105.6193429 105.4452919  47.0060153
 105.4218250 105.1368008  47.8903485 106.2293134 106.1714558  47.1358083
  99.5310237 117.8314659  58.5033918 100.4513246 118.0093258  58.6973965
  99.4959820 116.8870705  58.3513618  97.8314461 111.7046890  36.9788147
  96.9245917 111.4080002  37.0550860  98.1090442 111.4076708  36.1122433
  88.7492402 113.0253253  47.4287193  88.4295186 112.1718561  47.1361567
  88.2025830 113.2401831  48.1845160  92.5272309 115.7415694  51.1456700
  92.7458319 116.6732802  51.1644733  92.9398083 115.3823669  51.9311503
  99.4476527 106.2483779  43.1332388  98.6377255 105.9030864  43.5087634
 100.1360944 105.9391323  43.7219999 101.3767075 105.3261826  44.7556685
 101.9298114 105.7457280  45.4146708 101.6137162 104.3997574  44.7979641
  97.4000174 111.3148900  60.5359448  97.2996901 112.2643257  60.4671540
  97.1821716 110.9867139  59.6635519  96.6013246 108.5633825  37.1200126
  97.4632410 108.8888723  37.3795943  96.7863590 107.7765321  36.6073192
  88.6180662 116.6456165  49.3980315  87.9244133 116.2310117  48.8850269
  89.3653653 116.6876701  48.8013733 104.7545882 107.4362351  44.2635349
 104.1744551 108.0947155  43.8813401 104.4881815 106.6139696  43.8522766
 103.2049449 106.8367409  46.4656669 103.7049227 106.9483944  45.6570988
 103.8485057 106.5328462  47.1057478  97.2631444 114.7446039  59.3524510
  96.7798526 115.5446399  59.5588399  97.3492384 114.7553984  58.3991954
  90.5317404 116.5774418  47.2746329  90.5088092 116.6762106  46.3228213
  90.8418041 117.4239569  47.5963496  93.1904782 118.6350573  51.3892944
  94.1448035 118.6034516  51.3222875  92.9917306 118.1741197  52.2043170
  93.7804164 117.2051689  53.9563742  94.5997053 117.6995768  53.9798579
  94.0540972 116.2883658  53.9281309 103.5370760 109.5962442  43.3191697
 102.6496615 109.8812092  43.1011892 103.9524749 109.4356205  42.4718974
 106.8885296 109.6208963  47.0346036 107.6645687 110.1105415  47.3070653
 106.1633431 110.0467017  47.4917906 109.3257855 110.3336582  48.0919977
 109.9202346 110.0932318  47.3813285 109.3984439 109.6143713  48.7193513
  91.5455011 124.1770193  48.4063142  91.4109479 123.4170594  47.8401140
  91.1287073 124.9011093  47.9391931 103.5111784 115.1116978  43.5341987
 103.4546985 115.5685529  42.6949620 104.0640126 114.3507662  43.3564830
 107.3216590 110.9006710  44.3592107 107.0653524 110.5003345  45.1900314
 106.6969458 111.6150503  44.2342246 104.2446563 116.3021759  40.8294516
 104.1895367 116.1366030  39.8882961 103.6192619 117.0097792  40.9856706
  89.0339078 111.5389823  54.6555939  89.6797942 111.0288777  55.1443164
  88.8256229 112.2758505  55.2299364  97.5542689 105.8029868  40.4079835
  97.5421359 106.7471708  40.5648106  98.4466111 105.6200013  40.1139296
 101.3694808 102.3972645  44.6625772 100.6027204 101.8431131  44.8082454
 101.7805513 102.4694513  45.5239923  93.3736569 108.6857440  58.7530953
  94.2368031 108.3294245  58.9634277  92.8001980 108.3471335  59.4406357
  37.3428666   0.0177996  36.2838660  37.9807076  -0.1015257  35.5802001
  37.2249509   0.9658840  36.3426613  34.1518372  -0.0294576  36.2200185
  33.8136884  -0.1453512  35.3320720  35.0208141  -0.4303411  36.2001191
  34.6338155   1.1240275  42.1786391  34.6226796   0.7293074  41.3066894
  34.7958795   0.3906348  42.7720162  27.5569620   3.3192092  35.0481297
  28.3490912   2.9782916  34.6327596  27.7966270   3.4287067  35.9683450
  31.3545416   3.9077387  41.1265575  31.0635282   4.8123018  41.0112241
  31.9902401   3.9493915  41.8409644  32.2801623   1.2854236  37.7166934
  32.8765196   1.0610258  37.0023897  32.3376595   0.5438981  38.3192382
  42.2978362  -2.3195317  34.2624847  43.0303534  -2.8896101  34.4962677
  41.5417717  -2.7073717  34.7031353  39.8203782  -8.6073743  38.7219456
  39.4887107  -7.7378332  38.4980671  39.2249395  -8.9237459  39.4013486
  36.3135302   3.5938803  38.1215368  36.0136025   4.4963842  38.0131176
  35.9686361   3.3270986  38.9736521  39.7132445  -3.8878657  35.8012806
  38.8049323  -3.9563249  35.5071567  39.6620041  -3.4106712  36.6294631
  31.2956081  10.3583123  31.0886336  31.2180111  11.3090948  31.1674817
  30.6917725  10.0128996  31.7461262  33.7873311  -2.4689011  43.7447703
  33.0106645  -1.9095091  43.7350568  34.4263874  -1.9832228  44.2662573
  41.5794092  -5.6862219  37.5790680  40.9368472  -5.3929686  36.9330474
  41.0749020  -5.8009298  38.3843876  32.0419683   0.3396442  43.3065670
  32.7834368   0.8781486  43.0300494  31.3356669   0.9662731  43.4637222
  37.5175023   2.4825582  41.9037831  37.9258379   2.0407993  41.1592464
  36.7952285   1.9078210  42.1572024  33.8706093  -2.5801811  39.2771388
  34.7167288  -2.1562397  39.4206037  33.8104731  -3.2368187  39.9709952
  37.8403838   3.0426773  35.6590120  37.2112700   3.2072487  34.9566188
  37.4529500   3.4568383  36.4301084  41.7193070   3.9781211  33.0134484
  41.0344108   4.3580112  32.4631517  41.8036919   4.5876537  33.7466432
  37.0205538  -4.9197443  40.9352562  36.7766470  -4.1655382  40.3986838
  37.2965469  -4.5412095  41.7699809  38.9744001   1.6241170  39.6129828
  39.1860896   2.2672930  38.9364209  38.9273749   0.7903486  39.1451758
  33.3931800   2.7801181  32.9240205  33.8570145   3.0588884  32.1344828
  33.1288598   1.8784626  32.7413296  30.2855881   2.3272663  35.8619969
  30.8557238   2.7559931  35.2237453  30.8763993   2.0455247  36.5604154
  30.7781047  -2.5063910  44.1080980  30.1479708  -1.8247629  44.3416377
  30.6717135  -2.6180828  43.1634118  40.0889829   4.5013125  37.7852185
  40.9107273   4.0993313  37.5034867  40.0852232   4.3981359  38.7368301
  33.8546433   4.0497169  39.9412895  33.9190865   4.5117576  40.7771067
  33.1457357   3.4194533  40.0695205  48.1795822   0.8451874  34.1337156
  47.4259531   0.2759272  33.9781161  48.3143363   0.8114538  35.0807791
  28.8318732   6.3506470  32.4642554  29.0085361   7.2724435  32.2763538
  29.6275566   6.0364890  32.8936934  35.1962927   6.3388843  43.9392218
  34.7526781   5.5525221  43.6213122  35.8580140   6.5267993  43.2736109
  29.9550048   7.8684644  38.4652896  30.5057473   7.7401708  37.6929890
  29.1161524   8.1679533  38.1147789  37.2944165   6.6191642  41.9673619
  37.2762640   7.4400524  41.4753888  38.2164085   6.4945718  42.1923760
  33.7517219   4.1335772  42.8097128  34.2845556   3.3724060  42.5796435
  33.2231300   3.8409424  43.5521282  40.0962778   1.4570785  35.4382986
  39.4386452   2.1470046  35.5263114  40.9003177   1.8467217  35.7816972
  38.9068236  -0.1884842  33.4886928  39.4200118   0.4445149  33.9908637
  39.5569460  -0.7883647  33.1230288  35.3849067  -2.7135387  35.7345268
  34.4671629  -2.4920440  35.5766956  35.8009211  -2.6389076  34.8756975
  39.6730033   4.7921159  31.6166070  39.2192360   3.9512069  31.6731261
  39.0423999   5.4282557  31.9540850  38.1162972   6.6297656  32.5515888
  38.4085946   7.1902713  31.8328254  38.6261592   6.9226217  33.3069047
  33.0796597   7.4078007  33.6409342  33.0372776   7.6338853  32.7117874
  33.9959296   7.1741381  33.7895143  36.5262231  -2.1237926  40.5389971
  36.8811619  -1.8966452  41.3984437  37.1734362  -1.7919549  39.9167226
  42.2559968   0.9980510  31.2439300  42.1177866   1.1882106  30.3160489
  41.8996187   1.7599893  31.7007351  42.2829347   3.0657037  36.2550571
  42.7165854   2.9732326  37.1033625  42.9960928   3.0414538  35.6170587
  31.1962398   4.2841036  33.4371304  31.9902996   3.7891356  33.2353879
  30.4854090   3.7558899  33.0739010  36.0157242   6.6659131  37.7883672
  36.0694265   7.2350068  38.5561388  35.1472024   6.8361016  37.4237709
  43.1444897   3.1080738  38.7883457  43.3380787   4.0126548  39.0342732
  43.0445515   2.6488157  39.6222042  38.2060006   3.2587481  44.3624337
  38.0545512   3.0298032  43.4454421  38.1964685   4.2158082  44.3755682
  34.9745342   0.8319393  39.3470604  35.9037402   0.9830553  39.1739571
  34.5536372   0.9203414  38.4919250  33.7733674   4.8570058  37.1169141
  33.6344760   4.4888842  37.9895079  32.9848270   5.3717697  36.9453099
  34.3681826   9.9579154  28.4594678  34.5433581   9.4867198  29.2740301
  33.6814614  10.5844921  28.6875939  35.3238889   4.2351661  34.5057979
  34.9888722   4.1952431  35.4015629  34.8242835   3.5696376  34.0328389
  29.2983133  -0.3580709  40.0310560  29.1602931  -1.0900471  40.6322099
  30.2088056  -0.4471809  39.7494748  31.9265434  -0.6460750  39.5194240
  32.6365052  -1.2867558  39.4780858  31.8834742  -0.3947855  40.4420421
  39.9152212   6.2906603  42.4400819  39.8564758   5.6065823  41.7731402
  40.3171731   7.0325593  41.9881445  28.9342911  13.1068517  35.2334538
  29.1739509  13.7387041  35.9113557  28.0912108  12.7556557  35.5199897
  39.9169620   4.2546187  40.6714799  39.0296398   3.9172109  40.7941198
  40.4868171   3.5229218  40.9083564  33.4470773   8.9147640  37.6376042
  33.3740944   9.7202611  38.1495347  33.0048166   9.1139605  36.8124063
  33.2360553   8.1519410  31.1478864  32.4528074   8.6941090  31.2417088
  33.9353298   8.6693389  31.5473105  44.3986960  -0.3345595  35.4331360
  44.3876836   0.5479120  35.0625294  43.5304340  -0.6874045  35.2385898
  35.9069456   8.8134474  39.7934201  36.6197429   9.4481938  39.7210102
  35.4159485   8.9098340  38.9774203  37.6286983   2.7185726  31.3651492
  36.6943262   2.8387189  31.1956197  37.8063652   1.8158193  31.1011502
  41.0159535  -1.4396954  31.9001527  41.4819987  -0.6068963  31.8261829
  41.4667035  -1.9051973  32.6046785  30.9581370   6.5628917  40.6139772
  31.6590829   7.1965400  40.7669166  30.4876485   6.9043649  39.8535411
  38.7582656  -0.8826476  38.4392322  38.1054106  -0.6350568  37.7844775
  39.1363036  -1.6962337  38.1054799  35.7189830   9.1533218  32.5420492
  35.9012224   8.3354874  33.0048245  36.5422816   9.3700910  32.1045382
  36.0531995   8.0801403  29.8035541  36.5819762   7.5693857  29.1905703
  36.3160215   7.7643933  30.6681074  34.8070229  -0.1406664  44.9258359
  34.1310866  -0.2412535  45.5960734  35.6297863  -0.2967451  45.3894356
  26.5549088   6.0965272  37.5470874  27.1402525   5.3508960  37.6798778
  26.3573927   6.4069229  38.4307538  29.4087743   9.1316519  32.5633317
  28.7398119   9.6162647  32.0797357  29.2700613   9.3785740  33.4776695
  33.5493012  11.1660263  39.1615975  34.1011320  11.3291884  39.9265060
  33.8899205  11.7564701  38.4896000  38.4003886   5.9921521  45.0164629
  38.9443790   6.6051479  44.5219584  37.8190731   6.5501099  45.5331642
  36.6861399   9.1142239  36.1479657  36.5612539   8.3131978  35.6390603
  37.3440490   9.6088432  35.6593627  38.7496308   6.9151259  37.7759207
  37.8026643   6.7956610  37.7037534  39.0979081   6.0273757  37.8585469
  35.7542741   6.7103975  33.9763559  35.6067703   5.7820682  34.1571129
  36.5796234   6.7324066  33.4920635  39.3576863   7.5332534  35.0628432
  40.2823410   7.3275395  34.9252883  39.1892166   7.2848935  35.9717774
  39.1472179   8.0518201  30.4190524  39.3209056   7.4864623  29.6664376
  39.6401070   8.8519096  30.2370014  45.0011570   0.8154624  32.0380823
  45.4442716   0.0661949  31.6399947  44.1238080   0.8064760  31.6554555
  40.1347351   7.3684965  27.5187422  40.8298256   7.9891658  27.7374737
  40.4770502   6.5180317  27.7939800  42.0338774   4.8184671  29.0474753
  42.5590099   5.1571944  28.3224073  41.9461127   3.8831686  28.8637887
  33.6958823   8.7318745  41.1764629  34.0045950   8.4867891  42.0487329
  34.4934305   8.9365383  40.6883500  33.7179435  10.8856654  33.4070006
  33.2784426  10.3933033  34.1002863  34.4687552  10.3429622  33.1662081
  26.1971774   7.0768195  33.4094634  27.0229794   6.7771967  33.0293277
  25.8465826   6.3075818  33.8584423  31.1653307   6.4294663  35.4792308
  30.5433317   5.7665368  35.1794535  31.8358174   6.4555795  34.7965955
  41.7232681   5.4517575  44.3525951  40.9328224   5.4341713  43.8130450
  41.4866035   5.9905868  45.1074987  41.8430556   2.3010041  41.6658679
  41.8928561   2.1360048  42.6074202  41.7344479   1.4337300  41.2756560
  39.1334318  -1.7159031  42.9817986  40.0344181  -1.8552566  42.6901984
  39.2082293  -1.5504576  43.9216163  33.4677123  -4.3392176  41.8271172
  32.5980433  -4.0458610  41.5553761  33.7036604  -3.7551731  42.5478436
  43.3448752   4.7206982  41.9100701  43.0533561   5.0836963  42.7464162
  42.7320884   4.0073991  41.7314033  44.5444435   2.2859862  34.4303271
  45.3791326   2.7249666  34.5940831  44.6803564   1.8098515  33.6111517
  41.5935941  -0.1560403  40.3780759  42.0690062   0.0367243  39.5699610
  40.6701506  -0.1001217  40.1324142  40.2937610  -3.2794643  38.6109064
  41.2455033  -3.1796545  38.6321288  40.1241060  -4.0716374  39.1207149
  38.3151989  -6.1939060  38.7968465  37.7201921  -5.9134047  38.1014954
  38.0301686  -5.7045159  39.5685206  42.7725687  -0.0588523  37.7251364
  42.7402008  -0.9972522  37.9111048  43.3826311   0.0195514  36.9917189
  42.9220176  -3.2677480  37.7709647  42.4059225  -4.0519023  37.5839576
  43.8060124  -3.5958763  37.9356167  48.5902237   1.0027484  36.8657401
  49.3205626   0.7412772  37.4265104  47.9809183   0.2656206  36.9059469
  46.6717534  -0.8564654  37.4631852  45.9450698  -0.9908689  36.8548344
  46.2564821  -0.5487825  38.2688570  34.4947711   2.8625276  45.2279225
  35.4150720   3.0403875  45.4219272  34.4597294   1.9181321  45.0758924
  27.4909783   0.7726311  37.8702006  27.7095793   1.7043418  37.8890040
  27.9035557   0.4134285  38.6556810  32.3637649  -3.6540484  47.2604755
  32.2634376  -2.7046127  47.1916846  32.1459191  -3.9822245  46.3880825
  32.2268919  -0.2243345  46.0769817  31.7436000   0.5757015  46.2833706
  32.3129858  -0.2135400  45.1237261  28.1542256   3.6661190  38.1138251
  29.1085510   3.6345132  38.0468182  27.9554780   3.2051814  38.9288476
  28.7441638   2.2362306  40.6809048  29.5634527   2.7306385  40.7043885
  29.0178446   1.3194274  40.6526616  41.8522771  -5.3480421  33.7591343
  42.6283161  -4.8583968  34.0315960  41.1270905  -4.9222367  34.2163212
  44.2895329  -4.6352802  34.8165284  44.8839820  -4.8757066  34.1058592
  44.3621913  -5.3545671  35.4438820  26.5092485   9.2080809  35.1308448
  26.3746953   8.4481210  34.5646446  26.0924547   9.9321709  34.6637237
  46.5966402  -1.3286601  33.5908705  46.0365960  -1.2593411  34.3640267
  45.9909905  -1.5045616  32.8708201  29.6661611  10.1050126  35.3426891
  29.5493995  11.0495559  35.2405581  28.8454057   9.8023688  35.7312690
  36.5229945   3.6381287  46.8793386  37.3921104   3.8121940  46.5180021
  36.0436696   4.4575704  46.7569115  30.6916125  10.7578388  38.5582819
  31.5943372  10.7901999  38.8749314  30.4653495   9.8278839  38.5729155
  32.4469727   9.5109375  35.2192898  31.4965358   9.5111236  35.1057270
  32.7502213   8.7642109  34.7028933  48.1822421  15.3469913  36.2838660
  48.8200831  15.2276661  35.5802001  48.0643263  16.2950757  36.3426613
  44.9912127  15.2997341  36.2200185  44.6530638  15.1838406  35.3320720
  45.8601895  14.8988506  36.2001191  40.8498943  17.1532818  32.2097076
  40.2863808  17.0622755  31.4413364  40.7351338  16.3332722  32.6899569
  45.4731910  16.4532193  42.1786391  45.4620551  16.0584991  41.3066894
  45.6352549  15.7198266  42.7720162  38.3963374  18.6484009  35.0481297
  39.1884666  18.3074834  34.6327596  38.6360025  18.7578984  35.9683450
  46.4298501  20.8203785  27.5211541  45.7786481  21.4057866  27.1345555
  47.2242864  21.3509980  27.5806578  40.3554128  17.9092923  27.9198675
  41.1285004  17.3621910  27.7811551  40.7079527  18.7737172  28.1313137
  42.1939171  19.2369305  41.1265575  41.9029037  20.1414936  41.0112241
  42.8296155  19.2785833  41.8409644  43.1195378  16.6146153  37.7166934
  43.7158950  16.3902176  37.0023897  43.1770349  15.8730899  38.3192382
  42.6920406  14.0685589  25.5517125  42.9445927  13.5467110  24.7900588
  41.7544965  13.9051734  25.6543809  47.7363689  13.0721367  33.3591869
  48.5226778  12.6540790  33.0082286  48.0002393  13.9767459  33.5273517
  47.9073766  18.5094217  28.0580525  47.2719599  18.5828844  28.7701430
  47.5771173  19.0987816  27.3799605  53.1372116  13.0096600  34.2624847
  53.8697288  12.4395817  34.4962677  52.3811472  12.6218201  34.7031353
  42.4116695  15.9713695  27.7541500  42.2952953  15.2958598  28.4222585
  42.5218955  15.4846069  26.9373653  44.7548236  15.4323842  31.4588189
  44.3906443  14.9054463  32.1701111  45.6115352  15.0422311  31.2854675
  50.6597537   6.7218174  38.7219456  50.3280861   7.5913585  38.4980671
  50.0643150   6.4054458  39.4013486  44.3953723  10.4613742  26.4549538
  44.5628125  11.3293978  26.8220009  44.2050892  10.6241023  25.5310827
  47.1529056  18.9230720  38.1215368  46.8529779  19.8255759  38.0131176
  46.8080116  18.6562904  38.9736521  40.6041538  15.3744517  34.1552073
  39.6792034  15.2420731  34.3629765  40.8525951  16.1538737  34.6522015
  50.5526200  11.4413261  35.8012806  49.6443077  11.3728669  35.5071567
  50.5013796  11.9185206  36.6294631  44.3742944  12.9171399  27.4396205
  44.2542569  13.3628450  28.2781685  43.6795532  13.2656717  26.8809743
  37.9650349  15.0177791  34.9895862  38.0942730  15.2712270  35.9035274
  37.2847800  15.6105499  34.6700517  42.1349836  25.6875041  31.0886336
  42.0573866  26.6382866  31.1674817  41.5311479  25.3420913  31.7461262
  44.6267066  12.8602906  43.7447703  43.8500400  13.4196826  43.7350568
  45.2657629  13.3459689  44.2662573  52.4187846   9.6429699  37.5790680
  51.7762226   9.9362232  36.9330474  51.9142775   9.5282619  38.3843876
  50.0728010  13.3892872  28.2676539  50.9845866  13.6220259  28.0924236
  49.5637657  13.9729916  27.7051617  42.8813438  15.6688360  43.3065670
  43.6228122  16.2073404  43.0300494  42.1750423  16.2954648  43.4637222
  48.3568778  17.8117500  41.9037831  48.7652134  17.3699911  41.1592464
  47.6346039  17.2370128  42.1572024  44.7099848  12.7490107  39.2771388
  45.5561043  13.1729520  39.4206037  44.6498485  12.0923731  39.9709952
  48.6797592  18.3718691  35.6590120  48.0506455  18.5364405  34.9566188
  48.2923254  18.7860300  36.4301084  52.5586824  19.3073129  33.0134484
  51.8737862  19.6872030  32.4631517  52.6430673  19.9168455  33.7466432
  47.8599293  10.4094475  40.9352562  47.6160225  11.1636536  40.3986838
  48.1359223  10.7879823  41.7699809  49.8137756  16.9533088  39.6129828
  50.0254651  17.5964847  38.9364209  49.7667504  16.1195404  39.1451758
  47.4163985   9.5650908  36.5166400  46.5548464   9.8632162  36.8083137
  47.4426419   9.7821307  35.5847432  44.2325554  18.1093099  32.9240205
  44.6963900  18.3880802  32.1344828  43.9682352  17.2076543  32.7413296
  41.1249635  17.6564580  35.8619969  41.6950992  18.0851849  35.2237453
  41.7157747  17.3747165  36.5604154  43.1694440  14.2316251  29.7329771
  43.8718483  14.6837295  30.2003697  42.8375069  13.5900070  30.3609664
  41.6174802  12.8228008  44.1080980  40.9873462  13.5044289  44.3416377
  41.5110890  12.7111089  43.1634118  36.9119774  12.4899804  35.0346904
  36.1218828  12.7457332  34.5587015  37.4031021  13.3048142  35.1398945
  50.9283584  19.8305043  37.7852185  51.7501027  19.4285230  37.5034867
  50.9245987  19.7273277  38.7368301  38.8634519  12.8544383  31.9930381
  38.0665683  12.9663077  32.5113877  38.6360112  13.1931035  31.1271271
  44.6940187  19.3789086  39.9412895  44.7584620  19.8409493  40.7771067
  43.9851111  18.7486451  40.0695205  35.1957477  12.7430294  37.4661895
  35.4465516  13.6277304  37.7319471  35.7317025  12.5634896  36.6936987
  59.0189577  16.1743791  34.1337156  58.2653285  15.6051190  33.9781161
  59.1537118  16.1406456  35.0807791  44.4088205  21.0457194  29.8091876
  44.2733880  21.8908729  30.2376724  44.9498017  21.2476471  29.0457810
  40.8955544   7.1248774  46.4706231  40.5022490   6.5714972  47.1453875
  41.7121685   7.4359352  46.8612749  37.8617602  18.5632632  30.3819801
  38.3742123  19.3575882  30.5325366  38.5140315  17.8658922  30.3153402
  39.6712487  21.6798388  32.4642554  39.8479115  22.6016353  32.2763538
  40.4669320  21.3656807  32.8936934  43.8123505   8.5406653  44.0626488
  44.5533219   9.1413806  43.9830950  44.0441428   7.7984290  43.5044530
  38.9564843  13.7263020  42.3404717  38.8418359  12.8248277  42.6411816
  38.1009361  13.9726717  41.9889534  46.0356681  21.6680760  43.9392218
  45.5920535  20.8817139  43.6213122  46.6973895  21.8559911  43.2736109
  40.7943802  23.1976562  38.4652896  41.3451227  23.0693625  37.6929890
  39.9555278  23.4971451  38.1147789  48.1337919  21.9483560  41.9673619
  48.1156395  22.7692441  41.4753888  49.0557839  21.8237635  42.1923760
  44.5910973  19.4627690  42.8097128  45.1239310  18.7015978  42.5796435
  44.0625054  19.1701341  43.5521282  47.7580668   4.5687756  38.3390769
  47.4144938   5.4589397  38.2629880  48.1259631   4.3789413  37.4760354
  35.8266519  16.8921286  31.1579371  36.6641741  17.3018294  30.9413079
  36.0044787  15.9520728  31.1279565  47.7230951  14.5596367  26.8463204
  47.2077574  15.3300971  27.0851592  47.4508260  13.8861503  27.4696266
  45.3078062   9.4046068  31.9048443  44.4519658   9.0152918  31.7254081
  45.7205014   9.4838028  31.0448228  46.8377209   6.9392411  36.3040002
  46.3342004   6.9022546  35.4907808  47.1307816   7.8485153  36.3636659
  43.0820095   7.0231140  35.3106184  43.9473091   6.8273949  34.9512074
  43.1497604   6.7941492  36.2375541  52.6965225  17.3128721  28.7816378
  51.9194668  16.9739881  28.3371540  53.3756706  17.3181345  28.1071343
  47.5117254  12.4323459  28.6722986  47.2067390  12.7469608  29.5233129
  48.4647696  12.5104879  28.7150319  45.9563686  18.5913682  30.3215940
  45.4285048  17.8566442  30.0089177  45.4551189  19.3688358  30.0755908
  50.9356532  16.7862703  35.4382986  50.2780207  17.4761964  35.5263114
  51.7396931  17.1759135  35.7816972  40.6882414   9.2533348  32.6822551
  41.2626166   9.0308530  31.9495744  41.2753396   9.3222043  33.4351152
  49.7461991  15.1407075  33.4886928  50.2593873  15.7737067  33.9908637
  50.3963215  14.5408271  33.1230288  41.0152001  11.2837809  26.7018436
  40.1789313  11.6212496  27.0227711  40.8756770  11.1486789  25.7645573
  42.9905081   6.1274597  31.4097620  42.3369494   5.8123614  30.7854235
  42.9485556   5.5050338  32.1357443  44.1016286  16.4093892  23.3250913
  43.1943348  16.1783146  23.5242062  44.5987318  15.6131512  23.5124894
  47.0084365  25.1191400  26.2447599  46.3346064  25.4223096  26.8532557
  47.3950187  25.9220480  25.8953056  46.2242822  12.6156531  35.7345268
  45.3065383  12.8371478  35.5766956  46.6402965  12.6902841  34.8756975
  47.0077870  14.0147947  30.8647948  47.7549688  14.5269344  30.5555070
  47.2769459  13.6931999  31.7252342  45.2804520  16.5106487  27.8474903
  44.3715739  16.2265520  27.9447372  45.3099604  16.9305566  26.9878209
  50.5123787  20.1213077  31.6166070  50.0586114  19.2803987  31.6731261
  49.8817754  20.7574475  31.9540850  49.4556707  11.0505063  32.8466738
  48.7179463  10.5382449  33.1776980  49.7083480  10.6105444  32.0350015
  48.9556726  21.9589573  32.5515888  49.2479701  22.5194631  31.8328254
  49.4655347  22.2518134  33.3069047  49.5568334   3.8281315  33.4408507
  49.8627211   2.9678678  33.1534422  50.2820939   4.4198935  33.2407501
  35.8492690  14.2312001  31.8290105  35.6517090  13.6381362  31.1041171
  35.2939354  13.9264212  32.5466044  43.8289414  14.1235108  33.9484698
  43.8838024  13.1708944  33.8727175  43.0180616  14.2794547  34.4325996
  44.9780608  18.0515231  25.1862981  44.5400037  17.3351090  24.7268619
  45.7191048  18.2791346  24.6248073  41.7681774  12.7412168  31.7075077
  40.9549639  13.0406338  32.1140269  42.2640768  12.3467856  32.4249559
  43.9190352  22.7369925  33.6409342  43.8766530  22.9630771  32.7117874
  44.8353050  22.5033299  33.7895143  47.3655985  13.2053992  40.5389971
  47.7205373  13.4325465  41.3984437  48.0128117  13.5372369  39.9167226
  53.0953722  16.3272428  31.2439300  52.9571621  16.5174024  30.3160489
  52.7389941  17.0891811  31.7007351  41.2595848  10.3130523  37.3236312
  41.8995228  10.1719282  36.6259275  40.4273379  10.0265037  36.9474914
  53.1223102  18.3948955  36.2550571  53.5559609  18.3024244  37.1033625
  53.8354683  18.3706455  35.6170587  42.0356152  19.6132954  33.4371304
  42.8296751  19.1183274  33.2353879  41.3247845  19.0850817  33.0739010
  46.8550997  21.9951049  37.7883672  46.9088019  22.5641985  38.5561388
  45.9865778  22.1652934  37.4237709  38.3438916  13.7576035  29.5131057
  37.4136504  13.6960491  29.7301019  38.4396388  13.2351988  28.7167698
  38.2624465  10.2830848  32.1009299  38.5231282  11.1976181  31.9918459
  39.0841637   9.8155291  32.2505911  39.7349390  11.6968605  39.2708123
  40.4072444  11.4885967  38.6220772  38.9079177  11.4990691  38.8313355
  53.9838651  18.4372656  38.7883457  54.1774542  19.3418466  39.0342732
  53.8839270  17.9780075  39.6222042  45.6374962   8.3230546  41.2873784
  44.9902877   9.0220496  41.1938260  46.4075978   8.7566690  41.6550032
  49.0453760  18.5879398  44.3624337  48.8939267  18.3589950  43.4454421
  49.0358440  19.5450000  44.3755682  45.8139097  16.1611311  39.3470604
  46.7431157  16.3122471  39.1739571  45.3930127  16.2495332  38.4919250
  44.6127428  20.1861976  37.1169141  44.4738514  19.8180760  37.9895079
  43.8242025  20.7009615  36.9453099  45.2075580  25.2871072  28.4594678
  45.3827336  24.8159115  29.2740301  44.5208368  25.9136838  28.6875939
  46.1632643  19.5643578  34.5057979  45.8282476  19.5244348  35.4015629
  45.6636589  18.8988294  34.0328389  40.1376887  14.9711208  40.0310560
  39.9996685  14.2391447  40.6322099  41.0481811  14.8820108  39.7494748
  49.0991835  16.9099613  24.7795039  48.4821006  16.1846441  24.6828091
  48.6308324  17.6708973  24.4362113  42.7659188  14.6831168  39.5194240
  43.4758807  14.0424360  39.4780858  42.7228496  14.9344062  40.4420421
  50.7545967  21.6198521  42.4400819  50.6958513  20.9357741  41.7731402
  51.1565485  22.3617511  41.9881445  41.4788122  11.6696385  41.3389879
  40.9425479  11.2187124  41.9911476  40.8904831  11.8042294  40.5960344
  39.7736666  28.4360435  35.2334538  40.0133264  29.0678959  35.9113557
  38.9305862  28.0848475  35.5199897  50.7563374  19.5838105  40.6714799
  49.8690153  19.2464027  40.7941198  51.3261925  18.8521136  40.9083564
  32.4092521  15.9162197  33.9957850  33.0963561  15.6023927  33.4078866
  32.2540650  16.8203561  33.7225102  37.2127243  10.8052393  38.4242874
  37.1285432  10.1978063  37.6893284  36.3909950  11.2961411  38.4252370
  44.2864527  24.2439557  37.6376042  44.2134699  25.0494529  38.1495347
  43.8441921  24.4431523  36.8124063  44.0754307  23.4811327  31.1478864
  43.2921829  24.0233007  31.2417088  44.7747052  23.9985307  31.5473105
  47.3850957   9.2905957  33.7913069  47.8819657   8.5375919  33.4714139
  46.6137939   9.3270273  33.2256278  55.2380715  14.9946322  35.4331360
  55.2270591  15.8771038  35.0625294  54.3698094  14.6417873  35.2385898
  46.7463211  24.1426391  39.7934201  47.4591183  24.7773856  39.7210102
  46.2553240  24.2390257  38.9774203  48.4680738  18.0477644  31.3651492
  47.5337017  18.1679106  31.1956197  48.6457406  17.1450111  31.1011502
  43.9685926  11.4323340  33.5184754  43.5983713  10.8794380  34.2065659
  44.4645018  10.8281473  32.9659754  51.8553289  13.8894963  31.9001527
  52.3213741  14.7222955  31.8261829  52.3060790  13.4239945  32.6046785
  41.7975124  21.8920835  40.6139772  42.4984584  22.5257318  40.7669166
  41.3270239  22.2335566  39.8535411  49.9229520  20.2338784  28.8987679
  50.1989364  20.1195379  29.8081553  49.0534019  19.8356269  28.8599852
  49.8269952   6.2575550  35.9392428  48.9133032   6.4879777  36.1074635
  50.2563053   6.3413994  36.7906460  49.5976410  14.4465442  38.4392322
  48.9447861  14.6941350  37.7844775  49.9756790  13.6329580  38.1054799
  46.5583584  24.4825135  32.5420492  46.7405979  23.6646791  33.0048245
  47.3816570  24.6992828  32.1045382  46.8925750  23.4093320  29.8035541
  47.4213516  22.8985775  29.1905703  47.1553969  23.0935851  30.6681074
  45.6463983  15.1885253  44.9258359  44.9704621  15.0879383  45.5960734
  46.4691617  15.0324467  45.3894356  37.3942843  21.4257190  37.5470874
  37.9796279  20.6800878  37.6798778  37.1967681  21.7361146  38.4307538
  40.2481498  24.4608437  32.5633317  39.5791873  24.9454565  32.0797357
  40.1094367  24.7077658  33.4776695  31.9860497  13.9962790  36.2675317
  32.0244597  13.4626381  37.0612435  31.4800790  13.4697995  35.6486295
  44.3886766  26.4952181  39.1615975  44.9405074  26.6583802  39.9265060
  44.7292960  27.0856618  38.4896000  39.3651260   8.8427330  39.7637860
  39.4292586   9.7042161  39.3515257  39.3018380   8.2301332  39.0310218
  38.8403532  10.9150463  43.4110894  39.4675571  10.5327540  44.0248418
  37.9831451  10.6964665  43.7766586  49.2397641  21.3213438  45.0164629
  49.7837545  21.9343396  44.5219584  48.6584486  21.8793017  45.5331642
  35.6169075  12.7226892  29.3429249  35.9122516  11.8137571  29.2896302
  34.7157111  12.7014632  29.0210251  47.5255154  24.4434156  36.1479657
  47.4006293  23.6423896  35.6390603  48.1834245  24.9380350  35.6593627
  39.1463322  10.7982889  35.3256797  38.4249908  11.4118856  35.1864271
  39.9356578  11.3340654  35.2473443  49.5890062  22.2443176  37.7759207
  48.6420398  22.1248527  37.7037534  49.9372835  21.3565674  37.8585469
  41.9489635   8.1337315  41.5997449  42.4724037   8.3799612  42.3623758
  41.7301969   8.9657350  41.1800586  37.3456916  10.4040990  29.4668574
  37.0169623   9.5238369  29.2843680  37.6996287  10.3488658  30.3544963
  46.5936495  22.0395893  33.9763559  46.4461458  21.1112600  34.1571129
  47.4189989  22.0615983  33.4920635  40.4598740  10.6913960  29.8344052
  40.7994812  11.2199881  29.1122660  40.9070860  11.0294366  30.6102618
  50.1970617  22.8624451  35.0628432  51.1217165  22.6567313  34.9252883
  50.0285921  22.6140852  35.9717774  43.1542180   9.0751010  39.2847120
  42.8139001   8.2758823  39.6867800  42.4481187   9.3752721  38.7123953
  43.8058652   6.1600323  37.7374443  44.6284722   5.6860801  37.6153333
  44.0496716   6.9390806  38.2373129  42.4466887   9.1888581  28.0337344
  43.1675249   9.5669834  27.5301061  41.8232191   9.9077458  28.1372322
  46.5898010   9.8933730  28.9695677  46.8061624  10.7758368  28.6684505
  46.1092077   9.5019944  28.2401319  41.3297231  12.8519443  35.5466421
  41.1841812  13.1659746  36.4390703  40.8522435  13.4704344  34.9937320
  43.1893614   9.8421991  35.5947311  43.1755183   8.9463085  35.2579609
  43.9066042   9.8492655  36.2285597  45.0419745  10.2759332  37.6400438
  44.7837522  11.1976402  37.6384769  44.5104785   9.8789766  38.3300902
  49.9865933  23.3810119  30.4190524  50.1602811  22.8156541  29.6664376
  50.4794825  24.1811014  30.2370014  35.8042893  15.3924788  38.4854082
  35.2596361  16.1684596  38.6174357  36.6822243  15.7395592  38.3273204
  42.5930510   8.7236372  30.8634881  42.7146421   7.7953018  31.0625768
  42.3032552   8.7375058  29.9513196  45.4621700   6.4091282  34.0001601
  45.4843397   6.4730615  33.0453580  45.8789759   5.5695791  34.1942107
  55.8405325  16.1446542  32.0380823  56.2836471  15.3953867  31.6399947
  54.9631835  16.1356678  31.6554555  50.9741106  22.6976883  27.5187422
  51.6692010  23.3183576  27.7374737  51.3164256  21.8472234  27.7939800
  36.5908915  14.5194684  41.3784239  35.8490651  14.6677319  41.9648870
  36.2701659  14.7802950  40.5150989  52.8732529  20.1476589  29.0474753
  53.3983853  20.4863861  28.3224073  52.7854882  19.2123604  28.8637887
  44.5352578  24.0610662  41.1764629  44.8439704  23.8159809  42.0487329
  45.3328060  24.2657301  40.6883500  44.5573190  26.2148572  33.4070006
  44.1178180  25.7224951  34.1002863  45.3081307  25.6721540  33.1662081
  37.0365529  22.4060113  33.4094634  37.8623549  22.1063885  33.0293277
  36.6859581  21.6367735  33.8584423  42.0047062  21.7586581  35.4792308
  41.3827071  21.0957286  35.1794535  42.6751929  21.7847713  34.7965955
  35.2374134  20.3246439  34.3683568  34.4006042  19.8968614  34.1867569
  35.2097779  20.5178883  35.3054359  42.0771589  10.2368369  45.0724814
  42.1259745  11.1130492  44.6902583  42.6194104   9.6945762  44.4996457
  52.5626435  20.7809492  44.3525951  51.7721979  20.7633631  43.8130450
  52.3259790  21.3197786  45.1074987  52.6824310  17.6301959  41.6658679
  52.7322315  17.4651966  42.6074202  52.5738233  16.7629218  41.2756560
  41.5660569  20.3090504  28.9550768  41.7148689  20.9925969  28.3017441
  42.3727012  20.2895594  29.4700224  49.9728072  13.6132887  42.9817986
  50.8737935  13.4739352  42.6901984  50.0476047  13.7787341  43.9216163
  44.3070878  10.9899741  41.8271172  43.4374187  11.2833307  41.5553761
  44.5430358  11.5740186  42.5478436  54.1842507  20.0498900  41.9100701
  53.8927315  20.4128881  42.7464162  53.5714638  19.3365908  41.7314033
  55.3838189  17.6151780  34.4303271  56.2185081  18.0541584  34.5940831
  55.5197318  17.1390433  33.6111517  52.4329695  15.1731515  40.3780759
  52.9083817  15.3659161  39.5699610  51.5095261  15.2290701  40.1324142
  39.3213202  16.3355682  29.9611837  39.0759244  15.4318012  30.1592047
  39.4909116  16.3372832  29.0191315  47.0109912   7.2079358  39.3436593
  47.5291856   7.9440385  39.0183081  46.6565044   7.5143352  40.1783352
  38.5908849  12.0684040  27.4597998  37.8978094  12.1428395  26.8038034
  38.3460601  11.3044383  27.9819515  47.2622506   3.6279641  34.8637489
  47.5424260   2.9602830  35.4897916  48.0473113   3.8208736  34.3512153
  45.0655974  22.8038635  26.4262516  44.4929941  23.4228822  25.9732987
  45.6388768  23.3537996  26.9602437  51.1331364  12.0497275  38.6109064
  52.0848787  12.1495373  38.6321288  50.9634815  11.2575543  39.1207149
  49.1545744   9.1352858  38.7968465  48.5595676   9.4157871  38.1014954
  48.8695440   9.6246759  39.5685206  48.2853234  23.0875785  27.5571098
  49.2183907  23.0221347  27.7603973  48.1976447  23.9232052  27.0985630
  50.9141251  22.4041655  24.5175045  50.8354882  22.0701519  25.4110803
  51.7350918  22.8963423  24.5166518  53.6119442  15.2703395  37.7251364
  53.5795762  14.3319395  37.9111048  54.2220066  15.3487431  36.9917189
  45.4502773  14.1399448  23.7678568  46.3961878  14.0105656  23.8366986
  45.0717018  13.4014109  24.2447996  53.7613930  12.0614438  37.7709647
  53.2452979  11.2772895  37.5839576  54.6453879  11.7333155  37.9356167
  51.4224657   5.8055454  33.7305460  51.2249478   5.4970542  34.6148792
  52.0324363   6.5317092  33.8603390  59.4295992  16.3319401  36.8657401
  60.1599380  16.0704690  37.4265104  58.8202937  15.5948123  36.9059469
  57.5111289  14.4727264  37.4631852  56.7844453  14.3383229  36.8548344
  57.0958576  14.7804093  38.2688570  45.3341465  18.1917194  45.2279225
  46.2544475  18.3695793  45.4219272  45.2991048  17.2473239  45.0758924
  43.6345690  12.0649424  23.7033453  42.7277145  11.7682537  23.7796167
  43.9121671  11.7679242  22.8367739  34.5523630  13.3855787  34.1532500
  34.2326415  12.5321096  33.8606874  34.0057059  13.6004365  34.9090467
  38.3303538  16.1018228  37.8702006  38.5489548  17.0335336  37.8890040
  38.7429312  15.7426203  38.6556810  45.2507756   6.6086314  29.8577695
  44.4408484   6.2633399  30.2332941  45.9392173   6.2993857  30.4465306
  47.1798304   5.6864360  31.4801991  47.7329343   6.1059814  32.1392014
  47.4168390   4.7600109  31.5224947  43.2031403  11.6751434  47.2604755
  43.1028130  12.6245791  47.1916846  42.9852945  11.3469673  46.3880825
  34.4211890  17.0058699  36.1225621  33.7275362  16.5912652  35.6095576
  35.1684881  17.0479235  35.5259040  50.5577111   7.7964886  30.9880655
  49.9775780   8.4549690  30.6058708  50.2913044   6.9742230  30.5768073
  49.0080677   7.1969943  33.1901976  49.5080456   7.3086478  32.3816295
  49.6516285   6.8930996  33.8302784  43.0662673  15.1048573  46.0769817
  42.5829755  15.9048933  46.2833706  43.1523612  15.1156518  45.1237261
  36.3348633  16.9376953  33.9991636  36.3119321  17.0364640  33.0473519
  36.6449269  17.7842103  34.3208802  38.9936011  18.9953108  38.1138251
  39.9479264  18.9637050  38.0468182  38.7948534  18.5343731  38.9288476
  39.5835393  17.5654224  40.6809048  40.4028282  18.0598302  40.7043885
  39.8572201  16.6486192  40.6526616  49.3401989   9.9564976  30.0437004
  48.4527844  10.2414627  29.8257198  49.7555978   9.7958739  29.1964281
  52.6916525   9.9811497  33.7591343  53.4676915  10.4707949  34.0315960
  51.9664659  10.4069551  34.2163212  55.1289084  10.6939116  34.8165284
  55.7233575  10.4534852  34.1058592  55.2015668   9.9746247  35.4438820
  37.3486240  24.5372727  35.1308448  37.2140707  23.7773128  34.5646446
  36.9318302  25.2613627  34.6637237  48.4845203  19.7209651  24.1385024
  49.1881053  19.9259653  24.7542679  47.7607851  20.2886413  24.4034107
  49.3143013  15.4719512  30.2587294  49.2578214  15.9288063  29.4194926
  49.8671355  14.7110197  30.0810137  53.1247819  11.2609244  31.0837413
  52.8684753  10.8605879  31.9145621  52.5000687  11.9753038  30.9587553
  57.4360157  14.0005317  33.5908705  56.8759715  14.0698506  34.3640267
  56.8303660  13.8246302  32.8708201  40.5055365  25.4342044  35.3426891
  40.3887750  26.3787477  35.2405581  39.6847812  25.1315606  35.7312690
  50.3931900  20.1592180  26.1883484  51.2277504  19.7273378  26.0060959
  50.2316243  19.9874194  27.1160378  50.0477792  16.6624293  27.5539823
  49.9926596  16.4968565  26.6128267  49.4223847  17.3700326  27.7102013
  34.8370307  11.8992358  41.3801245  35.4829171  11.3891312  41.8688470
  34.6287458  12.6361039  41.9544670  47.3623699  18.9673205  46.8793386
  48.2314859  19.1413857  46.5180021  46.8830451  19.7867622  46.7569115
  43.3573918   6.1632402  27.1325141  43.3452587   7.1074242  27.2893412
  44.2497339   5.9802548  26.8384603  41.5309880  26.0870306  38.5582819
  42.4337126  26.1193916  38.8749314  41.3047250  25.1570757  38.5729155
  43.2863482  24.8401293  35.2192898  42.3359113  24.8403154  35.1057270
  43.5895968  24.0934027  34.7028933  47.1726037   2.7575179  31.3871078
  46.4058433   2.2033665  31.5327761  47.5836742   2.8297048  32.2485230
  39.1767798   9.0459975  45.4776259  40.0399260   8.6896779  45.6879584
  38.6033209   8.7073869  46.1651664  59.0216175  30.6761831  36.2838660
  59.6594585  30.5568578  35.5802001  58.9037018  31.6242675  36.3426613
  55.8305881  30.6289259  36.2200185  55.4924393  30.5130324  35.3320720
  56.6995650  30.2280424  36.2001191  51.6892697  32.4824735  32.2097076
  51.1257562  32.3914672  31.4413364  51.5745092  31.6624640  32.6899569
  56.3125664  31.7824111  42.1786391  56.3014305  31.3876909  41.3066894
  56.4746304  31.0490183  42.7720162  49.2357129  33.9775927  35.0481297
  50.0278421  33.6366752  34.6327596  49.4753779  34.0870902  35.9683450
  57.2692256  36.1495703  27.5211541  56.6180236  36.7349784  27.1345555
  58.0636619  36.6801898  27.5806578  51.1947883  33.2384840  27.9198675
  51.9678759  32.6913827  27.7811551  51.5473282  34.1029090  28.1313137
  53.0332925  34.5661223  41.1265575  52.7422791  35.4706853  41.0112241
  53.6689910  34.6077750  41.8409644  53.9589132  31.9438071  37.7166934
  54.5552705  31.7194094  37.0023897  54.0164104  31.2022817  38.3192382
  53.5314161  29.3977506  25.5517125  53.7839681  28.8759028  24.7900588
  52.5938720  29.2343652  25.6543809  58.5757444  28.4013285  33.3591869
  59.3620533  27.9832708  33.0082286  58.8396148  29.3059377  33.5273517
  58.7467521  33.8386135  28.0580525  58.1113354  33.9120762  28.7701430
  58.4164927  34.4279734  27.3799605  63.9765871  28.3388518  34.2624847
  64.7091043  27.7687735  34.4962677  63.2205226  27.9510118  34.7031353
  53.2510449  31.3005612  27.7541500  53.1346708  30.6250516  28.4222585
  53.3612709  30.8137986  26.9373653  55.5941990  30.7615760  31.4588189
  55.2300198  30.2346380  32.1701111  56.4509106  30.3714229  31.2854675
  55.2347477  25.7905659  26.4549538  55.4021880  26.6585896  26.8220009
  55.0444646  25.9532941  25.5310827  57.9922811  34.2522638  38.1215368
  57.6923534  35.1547677  38.0131176  57.6473870  33.9854821  38.9736521
  51.4435292  30.7036435  34.1552073  50.5185789  30.5712649  34.3629765
  51.6919705  31.4830654  34.6522015  61.3919954  26.7705178  35.8012806
  60.4836832  26.7020587  35.5071567  61.3407550  27.2477123  36.6294631
  55.2136698  28.2463317  27.4396205  55.0936323  28.6920367  28.2781685
  54.5189287  28.5948634  26.8809743  48.8044103  30.3469708  34.9895862
  48.9336484  30.6004187  35.9035274  48.1241554  30.9397416  34.6700517
  52.9743590  41.0166958  31.0886336  52.8967620  41.9674784  31.1674817
  52.3705234  40.6712831  31.7461262  55.4660820  28.1894824  43.7447703
  54.6894154  28.7488744  43.7350568  56.1051383  28.6751607  44.2662573
  60.9121764  28.7184790  28.2676539  61.8239621  28.9512177  28.0924236
  60.4031411  29.3021834  27.7051617  53.7207192  30.9980277  43.3065670
  54.4621877  31.5365321  43.0300494  53.0144178  31.6246566  43.4637222
  55.5493602  28.0782024  39.2771388  56.3954797  28.5021438  39.4206037
  55.4892240  27.4215649  39.9709952  59.5191347  33.7010608  35.6590120
  58.8900209  33.8656322  34.9566188  59.1317009  34.1152218  36.4301084
  58.2557739  24.8942826  36.5166400  57.3942218  25.1924079  36.8083137
  58.2820174  25.1113225  35.5847432  55.0719309  33.4385016  32.9240205
  55.5357654  33.7172719  32.1344828  54.8076107  32.5368461  32.7413296
  51.9643390  32.9856498  35.8619969  52.5344747  33.4143766  35.2237453
  52.5551501  32.7039083  36.5604154  54.0088195  29.5608169  29.7329771
  54.7112238  30.0129212  30.2003697  53.6768823  28.9191988  30.3609664
  52.4568556  28.1519925  44.1080980  51.8267217  28.8336206  44.3416377
  52.3504644  28.0403007  43.1634118  47.7513529  27.8191721  35.0346904
  46.9612583  28.0749250  34.5587015  48.2424776  28.6340059  35.1398945
  49.7028274  28.1836301  31.9930381  48.9059437  28.2954995  32.5113877
  49.4753866  28.5222953  31.1271271  55.5333942  34.7081004  39.9412895
  55.5978374  35.1701411  40.7771067  54.8244865  34.0778369  40.0695205
  46.0351232  28.0722212  37.4661895  46.2859270  28.9569222  37.7319471
  46.5710780  27.8926813  36.6936987  55.2481959  36.3749111  29.8091876
  55.1127634  37.2200647  30.2376724  55.7891772  36.5768389  29.0457810
  51.7349299  22.4540691  46.4706231  51.3416244  21.9006890  47.1453875
  52.5515439  22.7651270  46.8612749  48.7011357  33.8924549  30.3819801
  49.2135877  34.6867800  30.5325366  49.3534069  33.1950840  30.3153402
  50.5106241  37.0090306  32.4642554  50.6872870  37.9308270  32.2763538
  51.3063075  36.6948725  32.8936934  54.6517260  23.8698570  44.0626488
  55.3926973  24.4705723  43.9830950  54.8835183  23.1276208  43.5044530
  49.7958598  29.0554938  42.3404717  49.6812113  28.1540195  42.6411816
  48.9403116  29.3018634  41.9889534  56.8750436  36.9972678  43.9392218
  56.4314290  36.2109056  43.6213122  57.5367649  37.1851828  43.2736109
  51.6337557  38.5268480  38.4652896  52.1844982  38.3985543  37.6929890
  50.7949033  38.8263369  38.1147789  58.9731674  37.2775478  41.9673619
  58.9550149  38.0984359  41.4753888  59.8951594  37.1529553  42.1923760
  55.4304728  34.7919607  42.8097128  55.9633065  34.0307896  42.5796435
  54.9018809  34.4993259  43.5521282  58.5974423  19.8979673  38.3390769
  58.2538692  20.7881315  38.2629880  58.9653385  19.7081331  37.4760354
  46.6660273  32.2213204  31.1579371  47.5035495  32.6310212  30.9413079
  46.8438541  31.2812646  31.1279565  58.5624706  29.8888284  26.8463204
  58.0471329  30.6592889  27.0851592  58.2902014  29.2153421  27.4696266
  56.1471817  24.7337985  31.9048443  55.2913413  24.3444836  31.7254081
  56.5598768  24.8129946  31.0448228  57.6770963  22.2684328  36.3040002
  57.1735759  22.2314464  35.4907808  57.9701570  23.1777071  36.3636659
  53.9213849  22.3523058  35.3106184  54.7866846  22.1565867  34.9512074
  53.9891358  22.1233410  36.2375541  58.3511009  27.7615376  28.6722986
  58.0461144  28.0761526  29.5233129  59.3041451  27.8396796  28.7150319
  56.7957441  33.9205600  30.3215940  56.2678802  33.1858359  30.0089177
  56.2944943  34.6980276  30.0755908  51.5276168  24.5825266  32.6822551
  52.1019920  24.3600448  31.9495744  52.1147151  24.6513961  33.4351152
  51.8545755  26.6129727  26.7018436  51.0183068  26.9504414  27.0227711
  51.7150525  26.4778707  25.7645573  53.8298836  21.4566515  31.4097620
  53.1763248  21.1415532  30.7854235  53.7879310  20.8342255  32.1357443
  54.9410041  31.7385810  23.3250913  54.0337102  31.5075064  23.5242062
  55.4381073  30.9423429  23.5124894  57.8478120  40.4483317  26.2447599
  57.1739818  40.7515014  26.8532557  58.2343942  41.2512398  25.8953056
  57.0636576  27.9448449  35.7345268  56.1459138  28.1663396  35.5766956
  57.4796720  28.0194759  34.8756975  57.8471624  29.3439864  30.8647948
  58.5943443  29.8561261  30.5555070  58.1163214  29.0223917  31.7252342
  56.1198274  31.8398405  27.8474903  55.2109493  31.5557438  27.9447372
  56.1493358  32.2597484  26.9878209  60.2950461  26.3796980  32.8466738
  59.5573218  25.8674367  33.1776980  60.5477235  25.9397362  32.0350015
  59.7950481  37.2881491  32.5515888  60.0873455  37.8486548  31.8328254
  60.3049101  37.5810052  33.3069047  60.3962088  19.1573232  33.4408507
  60.7020965  18.2970596  33.1534422  61.1214693  19.7490853  33.2407501
  46.6886445  29.5603919  31.8290105  46.4910844  28.9673280  31.1041171
  46.1333109  29.2556129  32.5466044  54.6683168  29.4527026  33.9484698
  54.7231778  28.5000862  33.8727175  53.8574370  29.6086465  34.4325996
  55.8174362  33.3807149  25.1862981  55.3793792  32.6643008  24.7268619
  56.5584803  33.6083263  24.6248073  52.6075528  28.0704085  31.7075077
  51.7943394  28.3698256  32.1140269  53.1034522  27.6759774  32.4249559
  54.7584106  38.0661842  33.6409342  54.7160285  38.2922689  32.7117874
  55.6746805  37.8325217  33.7895143  58.2049740  28.5345910  40.5389971
  58.5599128  28.7617383  41.3984437  58.8521871  28.8664287  39.9167226
  52.0989603  25.6422441  37.3236312  52.7388982  25.5011200  36.6259275
  51.2667133  25.3556954  36.9474914  52.8749907  34.9424871  33.4371304
  53.6690505  34.4475191  33.2353879  52.1641599  34.4142734  33.0739010
  57.6944751  37.3242967  37.7883672  57.7481774  37.8933903  38.5561388
  56.8259533  37.4944852  37.4237709  49.1832670  29.0867953  29.5131057
  48.2530258  29.0252408  29.7301019  49.2790142  28.5643906  28.7167698
  49.1018219  25.6122766  32.1009299  49.3625037  26.5268099  31.9918459
  49.9235392  25.1447208  32.2505911  50.5743145  27.0260523  39.2708123
  51.2466198  26.8177885  38.6220772  49.7472931  26.8282609  38.8313355
  56.4768717  23.6522464  41.2873784  55.8296632  24.3512414  41.1938260
  57.2469732  24.0858608  41.6550032  59.8847515  33.9171316  44.3624337
  59.7333021  33.6881868  43.4454421  59.8752194  34.8741917  44.3755682
  56.6532851  31.4903229  39.3470604  57.5824911  31.6414388  39.1739571
  56.2323881  31.5787250  38.4919250  55.4521183  35.5153893  37.1169141
  55.3132269  35.1472678  37.9895079  54.6635779  36.0301533  36.9453099
  56.0469335  40.6162990  28.4594678  56.2221090  40.1451033  29.2740301
  55.3602123  41.2428756  28.6875939  57.0026398  34.8935496  34.5057979
  56.6676231  34.8536266  35.4015629  56.5030344  34.2280212  34.0328389
  50.9770642  30.3003126  40.0310560  50.8390440  29.5683365  40.6322099
  51.8875565  30.2112026  39.7494748  59.9385590  32.2391530  24.7795039
  59.3214760  31.5138358  24.6828091  59.4702078  33.0000891  24.4362113
  53.6052943  30.0123085  39.5194240  54.3152561  29.3716277  39.4780858
  53.5622251  30.2635980  40.4420421  61.5939721  36.9490439  42.4400819
  61.5352267  36.2649659  41.7731402  61.9959240  37.6909429  41.9881445
  52.3181877  26.9988303  41.3389879  51.7819234  26.5479042  41.9911476
  51.7298585  27.1334212  40.5960344  50.6130420  43.7652352  35.2334538
  50.8527018  44.3970877  35.9113557  49.7699617  43.4140392  35.5199897
  51.7284136  26.4576955  23.9016343  50.8513602  26.3365755  23.5378590
  52.2041889  25.6663033  23.6495232  43.2486276  31.2454114  33.9957850
  43.9357315  30.9315844  33.4078866  43.0934404  32.1495479  33.7225102
  48.0520998  26.1344311  38.4242874  47.9679187  25.5269980  37.6893284
  47.2303704  26.6253329  38.4252370  55.1258282  39.5731475  37.6376042
  55.0528453  40.3786446  38.1495347  54.6835675  39.7723441  36.8124063
  54.9148062  38.8103245  31.1478864  54.1315583  39.3524925  31.2417088
  55.6140807  39.3277225  31.5473105  58.2244712  24.6197874  33.7913069
  58.7213411  23.8667837  33.4714139  57.4531693  24.6562191  33.2256278
  57.5856965  39.4718309  39.7934201  58.2984938  40.1065774  39.7210102
  57.0946994  39.5682175  38.9774203  59.3074492  33.3769562  31.3651492
  58.3730771  33.4971024  31.1956197  59.4851161  32.4742028  31.1011502
  54.8079680  26.7615257  33.5184754  54.4377468  26.2086298  34.2065659
  55.3038773  26.1573391  32.9659754  52.6368879  37.2212752  40.6139772
  53.3378338  37.8549235  40.7669166  52.1663994  37.5627484  39.8535411
  60.6663706  21.5867468  35.9392428  59.7526786  21.8171695  36.1074635
  61.0956808  21.6705912  36.7906460  57.3977339  39.8117053  32.5420492
  57.5799733  38.9938709  33.0048245  58.2210325  40.0284745  32.1045382
  57.7319504  38.7385238  29.8035541  58.2607271  38.2277693  29.1905703
  57.9947724  38.4227768  30.6681074  56.4857738  30.5177171  44.9258359
  55.8098375  30.4171300  45.5960734  57.3085372  30.3616385  45.3894356
  48.2336597  36.7549107  37.5470874  48.8190034  36.0092795  37.6798778
  48.0361435  37.0653064  38.4307538  51.0875252  39.7900355  32.5633317
  50.4185628  40.2746482  32.0797357  50.9488122  40.0369575  33.4776695
  42.8254252  29.3254708  36.2675317  42.8638351  28.7918298  37.0612435
  42.3194545  28.7989913  35.6486295  55.2280521  41.8244098  39.1615975
  55.7798829  41.9875720  39.9265060  55.5686714  42.4148536  38.4896000
  50.2045014  24.1719248  39.7637860  50.2686341  25.0334079  39.3515257
  50.1412134  23.5593250  39.0310218  49.6797287  26.2442381  43.4110894
  50.3069325  25.8619458  44.0248418  48.8225205  26.0256583  43.7766586
  60.0791395  36.6505356  45.0164629  60.6231299  37.2635314  44.5219584
  59.4978240  37.2084934  45.5331642  46.4562829  28.0518810  29.3429249
  46.7516270  27.1429488  29.2896302  45.5550865  28.0306549  29.0210251
  58.3648908  39.7726074  36.1479657  58.2400048  38.9715814  35.6390603
  59.0227999  40.2672267  35.6593627  49.9857076  26.1274806  35.3256797
  49.2643662  26.7410774  35.1864271  50.7750332  26.6632571  35.2473443
  60.4283817  37.5735094  37.7759207  59.4814152  37.4540445  37.7037534
  60.7766590  36.6857592  37.8585469  52.7883390  23.4629233  41.5997449
  53.3117792  23.7091529  42.3623758  52.5695723  24.2949268  41.1800586
  48.1850671  25.7332907  29.4668574  47.8563377  24.8530286  29.2843680
  48.5390042  25.6780576  30.3544963  57.4330250  37.3687810  33.9763559
  57.2855212  36.4404518  34.1571129  58.2583743  37.3907901  33.4920635
  51.2992494  26.0205877  29.8344052  51.6388567  26.5491799  29.1122660
  51.7464615  26.3586283  30.6102618  53.9935935  24.4042928  39.2847120
  53.6532755  23.6050741  39.6867800  53.2874941  24.7044639  38.7123953
  54.6452407  21.4892240  37.7374443  55.4678476  21.0152719  37.6153333
  54.8890470  22.2682724  38.2373129  53.2860641  24.5180499  28.0337344
  54.0069004  24.8961752  27.5301061  52.6625945  25.2369376  28.1372322
  57.4291764  25.2225648  28.9695677  57.6455379  26.1050286  28.6684505
  56.9485831  24.8311861  28.2401319  52.1690986  28.1811361  35.5466421
  52.0235566  28.4951664  36.4390703  51.6916189  28.7996261  34.9937320
  54.0287368  25.1713909  35.5947311  54.0148937  24.2755002  35.2579609
  54.7459797  25.1784573  36.2285597  55.8813499  25.6051249  37.6400438
  55.6231277  26.5268320  37.6384769  55.3498539  25.2081684  38.3300902
  46.6436648  30.7216705  38.4854082  46.0990116  31.4976513  38.6174357
  47.5215998  31.0687510  38.3273204  53.4324264  24.0528289  30.8634881
  53.5540176  23.1244935  31.0625768  53.1426307  24.0666975  29.9513196
  56.3015455  21.7383200  34.0001601  56.3237152  21.8022533  33.0453580
  56.7183514  20.8987708  34.1942107  47.4302670  29.8486602  41.3784239
  46.6884406  29.9969237  41.9648870  47.1095414  30.1094867  40.5150989
  55.3746332  39.3902580  41.1764629  55.6833459  39.1451727  42.0487329
  56.1721814  39.5949218  40.6883500  55.3966944  41.5440490  33.4070006
  54.9571935  41.0516868  34.1002863  56.1475061  41.0013457  33.1662081
  47.8759283  37.7352030  33.4094634  48.7017303  37.4355802  33.0293277
  47.5253335  36.9659653  33.8584423  52.8440816  37.0878499  35.4792308
  52.2220826  36.4249204  35.1794535  53.5145683  37.1139631  34.7965955
  46.0767888  35.6538357  34.3683568  45.2399797  35.2260531  34.1867569
  46.0491534  35.8470800  35.3054359  52.9165344  25.5660287  45.0724814
  52.9653499  26.4422409  44.6902583  53.4587858  25.0237680  44.4996457
  52.4054323  35.6382422  28.9550768  52.5542444  36.3217886  28.3017441
  53.2120767  35.6187512  29.4700224  55.1464632  26.3191659  41.8271172
  54.2767942  26.6125225  41.5553761  55.3824113  26.9032104  42.5478436
  50.1606956  31.6647600  29.9611837  49.9152998  30.7609930  30.1592047
  50.3302871  31.6664750  29.0191315  57.8503666  22.5371276  39.3436593
  58.3685610  23.2732303  39.0183081  57.4958799  22.8435269  40.1783352
  49.4302604  27.3975957  27.4597998  48.7371849  27.4720312  26.8038034
  49.1854356  26.6336301  27.9819515  58.1016260  18.9571559  34.8637489
  58.3818014  18.2894748  35.4897916  58.8866867  19.1500654  34.3512153
  55.9049729  38.1330552  26.4262516  55.3323696  38.7520740  25.9732987
  56.4782522  38.6829914  26.9602437  59.9939498  24.4644776  38.7968465
  59.3989430  24.7449788  38.1014954  59.7089195  24.9538677  39.5685206
  59.1246989  38.4167703  27.5571098  60.0577662  38.3513264  27.7603973
  59.0370201  39.2523969  27.0985630  61.7535005  37.7333573  24.5175045
  61.6748637  37.3993437  25.4110803  62.5744672  38.2255341  24.5166518
  56.2896527  29.4691365  23.7678568  57.2355632  29.3397573  23.8366986
  55.9110772  28.7306027  24.2447996  62.2618412  21.1347371  33.7305460
  62.0643233  20.8262459  34.6148792  62.8718117  21.8609010  33.8603390
  56.1735220  33.5209111  45.2279225  57.0938229  33.6987710  45.4219272
  56.1384803  32.5765157  45.0758924  54.4739444  27.3941342  23.7033453
  53.5670900  27.0974454  23.7796167  54.7515425  27.0971160  22.8367739
  45.3917385  28.7147705  34.1532500  45.0720169  27.8613013  33.8606874
  44.8450813  28.9296283  34.9090467  49.1697292  31.4310146  37.8702006
  49.3883302  32.3627254  37.8890040  49.5823066  31.0718120  38.6556810
  56.0901510  21.9378231  29.8577695  55.2802239  21.5925316  30.2332941
  56.7785927  21.6285775  30.4465306  58.0192058  21.0156278  31.4801991
  58.5723097  21.4351732  32.1392014  58.2562145  20.0892026  31.5224947
  54.0425158  27.0043352  47.2604755  53.9421885  27.9537709  47.1916846
  53.8246700  26.6761591  46.3880825  53.2438229  24.2528277  23.8445432
  54.1057393  24.5783175  24.1041250  53.4288573  23.4659773  23.3318498
  45.2605645  32.3350616  36.1225621  44.5669116  31.9204569  35.6095576
  46.0078636  32.3771153  35.5259040  61.3970866  23.1256803  30.9880655
  60.8169535  23.7841607  30.6058708  61.1306798  22.3034148  30.5768073
  59.8474432  22.5261861  33.1901976  60.3474210  22.6378396  32.3816295
  60.4910040  22.2222914  33.8302784  53.9056428  30.4340491  46.0769817
  53.4223509  31.2340851  46.2833706  53.9917367  30.4448435  45.1237261
  47.1742387  32.2668870  33.9991636  47.1513075  32.3656558  33.0473519
  47.4843024  33.1134021  34.3208802  49.8329765  34.3245025  38.1138251
  50.7873019  34.2928968  38.0468182  49.6342289  33.8635649  38.9288476
  50.4229147  32.8946141  40.6809048  51.2422036  33.3890220  40.7043885
  50.6965955  31.9778109  40.6526616  60.1795744  25.2856894  30.0437004
  59.2921599  25.5706544  29.8257198  60.5949733  25.1250657  29.1964281
  63.5310280  25.3103415  33.7591343  64.3070670  25.7999867  34.0315960
  62.8058414  25.7361469  34.2163212  65.9682838  26.0231034  34.8165284
  66.5627329  25.7826770  34.1058592  66.0409422  25.3038164  35.4438820
  48.1879994  39.8664645  35.1308448  48.0534462  39.1065046  34.5646446
  47.7712056  40.5905545  34.6637237  59.3238957  35.0501568  24.1385024
  60.0274807  35.2551571  24.7542679  58.6001606  35.6178330  24.4034107
  60.1536767  30.8011430  30.2587294  60.0971969  31.2579981  29.4194926
  60.7065110  30.0402114  30.0810137  63.9641573  26.5901161  31.0837413
  63.7078507  26.1897797  31.9145621  63.3394441  27.3044955  30.9587553
  51.3449120  40.7633962  35.3426891  51.2281504  41.7079394  35.2405581
  50.5241566  40.4607523  35.7312690  61.2325654  35.4884098  26.1883484
  62.0671258  35.0565296  26.0060959  61.0709997  35.3166111  27.1160378
  60.8871547  31.9916211  27.5539823  60.8320350  31.8260482  26.6128267
  60.2617602  32.6992244  27.7102013  45.6764062  27.2284275  41.3801245
  46.3222925  26.7183229  41.8688470  45.4681213  27.9652957  41.9544670
  58.2017454  34.2965123  46.8793386  59.0708613  34.4705775  46.5180021
  57.7224205  35.1159540  46.7569115  54.1967672  21.4924320  27.1325141
  54.1846342  22.4366160  27.2893412  55.0891094  21.3094465  26.8384603
  52.3703634  41.4162224  38.5582819  53.2730881  41.4485834  38.8749314
  52.1441004  40.4862675  38.5729155  54.1257236  40.1693210  35.2192898
  53.1752867  40.1695072  35.1057270  54.4289722  39.4225945  34.7028933
  58.0119792  18.0867096  31.3871078  57.2452187  17.5325583  31.5327761
  58.4230497  18.1588965  32.2485230  50.0161553  24.3751892  45.4776259
  50.8793014  24.0188697  45.6879584  49.4426963  24.0365787  46.1651664
  68.1086010  51.4787621  27.5211541  67.4573990  52.0641701  27.1345555
  68.9030373  52.0093816  27.5806578  62.0341637  48.5676758  27.9198675
  62.8072513  48.0205745  27.7811551  62.3867036  49.4321007  28.1313137
  64.3707915  44.7269424  25.5517125  64.6233436  44.2050945  24.7900588
  63.4332474  44.5635570  25.6543809  66.0741232  41.1197577  26.4549538
  66.2415634  41.9877813  26.8220009  65.8838401  41.2824859  25.5310827
  66.0530453  43.5755234  27.4396205  65.9330078  44.0212285  28.2781685
  65.3583041  43.9240552  26.8809743  63.8137345  56.3458876  31.0886336
  63.7361375  57.2966701  31.1674817  63.2098988  56.0004749  31.7461262
  58.5907283  43.1483639  35.0346904  57.8006337  43.4041168  34.5587015
  59.0818530  43.9631977  35.1398945  60.5422028  43.5128218  31.9930381
  59.7453192  43.6246913  32.5113877  60.3147621  43.8514871  31.1271271
  56.8744986  43.4014130  37.4661895  57.1253024  44.2861139  37.7319471
  57.4104534  43.2218731  36.6936987  66.0875714  51.7041029  29.8091876
  65.9521389  52.5492565  30.2376724  66.6285526  51.9060307  29.0457810
  59.5405111  49.2216467  30.3819801  60.0529632  50.0159717  30.5325366
  60.1927824  48.5242758  30.3153402  57.5054028  47.5505121  31.1579371
  58.3429250  47.9602130  30.9413079  57.6832296  46.6104564  31.1279565
  62.6939510  41.9421645  26.7018436  61.8576822  42.2796331  27.0227711
  62.5544279  41.8070625  25.7645573  65.7803795  47.0677728  23.3250913
  64.8730857  46.8366981  23.5242062  66.2774827  46.2715347  23.5124894
  68.6871874  55.7775235  26.2447599  68.0133573  56.0806932  26.8532557
  69.0737696  56.5804315  25.8953056  57.5280199  44.8895837  31.8290105
  57.3304599  44.2965197  31.1041171  56.9726863  44.5848047  32.5466044
  66.6568116  48.7099066  25.1862981  66.2187546  47.9934925  24.7268619
  67.3978557  48.9375181  24.6248073  63.4469283  43.3996003  31.7075077
  62.6337148  43.6990174  32.1140269  63.9428277  43.0051692  32.4249559
  60.0226425  44.4159871  29.5131057  59.0924013  44.3544326  29.7301019
  60.1183897  43.8935823  28.7167698  59.9411974  40.9414683  32.1009299
  60.2018791  41.8560017  31.9918459  60.7629146  40.4739126  32.2505911
  66.8863089  55.9454907  28.4594678  67.0614845  55.4742951  29.2740301
  66.1995877  56.5720674  28.6875939  61.4524175  59.0944270  35.2334538
  61.6920773  59.7262794  35.9113557  60.6093371  58.7432310  35.5199897
  62.5677890  41.7868872  23.9016343  61.6907356  41.6657673  23.5378590
  63.0435643  40.9954951  23.6495232  54.0880030  46.5746032  33.9957850
  54.7751070  46.2607762  33.4078866  53.9328159  47.4787397  33.7225102
  58.8914752  41.4636229  38.4242874  58.8072941  40.8561898  37.6893284
  58.0697459  41.9545247  38.4252370  65.7541816  54.1395163  31.1478864
  64.9709338  54.6816843  31.2417088  66.4534561  54.6569142  31.5473105
  61.9269007  55.1192273  32.5633317  61.2579382  55.6038400  32.0797357
  61.7881876  55.3661493  33.4776695  53.6648006  44.6546625  36.2675317
  53.7032106  44.1210216  37.0612435  53.1588299  44.1281831  35.6486295
  66.0674275  57.1536016  39.1615975  66.6192583  57.3167638  39.9265060
  66.4080469  57.7440454  38.4896000  61.0438769  39.5011166  39.7637860
  61.1080095  40.3625997  39.3515257  60.9805889  38.8885167  39.0310218
  57.2956584  43.3810727  29.3429249  57.5910025  42.4721406  29.2896302
  56.3944620  43.3598467  29.0210251  60.8250831  41.4566724  35.3256797
  60.1037417  42.0702692  35.1864271  61.6144087  41.9924489  35.2473443
  59.0244425  41.0624825  29.4668574  58.6957132  40.1822204  29.2843680
  59.3783796  41.0072494  30.3544963  62.1386249  41.3497795  29.8344052
  62.4782321  41.8783716  29.1122660  62.5858369  41.6878201  30.6102618
  64.1254396  39.8472417  28.0337344  64.8462758  40.2253669  27.5301061
  63.5019700  40.5661293  28.1372322  66.2140087  54.7194498  41.1764629
  66.5227213  54.4743644  42.0487329  67.0115569  54.9241136  40.6883500
  66.2360699  56.8732407  33.4070006  65.7965689  56.3808786  34.1002863
  66.9868816  56.3305375  33.1662081  58.7153038  53.0643948  33.4094634
  59.5411058  52.7647720  33.0293277  58.3647090  52.2951571  33.8584423
  56.9161643  50.9830275  34.3683568  56.0793551  50.5552449  34.1867569
  56.8885288  51.1762718  35.3054359  63.2448078  50.9674340  28.9550768
  63.3936198  51.6509804  28.3017441  64.0514521  50.9479430  29.4700224
  61.0000711  46.9939517  29.9611837  60.7546753  46.0901847  30.1592047
  61.1696625  46.9956668  29.0191315  60.2696358  42.7267875  27.4597998
  59.5765603  42.8012230  26.8038034  60.0248110  41.9628219  27.9819515
  66.7443483  53.4622470  26.4262516  66.1717450  54.0812657  25.9732987
  67.3176277  54.0121832  26.9602437  72.5928760  53.0625491  24.5175045
  72.5142391  52.7285354  25.4110803  73.4138427  53.5547259  24.5166518
  67.1290282  44.7983283  23.7678568  68.0749387  44.6689491  23.8366986
  66.7504527  44.0597945  24.2447996  65.3133199  42.7233259  23.7033453
  64.4064654  42.4266372  23.7796167  65.5909180  42.4263077  22.8367739
  56.2311139  44.0439623  34.1532500  55.9113924  43.1904931  33.8606874
  55.6844568  44.2588201  34.9090467  64.0831984  39.5820194  23.8445432
  64.9451148  39.9075093  24.1041250  64.2682328  38.7951690  23.3318498
  59.0273749  55.1956562  35.1308448  58.8928216  54.4356963  34.5646446
  58.6105811  55.9197462  34.6637237  70.1632712  50.3793486  24.1385024
  70.8668562  50.5843488  24.7542679  69.4395360  50.9470248  24.4034107
  62.1842874  56.0925879  35.3426891  62.0675259  57.0371312  35.2405581
  61.3635321  55.7899441  35.7312690  72.0719409  50.8176015  26.1883484
  72.9065013  50.3857214  26.0060959  71.9103752  50.6458029  27.1160378
  56.5157816  42.5576193  41.3801245  57.1616680  42.0475147  41.8688470
  56.3074967  43.2944875  41.9544670  65.0361427  36.8216238  27.1325141
  65.0240096  37.7658077  27.2893412  65.9284848  36.6386383  26.8384603
  63.2097389  56.7454141  38.5582819  64.1124635  56.7777752  38.8749314
  62.9834759  55.8154592  38.5729155  64.9650991  55.4985128  35.2192898
  64.0146622  55.4986990  35.1057270  65.2683477  54.7517862  34.7028933
  70.9144638  64.6359762  35.0481297  71.7065930  64.2950587  34.6327596
  71.1541288  64.7454737  35.9683450  72.8735392  63.8968676  27.9198675
  73.6466268  63.3497663  27.7811551  73.2260791  64.7612925  28.1313137
  75.2101670  60.0561342  25.5517125  75.4627190  59.5342863  24.7900588
  74.2726229  59.8927487  25.6543809  74.9297958  61.9589448  27.7541500
  74.8134217  61.2834351  28.4222585  75.0400218  61.4721822  26.9373653
  70.3798866  64.5508385  30.3819801  70.8923386  65.3451635  30.5325366
  71.0321578  63.8534675  30.3153402  72.1893750  67.6674141  32.4642554
  72.3660379  68.5892106  32.2763538  72.9850584  67.3532560  32.8936934
  68.3447782  62.8797039  31.1579371  69.1823004  63.2894047  30.9413079
  68.5226050  61.9396481  31.1279565  80.2412215  60.5472120  26.8463204
  79.7258838  61.3176724  27.0851592  79.9689523  59.8737256  27.4696266
  73.5333264  57.2713562  26.7018436  72.6970577  57.6088249  27.0227711
  73.3938034  57.1362542  25.7645573  76.6197550  62.3969645  23.3250913
  75.7124611  62.1658899  23.5242062  77.1168582  61.6007265  23.5124894
  79.5265629  71.1067153  26.2447599  78.8527327  71.4098849  26.8532557
  79.9131451  71.9096233  25.8953056  77.7985783  62.4982240  27.8474903
  76.8897002  62.2141273  27.9447372  77.8280867  62.9181319  26.9878209
  68.3673954  60.2187754  31.8290105  68.1698353  59.6257115  31.1041171
  67.8120618  59.9139965  32.5466044  77.4961871  64.0390984  25.1862981
  77.0581301  63.3226843  24.7268619  78.2372312  64.2667099  24.6248073
  74.5537416  65.6008707  33.4371304  75.3478014  65.1059027  33.2353879
  73.8429108  65.0726570  33.0739010  70.8620179  59.7451788  29.5131057
  69.9317767  59.6836244  29.7301019  70.9577651  59.2227741  28.7167698
  72.2917929  74.4236188  35.2334538  72.5314527  75.0554712  35.9113557
  71.4487126  74.0724228  35.5199897  73.4071644  57.1160790  23.9016343
  72.5301111  56.9949591  23.5378590  73.8829398  56.3246868  23.6495232
  64.9273785  61.9037950  33.9957850  65.6144824  61.5899680  33.4078866
  64.7721913  62.8079314  33.7225102  69.9124106  67.4132943  37.5470874
  70.4977543  66.6676631  37.6798778  69.7148944  67.7236900  38.4307538
  64.5041761  59.9838543  36.2675317  64.5425860  59.4502134  37.0612435
  63.9982054  59.4573749  35.6486295  68.1350338  58.7102645  29.3429249
  68.4303779  57.8013324  29.2896302  67.2338374  58.6890385  29.0210251
  83.4922369  68.6852636  27.5187422  84.1873274  69.3059329  27.7374737
  83.8345519  67.8347987  27.7939800  69.5546792  68.3935866  33.4094634
  70.3804812  68.0939638  33.0293277  69.2040844  67.6243488  33.8584423
  67.7555397  66.3122192  34.3683568  66.9187306  65.8844367  34.1867569
  67.7279043  66.5054636  35.3054359  74.0841832  66.2966257  28.9550768
  74.2329953  66.9801722  28.3017441  74.8908276  66.2771347  29.4700224
  71.8394465  62.3231435  29.9611837  71.5940507  61.4193765  30.1592047
  72.0090380  62.3248585  29.0191315  71.1090113  58.0559793  27.4597998
  70.4159358  58.1304148  26.8038034  70.8641865  57.2920136  27.9819515
  77.5837238  68.7914388  26.4262516  77.0111205  69.4104575  25.9732987
  78.1570031  69.3413749  26.9602437  83.4322514  68.3917408  24.5175045
  83.3536146  68.0577272  25.4110803  84.2532181  68.8839176  24.5166518
  77.9684036  60.1275201  23.7678568  78.9143141  59.9981409  23.8366986
  77.5898281  59.3889862  24.2447996  76.1526953  58.0525177  23.7033453
  75.2458409  57.7558290  23.7796167  76.4302934  57.7554995  22.8367739
  74.9225738  54.9112112  23.8445432  75.7844902  55.2367010  24.1041250
  75.1076082  54.1243608  23.3318498  66.9393154  62.9934452  36.1225621
  66.2456625  62.5788405  35.6095576  67.6866145  63.0354988  35.5259040
  68.8529896  62.9252706  33.9991636  68.8300584  63.0240393  33.0473519
  69.1630533  63.7717856  34.3208802  69.8667503  70.5248480  35.1308448
  69.7321971  69.7648881  34.5646446  69.4499565  71.2489380  34.6637237
  81.0026466  65.7085404  24.1385024  81.7062316  65.9135406  24.7542679
  80.2789115  66.2762166  24.4034107  82.9113163  66.1467933  26.1883484
  83.7458767  65.7149131  26.0060959  82.7497506  65.9749947  27.1160378
  91.5397439  76.6637584  36.2838660  92.1775848  76.5444331  35.5802001
  91.4218281  77.6118428  36.3426613  88.3487145  76.6165012  36.2200185
  88.0105656  76.5006077  35.3320720  89.2176913  76.2156177  36.2001191
  84.2073960  78.4700489  32.2097076  83.6438826  78.3790425  31.4413364
  84.0926356  77.6500393  32.6899569  88.8306928  77.7699864  42.1786391
  88.8195569  77.3752662  41.3066894  88.9927567  77.0365936  42.7720162
  81.7538392  79.9651680  35.0481297  82.5459684  79.6242505  34.6327596
  81.9935043  80.0746655  35.9683450  89.7873519  82.1371456  27.5211541
  89.1361499  82.7225537  27.1345555  90.5817882  82.6677651  27.5806578
  83.7129146  79.2260593  27.9198675  84.4860022  78.6789580  27.7811551
  84.0654545  80.0904843  28.1313137  85.5514189  80.5536976  41.1265575
  85.2604055  81.4582606  41.0112241  86.1871173  80.5953503  41.8409644
  86.4770396  77.9313824  37.7166934  87.0733968  77.7069847  37.0023897
  86.5345367  77.1898570  38.3192382  86.0495424  75.3853259  25.5517125
  86.3020945  74.8634781  24.7900588  85.1119983  75.2219405  25.6543809
  91.0938707  74.3889038  33.3591869  91.8801796  73.9708461  33.0082286
  91.3577411  75.2935130  33.5273517  91.2648784  79.8261888  28.0580525
  90.6294617  79.8996515  28.7701430  90.9346191  80.4155487  27.3799605
  96.4947134  74.3264271  34.2624847  97.2272306  73.7563488  34.4962677
  95.7386490  73.9385871  34.7031353  85.7691713  77.2881365  27.7541500
  85.6527971  76.6126269  28.4222585  85.8793973  76.8013739  26.9373653
  88.1123254  76.7491513  31.4588189  87.7481461  76.2222134  32.1701111
  88.9690370  76.3589982  31.2854675  87.7528741  71.7781412  26.4549538
  87.9203143  72.6461649  26.8220009  87.5625910  71.9408694  25.5310827
  90.5104074  80.2398391  38.1215368  90.2104797  81.1423430  38.0131176
  90.1655134  79.9730574  38.9736521  83.9616555  76.6912188  34.1552073
  83.0367052  76.5588402  34.3629765  84.2100969  77.4706407  34.6522015
  87.7317962  74.2339070  27.4396205  87.6117587  74.6796120  28.2781685
  87.0370550  74.5824387  26.8809743  81.3225367  76.3345462  34.9895862
  81.4517748  76.5879940  35.9035274  80.6422818  76.9273170  34.6700517
  85.4924854  87.0042711  31.0886336  85.4148884  87.9550537  31.1674817
  84.8886497  86.6588584  31.7461262  93.4303028  74.7060543  28.2676539
  94.3420884  74.9387930  28.0924236  92.9212675  75.2897587  27.7051617
  86.2388456  76.9856030  43.3065670  86.9803140  77.5241074  43.0300494
  85.5325441  77.6122319  43.4637222  91.7143796  79.1285171  41.9037831
  92.1227152  78.6867581  41.1592464  90.9921057  78.5537798  42.1572024
  92.0372610  79.6886361  35.6590120  91.4081473  79.8532075  34.9566188
  91.6498272  80.1027971  36.4301084  95.9161842  80.6240799  33.0134484
  95.2312880  81.0039701  32.4631517  96.0005691  81.2336126  33.7466432
  93.1712774  78.2700758  39.6129828  93.3829669  78.9132518  38.9364209
  93.1242522  77.4363075  39.1451758  87.5900572  79.4260769  32.9240205
  88.0538918  79.7048472  32.1344828  87.3257370  78.5244214  32.7413296
  84.4824653  78.9732251  35.8619969  85.0526010  79.4019519  35.2237453
  85.0732765  78.6914836  36.5604154  86.5269458  75.5483922  29.7329771
  87.2293501  76.0004965  30.2003697  86.1950087  74.9067741  30.3609664
  94.2858602  81.1472714  37.7852185  95.1076045  80.7452901  37.5034867
  94.2821004  81.0440948  38.7368301  82.2209537  74.1712054  31.9930381
  81.4240701  74.2830748  32.5113877  81.9935130  74.5098706  31.1271271
  88.0515205  80.6956757  39.9412895  88.1159638  81.1577164  40.7771067
  87.3426129  80.0654122  40.0695205 102.3764595  77.4911462  34.1337156
 101.6228303  76.9218860  33.9781161 102.5112136  77.4574127  35.0807791
  87.7663223  82.3624864  29.8091876  87.6308898  83.2076400  30.2376724
  88.3073035  82.5644142  29.0457810  81.2192620  79.8800302  30.3819801
  81.7317141  80.6743553  30.5325366  81.8715333  79.1826593  30.3153402
  83.0287505  82.9966059  32.4642554  83.2054133  83.9184023  32.2763538
  83.8244338  82.6824478  32.8936934  89.3931699  82.9848431  43.9392218
  88.9495553  82.1984810  43.6213122  90.0548913  83.1727581  43.2736109
  84.1518820  84.5144233  38.4652896  84.7026245  84.3861296  37.6929890
  83.3130296  84.8139122  38.1147789  91.4912937  83.2651231  41.9673619
  91.4731413  84.0860112  41.4753888  92.4132857  83.1405306  42.1923760
  87.9485991  80.7795360  42.8097128  88.4814328  80.0183649  42.5796435
  87.4200072  80.4869012  43.5521282  79.1841537  78.2088957  31.1579371
  80.0216759  78.6185965  30.9413079  79.3619805  77.2688399  31.1279565
  91.0805969  75.8764037  26.8463204  90.5652592  76.6468642  27.0851592
  90.8083277  75.2029174  27.4696266  96.0540243  78.6296392  28.7816378
  95.2769686  78.2907552  28.3371540  96.7331724  78.6349015  28.1071343
  90.8692272  73.7491130  28.6722986  90.5642408  74.0637279  29.5233129
  91.8222714  73.8272549  28.7150319  89.3138704  79.9081353  30.3215940
  88.7860066  79.1734112  30.0089177  88.8126207  80.6856029  30.0755908
  94.2931550  78.1030373  35.4382986  93.6355224  78.7929635  35.5263114
  95.0971949  78.4926805  35.7816972  93.1037009  76.4574746  33.4886928
  93.6168891  77.0904738  33.9908637  93.7538233  75.8575942  33.1230288
  84.3727019  72.6005480  26.7018436  83.5364331  72.9380167  27.0227711
  84.2331788  72.4654460  25.7645573  87.4591304  77.7261563  23.3250913
  86.5518366  77.4950817  23.5242062  87.9562336  76.9299182  23.5124894
  90.3659383  86.4359070  26.2447599  89.6921082  86.7390767  26.8532557
  90.7525205  87.2388151  25.8953056  89.5817840  73.9324202  35.7345268
  88.6640401  74.1539149  35.5766956  89.9977983  74.0070512  34.8756975
  90.3652887  75.3315617  30.8647948  91.1124706  75.8437014  30.5555070
  90.6344477  75.0099670  31.7252342  88.6379538  77.8274158  27.8474903
  87.7290757  77.5433191  27.9447372  88.6674621  78.2473237  26.9878209
  93.8698805  81.4380747  31.6166070  93.4161132  80.5971657  31.6731261
  93.2392772  82.0742146  31.9540850  92.3131744  83.2757244  32.5515888
  92.6054719  83.8362301  31.8328254  92.8230365  83.5685805  33.3069047
  79.2067708  75.5479672  31.8290105  79.0092108  74.9549033  31.1041171
  78.6514372  75.2431882  32.5466044  87.1864432  75.4402779  33.9484698
  87.2413041  74.4876615  33.8727175  86.3755634  75.5962218  34.4325996
  88.3355625  79.3682902  25.1862981  87.8975055  78.6518761  24.7268619
  89.0766066  79.5959016  24.6248073  85.1256792  74.0579838  31.7075077
  84.3124657  74.3574009  32.1140269  85.6215786  73.6635527  32.4249559
  87.2765370  84.0537595  33.6409342  87.2341548  84.2798442  32.7117874
  88.1928068  83.8200970  33.7895143  96.4528740  77.6440099  31.2439300
  96.3146639  77.8341695  30.3160489  96.0964959  78.4059481  31.7007351
  96.4798120  79.7116626  36.2550571  96.9134627  79.6191915  37.1033625
  97.1929701  79.6874126  35.6170587  85.3931170  80.9300624  33.4371304
  86.1871769  80.4350944  33.2353879  84.6822863  80.4018487  33.0739010
  90.2126015  83.3118720  37.7883672  90.2663037  83.8809656  38.5561388
  89.3440796  83.4820605  37.4237709  81.7013934  75.0743706  29.5131057
  80.7711522  75.0128161  29.7301019  81.7971406  74.5519659  28.7167698
  97.3413669  79.7540326  38.7883457  97.5349559  80.6586137  39.0342732
  97.2414288  79.2947745  39.6222042  92.4028778  79.9047069  44.3624337
  92.2514284  79.6757621  43.4454421  92.3933458  80.8617671  44.3755682
  89.1714114  77.4778982  39.3470604  90.1006174  77.6290141  39.1739571
  88.7505145  77.5663003  38.4919250  87.9702446  81.5029646  37.1169141
  87.8313532  81.1348431  37.9895079  87.1817043  82.0177286  36.9453099
  88.5650598  86.6038743  28.4594678  88.7402354  86.1326786  29.2740301
  87.8783386  87.2304509  28.6875939  89.5207661  80.8811249  34.5057979
  89.1857494  80.8412019  35.4015629  89.0211607  80.2155965  34.0328389
  83.4951905  76.2878879  40.0310560  83.3571703  75.5559118  40.6322099
  84.4056829  76.1987779  39.7494748  92.4566853  78.2267283  24.7795039
  91.8396024  77.5014111  24.6828091  91.9883342  78.9876644  24.4362113
  86.1234206  75.9998838  39.5194240  86.8333825  75.3592030  39.4780858
  86.0803514  76.2511733  40.4420421  94.1120985  82.9366192  42.4400819
  94.0533531  82.2525412  41.7731402  94.5140503  83.6785182  41.9881445
  83.1311684  89.7528105  35.2334538  83.3708282  90.3846630  35.9113557
  82.2880880  89.4016146  35.5199897  84.2465399  72.4452708  23.9016343
  83.3694865  72.3241508  23.5378590  84.7223152  71.6538786  23.6495232
  94.1138392  80.9005776  40.6714799  93.2265171  80.5631697  40.7941198
  94.6836943  80.1688807  40.9083564  75.7667539  77.2329867  33.9957850
  76.4538579  76.9191597  33.4078866  75.6115668  78.1371232  33.7225102
  87.6439545  85.5607228  37.6376042  87.5709717  86.3662199  38.1495347
  87.2016939  85.7599194  36.8124063  87.4329325  84.7978998  31.1478864
  86.6496847  85.3400678  31.2417088  88.1322070  85.3152978  31.5473105
  98.5955733  76.3113993  35.4331360  98.5845609  77.1938708  35.0625294
  97.7273112  75.9585544  35.2385898  90.1038229  85.4594062  39.7934201
  90.8166201  86.0941527  39.7210102  89.6128258  85.5557928  38.9774203
  91.8255756  79.3645315  31.3651492  90.8912035  79.4846777  31.1956197
  92.0032424  78.4617781  31.1011502  87.3260944  72.7491010  33.5184754
  86.9558731  72.1962051  34.2065659  87.8220036  72.1449144  32.9659754
  95.2128307  75.2062634  31.9001527  95.6788759  76.0390626  31.8261829
  95.6635808  74.7407615  32.6046785  85.1550142  83.2088505  40.6139772
  85.8559602  83.8424988  40.7669166  84.6845257  83.5503237  39.8535411
  93.2804538  81.5506455  28.8987679  93.5564382  81.4363050  29.8081553
  92.4109037  81.1523940  28.8599852  89.9158602  85.7992806  32.5420492
  90.0980997  84.9814462  33.0048245  90.7391588  86.0160498  32.1045382
  90.2500768  84.7260991  29.8035541  90.7788534  84.2153446  29.1905703
  90.5128987  84.4103521  30.6681074  89.0039001  76.5052924  44.9258359
  88.3279638  76.4047053  45.5960734  89.8266635  76.3492138  45.3894356
  80.7517861  82.7424860  37.5470874  81.3371297  81.9968548  37.6798778
  80.5542699  83.0528817  38.4307538  83.6056516  85.7776108  32.5633317
  82.9366891  86.2622235  32.0797357  83.4669385  86.0245328  33.4776695
  75.3435515  75.3130461  36.2675317  75.3819615  74.7794051  37.0612435
  74.8375808  74.7865666  35.6486295  87.7461784  87.8119851  39.1615975
  88.2980092  87.9751473  39.9265060  88.0867978  88.4024289  38.4896000
  92.5972659  82.6381109  45.0164629  93.1412563  83.2511067  44.5219584
  92.0159503  83.1960687  45.5331642  78.9744093  74.0394563  29.3429249
  79.2697534  73.1305241  29.2896302  78.0732129  74.0182302  29.0210251
  90.8830172  85.7601827  36.1479657  90.7581311  84.9591567  35.6390603
  91.5409263  86.2548020  35.6593627  92.9465080  83.5610847  37.7759207
  91.9995416  83.4416198  37.7037534  93.2947853  82.6733345  37.8585469
  80.7031934  71.7208660  29.4668574  80.3744641  70.8406039  29.2843680
  81.0571305  71.6656329  30.3544963  89.9511513  83.3563563  33.9763559
  89.8036476  82.4280271  34.1571129  90.7765007  83.3783654  33.4920635
  93.5545635  84.1792122  35.0628432  94.4792183  83.9734983  34.9252883
  93.3860938  83.9308523  35.9717774  85.8041905  70.5056252  28.0337344
  86.5250267  70.8837505  27.5301061  85.1807209  71.2245129  28.1372322
  84.6872249  74.1687114  35.5466421  84.5416830  74.4827417  36.4390703
  84.2097453  74.7872014  34.9937320  93.3440951  84.6977789  30.4190524
  93.5177829  84.1324212  29.6664376  93.8369843  85.4978684  30.2370014
  79.1617911  76.7092458  38.4854082  78.6171379  77.4852266  38.6174357
  80.0397261  77.0563263  38.3273204  99.1980343  77.4614212  32.0380823
  99.6411489  76.7121538  31.6399947  98.3206853  77.4524349  31.6554555
  94.3316124  84.0144554  27.5187422  95.0267028  84.6351246  27.7374737
  94.6739274  83.1639905  27.7939800  96.2307547  81.4644259  29.0474753
  96.7558871  81.8031532  28.3224073  96.1429900  80.5291275  28.8637887
  87.8927596  85.3778333  41.1764629  88.2014722  85.1327480  42.0487329
  88.6903078  85.5824971  40.6883500  87.9148208  87.5316243  33.4070006
  87.4753198  87.0392621  34.1002863  88.6656325  86.9889210  33.1662081
  80.3940547  83.7227783  33.4094634  81.2198567  83.4231555  33.0293277
  80.0434599  82.9535406  33.8584423  85.3622080  83.0754252  35.4792308
  84.7402089  82.4124957  35.1794535  86.0326947  83.1015384  34.7965955
  78.5949152  81.6414110  34.3683568  77.7581060  81.2136284  34.1867569
  78.5672797  81.8346553  35.3054359  95.9201453  82.0977163  44.3525951
  95.1296997  82.0801302  43.8130450  95.6834808  82.6365457  45.1074987
  96.0399328  78.9469629  41.6658679  96.0897333  78.7819637  42.6074202
  95.9313251  78.0796888  41.2756560  84.9235587  81.6258175  28.9550768
  85.0723707  82.3093639  28.3017441  85.7302030  81.6063265  29.4700224
  97.5417525  81.3666571  41.9100701  97.2502333  81.7296551  42.7464162
  96.9289656  80.6533579  41.7314033  98.7413207  78.9319451  34.4303271
  99.5760099  79.3709255  34.5940831  98.8772336  78.4558104  33.6111517
  95.7904713  76.4899185  40.3780759  96.2658835  76.6826832  39.5699610
  94.8670279  76.5458371  40.1324142  82.6788220  77.6523353  29.9611837
  82.4334262  76.7485683  30.1592047  82.8484134  77.6540503  29.0191315
  81.9483867  73.3851710  27.4597998  81.2553112  73.4596065  26.8038034
  81.7035619  72.6212054  27.9819515  88.4230992  84.1206305  26.4262516
  87.8504959  84.7396493  25.9732987  88.9963786  84.6705667  26.9602437
  91.6428252  84.4043456  27.5571098  92.5758925  84.3389017  27.7603973
  91.5551465  85.2399722  27.0985630  94.2716269  83.7209326  24.5175045
  94.1929900  83.3869190  25.4110803  95.0925936  84.2131094  24.5166518
  96.9694460  76.5871065  37.7251364  96.9370780  75.6487066  37.9111048
  97.5795084  76.6655102  36.9917189  88.8077791  75.4567118  23.7678568
  89.7536896  75.3273326  23.8366986  88.4292036  74.7181780  24.2447996
 102.7871010  77.6487072  36.8657401 103.5174398  77.3872360  37.4265104
 102.1777955  76.9115794  36.9059469 100.8686307  75.7894935  37.4631852
 100.1419470  75.6550900  36.8548344 100.4533594  76.0971763  38.2688570
  88.6916483  79.5084864  45.2279225  89.6119493  79.6863463  45.4219272
  88.6566066  78.5640910  45.0758924  86.9920708  73.3817095  23.7033453
  86.0852163  73.0850207  23.7796167  87.2696689  73.0846913  22.8367739
  77.9098648  74.7023458  34.1532500  77.5901433  73.8488766  33.8606874
  77.3632076  74.9172036  34.9090467  81.6878556  77.4185899  37.8702006
  81.9064566  78.3503007  37.8890040  82.1004330  77.0593873  38.6556810
  85.7619493  70.2404030  23.8445432  86.6238657  70.5658928  24.1041250
  85.9469837  69.4535526  23.3318498  77.7786908  78.3226370  36.1225621
  77.0850380  77.9080322  35.6095576  78.5259899  78.3646906  35.5259040
  79.6923651  78.2544623  33.9991636  79.6694339  78.3532311  33.0473519
  80.0024287  79.1009774  34.3208802  82.3511029  80.3120778  38.1138251
  83.3054282  80.2804721  38.0468182  82.1523552  79.8511402  38.9288476
  82.9410411  78.8821894  40.6809048  83.7603300  79.3765973  40.7043885
  83.2147219  77.9653863  40.6526616  96.0491543  71.2979168  33.7591343
  96.8251933  71.7875620  34.0315960  95.3239677  71.7237222  34.2163212
  98.4864102  72.0106787  34.8165284  99.0808593  71.7702523  34.1058592
  98.5590686  71.2913917  35.4438820  80.7061258  85.8540398  35.1308448
  80.5715725  85.0940799  34.5646446  80.2893320  86.5781298  34.6637237
  91.8420221  81.0377321  24.1385024  92.5456071  81.2427324  24.7542679
  91.1182869  81.6054083  24.4034107  92.6718031  76.7887183  30.2587294
  92.6153232  77.2455734  29.4194926  93.2246373  76.0277867  30.0810137
  96.4822837  72.5776914  31.0837413  96.2259771  72.1773550  31.9145621
  95.8575705  73.2920708  30.9587553 100.7935175  75.3172988  33.5908705
 100.2334733  75.3866177  34.3640267 100.1878678  75.1413972  32.8708201
  83.8630383  86.7509715  35.3426891  83.7462768  87.6955147  35.2405581
  83.0422830  86.4483276  35.7312690  93.7506918  81.4759851  26.1883484
  94.5852522  81.0441049  26.0060959  93.5891261  81.3041864  27.1160378
  93.4052810  77.9791964  27.5539823  93.3501614  77.8136235  26.6128267
  92.7798865  78.6867997  27.7102013  90.7198717  80.2840876  46.8793386
  91.5889877  80.4581528  46.5180021  90.2405469  81.1035293  46.7569115
  86.7148936  67.4800073  27.1325141  86.7027605  68.4241913  27.2893412
  87.6072357  67.2970218  26.8384603  84.8884898  87.4037977  38.5582819
  85.7912144  87.4361587  38.8749314  84.6622268  86.4738428  38.5729155
  86.6438500  86.1568963  35.2192898  85.6934131  86.1570825  35.1057270
  86.9470986  85.4101698  34.7028933 102.3791193  91.9929502  36.2838660
 103.0169603  91.8736249  35.5802001 102.2612036  92.9410346  36.3426613
  99.1880899  91.9456930  36.2200185  98.8499411  91.8297994  35.3320720
 100.0570667  91.5448095  36.2001191  95.0467715  93.7992406  32.2097076
  94.4832580  93.7082343  31.4413364  94.9320110  92.9792311  32.6899569
  99.6700682  93.0991781  42.1786391  99.6589323  92.7044580  41.3066894
  99.8321322  92.3657854  42.7720162  92.5932147  95.2943598  35.0481297
  93.3853439  94.9534422  34.6327596  92.8328797  95.4038573  35.9683450
 100.6267274  97.4663374  27.5211541  99.9755253  98.0517454  27.1345555
 101.4211637  97.9969569  27.5806578  94.5522901  94.5552511  27.9198675
  95.3253777  94.0081498  27.7811551  94.9048300  95.4196760  28.1313137
  96.3907943  95.8828893  41.1265575  96.0997809  96.7874524  41.0112241
  97.0264928  95.9245421  41.8409644  97.3164150  93.2605742  37.7166934
  97.9127723  93.0361764  37.0023897  97.3739122  92.5190487  38.3192382
  96.8889179  90.7145177  25.5517125  97.1414699  90.1926698  24.7900588
  95.9513738  90.5511323  25.6543809 101.9332461  89.7180956  33.3591869
 102.7195551  89.3000379  33.0082286 102.1971166  90.6227048  33.5273517
 102.1042539  95.1553806  28.0580525 101.4688372  95.2288432  28.7701430
 101.7739945  95.7447405  27.3799605 107.3340889  89.6556189  34.2624847
 108.0666061  89.0855406  34.4962677 106.5780244  89.2677789  34.7031353
  96.6085467  92.6173283  27.7541500  96.4921726  91.9418186  28.4222585
  96.7187727  92.1305657  26.9373653  98.9517008  92.0783430  31.4588189
  98.5875216  91.5514051  32.1701111  99.8084124  91.6881899  31.2854675
 104.8566309  83.3677763  38.7219456 104.5249634  84.2373174  38.4980671
 104.2611922  83.0514047  39.4013486  98.5922495  87.1073330  26.4549538
  98.7596898  87.9753566  26.8220009  98.4019664  87.2700612  25.5310827
 101.3497829  95.5690309  38.1215368 101.0498552  96.4715348  38.0131176
 101.0048888  95.3022492  38.9736521  94.8010310  92.0204106  34.1552073
  93.8760806  91.8880320  34.3629765  95.0494723  92.7998325  34.6522015
 104.7494972  88.0872849  35.8012806 103.8411850  88.0188257  35.5071567
 104.6982568  88.5644794  36.6294631  98.5711716  89.5630987  27.4396205
  98.4511341  90.0088038  28.2781685  97.8764305  89.9116305  26.8809743
  92.1619121  91.6637379  34.9895862  92.2911502  91.9171858  35.9035274
  91.4816572  92.2565087  34.6700517  96.3318608 102.3334629  31.0886336
  96.2542638 103.2842454  31.1674817  95.7280252 101.9880502  31.7461262
  98.8235838  89.5062495  43.7447703  98.0469172  90.0656415  43.7350568
  99.4626401  89.9919278  44.2662573 106.6156619  86.2889287  37.5790680
 105.9730999  86.5821821  36.9330474 106.1111547  86.1742208  38.3843876
 104.2696782  90.0352461  28.2676539 105.1814638  90.2679847  28.0924236
 103.7606429  90.6189505  27.7051617  97.0782210  92.3147948  43.3065670
  97.8196895  92.8532992  43.0300494  96.3719196  92.9414237  43.4637222
 102.5537550  94.4577088  41.9037831 102.9620906  94.0159499  41.1592464
 101.8314812  93.8829716  42.1572024  98.9068620  89.3949695  39.2771388
  99.7529815  89.8189109  39.4206037  98.8467258  88.7383319  39.9709952
 102.8766365  95.0178279  35.6590120 102.2475227  95.1823993  34.9566188
 102.4892027  95.4319889  36.4301084 106.7555597  95.9532717  33.0134484
 106.0706635  96.3331618  32.4631517 106.8399446  96.5628044  33.7466432
 102.0568065  87.0554064  40.9352562 101.8128997  87.8096124  40.3986838
 102.3327996  87.4339411  41.7699809 104.0106528  93.5992676  39.6129828
 104.2223423  94.2424436  38.9364209 103.9636276  92.7654992  39.1451758
 101.6132757  86.2110497  36.5166400 100.7517236  86.5091750  36.8083137
 101.6395192  86.4280895  35.5847432  98.4294327  94.7552687  32.9240205
  98.8932672  95.0340390  32.1344828  98.1651125  93.8536132  32.7413296
  95.3218408  94.3024169  35.8619969  95.8919765  94.7311437  35.2237453
  95.9126519  94.0206753  36.5604154  97.3663213  90.8775839  29.7329771
  98.0687256  91.3296883  30.2003697  97.0343841  90.2359658  30.3609664
  95.8143574  89.4687596  44.1080980  95.1842235  90.1503877  44.3416377
  95.7079662  89.3570678  43.1634118  91.1088547  89.1359392  35.0346904
  90.3187601  89.3916921  34.5587015  91.5999794  89.9507730  35.1398945
 105.1252356  96.4764631  37.7852185 105.9469800  96.0744819  37.5034867
 105.1214759  96.3732865  38.7368301  93.0603292  89.5003971  31.9930381
  92.2634455  89.6122666  32.5113877  92.8328884  89.8390624  31.1271271
  98.8908960  96.0248675  39.9412895  98.9553392  96.4869082  40.7771067
  98.1819883  95.3946040  40.0695205  89.3926250  89.3889883  37.4661895
  89.6434288  90.2736893  37.7319471  89.9285798  89.2094484  36.6936987
 113.2158349  92.8203380  34.1337156 112.4622058  92.2510778  33.9781161
 113.3505890  92.7866044  35.0807791  98.6056977  97.6916782  29.8091876
  98.4702652  98.5368318  30.2376724  99.1466790  97.8936060  29.0457810
  95.0924317  83.7708362  46.4706231  94.6991262  83.2174561  47.1453875
  95.9090457  84.0818940  46.8612749  92.0586375  95.2092220  30.3819801
  92.5710895  96.0035470  30.5325366  92.7109087  94.5118511  30.3153402
  93.8681259  98.3257976  32.4642554  94.0447888  99.2475941  32.2763538
  94.6638093  98.0116396  32.8936934  98.0092278  85.1866241  44.0626488
  98.7501991  85.7873394  43.9830950  98.2410201  84.4443879  43.5044530
  93.1533616  90.3722608  42.3404717  93.0387131  89.4707866  42.6411816
  92.2978134  90.6186305  41.9889534 100.2325454  98.3140349  43.9392218
  99.7889308  97.5276727  43.6213122 100.8942667  98.5019499  43.2736109
  94.9912575  99.8436150  38.4652896  95.5420000  99.7153214  37.6929890
  94.1524051 100.1431039  38.1147789 102.3306692  98.5943149  41.9673619
 102.3125167  99.4152030  41.4753888 103.2526612  98.4697224  42.1923760
  98.7879746  96.1087278  42.8097128  99.3208083  95.3475566  42.5796435
  98.2593827  95.8160930  43.5521282 101.9549441  81.2147344  38.3390769
 101.6113710  82.1048986  38.2629880 102.3228403  81.0249002  37.4760354
  90.0235291  93.5380874  31.1579371  90.8610513  93.9477883  30.9413079
  90.2013559  92.5980317  31.1279565 101.9199724  91.2055955  26.8463204
 101.4046347  91.9760560  27.0851592 101.6477032  90.5321091  27.4696266
  99.5046835  86.0505656  31.9048443  98.6488431  85.6612506  31.7254081
  99.9173786  86.1297617  31.0448228 101.0345981  83.5851999  36.3040002
 100.5310777  83.5482134  35.4907808 101.3276588  84.4944742  36.3636659
  97.2788867  83.6690729  35.3106184  98.1441864  83.4733538  34.9512074
  97.3466376  83.4401081  36.2375541 106.8933998  93.9588310  28.7816378
 106.1163440  93.6199469  28.3371540 107.5725479  93.9640933  28.1071343
 101.7086027  89.0783047  28.6722986 101.4036162  89.3929196  29.5233129
 102.6616469  89.1564467  28.7150319 100.1532459  95.2373271  30.3215940
  99.6253820  94.5026030  30.0089177  99.6519961  96.0147947  30.0755908
 105.1325305  93.4322291  35.4382986 104.4748979  94.1221552  35.5263114
 105.9365704  93.8218723  35.7816972  94.8851186  85.8992937  32.6822551
  95.4594938  85.6768118  31.9495744  95.4722169  85.9681631  33.4351152
 103.9430763  91.7866664  33.4886928 104.4562645  92.4196656  33.9908637
 104.5931987  91.1867859  33.1230288  95.2120773  87.9297398  26.7018436
  94.3758086  88.2672084  27.0227711  95.0725543  87.7946378  25.7645573
  97.1873854  82.7734186  31.4097620  96.5338266  82.4583203  30.7854235
  97.1454328  82.1509926  32.1357443  98.2985059  93.0553481  23.3250913
  97.3912120  92.8242734  23.5242062  98.7956091  92.2591100  23.5124894
 100.4211594  89.2616119  35.7345268  99.5034156  89.4831066  35.5766956
 100.8371738  89.3362430  34.8756975 101.2046642  90.6607535  30.8647948
 101.9518461  91.1728932  30.5555070 101.4738232  90.3391588  31.7252342
  99.4773292  93.1566076  27.8474903  98.5684511  92.8725108  27.9447372
  99.5068376  93.5765154  26.9878209 104.7092560  96.7672665  31.6166070
 104.2554887  95.9263575  31.6731261 104.0786526  97.4034064  31.9540850
 103.6525479  87.6964651  32.8466738 102.9148236  87.1842037  33.1776980
 103.9052253  87.2565033  32.0350015 103.1525499  98.6049162  32.5515888
 103.4448473  99.1654219  31.8328254 103.6624119  98.8977723  33.3069047
 103.7537106  80.4740903  33.4408507 104.0595983  79.6138267  33.1534422
 104.4789711  81.0658523  33.2407501  90.0461463  90.8771590  31.8290105
  89.8485862  90.2840950  31.1041171  89.4908127  90.5723800  32.5466044
  98.0258186  90.7694696  33.9484698  98.0806796  89.8168533  33.8727175
  97.2149388  90.9254135  34.4325996  99.1749380  94.6974819  25.1862981
  98.7368810  93.9810678  24.7268619  99.9159821  94.9250934  24.6248073
  95.9650546  89.3871756  31.7075077  95.1518412  89.6865927  32.1140269
  96.4609540  88.9927445  32.4249559  98.1159124  99.3829513  33.6409342
  98.0735303  99.6090359  32.7117874  99.0321823  99.1492888  33.7895143
 101.5624758  89.8513580  40.5389971 101.9174146  90.0785054  41.3984437
 102.2096889  90.1831957  39.9167226 107.2922495  92.9732016  31.2439300
 107.1540393  93.1633612  30.3160489 106.9358714  93.7351399  31.7007351
  95.4564621  86.9590112  37.3236312  96.0964000  86.8178871  36.6259275
  94.6242151  86.6724625  36.9474914 107.3191874  95.0408543  36.2550571
 107.7528381  94.9483832  37.1033625 108.0323455  95.0166044  35.6170587
  96.2324925  96.2592542  33.4371304  97.0265523  95.7642862  33.2353879
  95.5216617  95.7310405  33.0739010 101.0519769  98.6410637  37.7883672
 101.1056792  99.2101574  38.5561388 100.1834551  98.8112523  37.4237709
  92.5407688  90.4035624  29.5131057  91.6105276  90.3420079  29.7301019
  92.6365160  89.8811576  28.7167698  92.4593237  86.9290437  32.1009299
  92.7200055  87.8435770  31.9918459  93.2810410  86.4614879  32.2505911
  93.9318163  88.3428194  39.2708123  94.6041216  88.1345556  38.6220772
  93.1047949  88.1450280  38.8313355 108.1807424  95.0832244  38.7883457
 108.3743314  95.9878055  39.0342732 108.0808042  94.6239663  39.6222042
  99.8343735  84.9690135  41.2873784  99.1871650  85.6680084  41.1938260
 100.6044750  85.4026279  41.6550032 103.2422533  95.2338987  44.3624337
 103.0908039  95.0049538  43.4454421 103.2327212  96.1909588  44.3755682
 100.0107869  92.8070900  39.3470604 100.9399929  92.9582059  39.1739571
  99.5898899  92.8954920  38.4919250  98.8096201  96.8321564  37.1169141
  98.6707286  96.4640348  37.9895079  98.0210797  97.3469203  36.9453099
  99.4044353 101.9330660  28.4594678  99.5796108 101.4618704  29.2740301
  98.7177141 102.5596427  28.6875939 100.3601416  96.2103167  34.5057979
 100.0251249  96.1703937  35.4015629  99.8605362  95.5447883  34.0328389
  94.3345660  91.6170797  40.0310560  94.1965458  90.8851035  40.6322099
  95.2450583  91.5279697  39.7494748 103.2960608  93.5559201  24.7795039
 102.6789778  92.8306029  24.6828091 102.8277096  94.3168561  24.4362113
  96.9627961  91.3290756  39.5194240  97.6727579  90.6883948  39.4780858
  96.9197269  91.5803651  40.4420421 104.9514739  98.2658109  42.4400819
 104.8927285  97.5817329  41.7731402 105.3534258  99.0077099  41.9881445
  95.6756895  88.3155974  41.3389879  95.1394252  87.8646712  41.9911476
  95.0873603  88.4501883  40.5960344  93.9705438 105.0820023  35.2334538
  94.2102036 105.7138547  35.9113557  93.1274635 104.7308063  35.5199897
  95.0859153  87.7744625  23.9016343  94.2088620  87.6533426  23.5378590
  95.5616907  86.9830704  23.6495232 104.9532146  96.2297693  40.6714799
 104.0658925  95.8923615  40.7941198 105.5230698  95.4980724  40.9083564
  86.6061294  92.5621785  33.9957850  87.2932333  92.2483515  33.4078866
  86.4509422  93.4663150  33.7225102  91.4096016  87.4511982  38.4242874
  91.3254204  86.8437651  37.6893284  90.5878722  87.9421000  38.4252370
  98.4833300 100.8899146  37.6376042  98.4103471 101.6954117  38.1495347
  98.0410693 101.0891111  36.8124063  98.2723080 100.1270916  31.1478864
  97.4890601 100.6692596  31.2417088  98.9715825 100.6444895  31.5473105
 101.5819730  85.9365545  33.7913069 102.0788429  85.1835507  33.4714139
 100.8106711  85.9729862  33.2256278 109.4349487  91.6405911  35.4331360
 109.4239363  92.5230626  35.0625294 108.5666866  91.2877461  35.2385898
 100.9431983 100.7885980  39.7934201 101.6559956 101.4233444  39.7210102
 100.4522012 100.8849846  38.9774203 102.6649510  94.6937232  31.3651492
 101.7305789  94.8138695  31.1956197 102.8426179  93.7909699  31.1011502
  98.1654698  88.0782928  33.5184754  97.7952486  87.5253968  34.2065659
  98.6613791  87.4741062  32.9659754 106.0522062  90.5354552  31.9001527
 106.5182514  91.3682543  31.8261829 106.5029562  90.0699533  32.6046785
  95.9943897  98.5380423  40.6139772  96.6953356  99.1716906  40.7669166
  95.5239012  98.8795155  39.8535411 104.1198293  96.8798373  28.8987679
 104.3958137  96.7654967  29.8081553 103.2502792  96.4815858  28.8599852
 104.0238724  82.9035139  35.9392428 103.1101804  83.1339365  36.1074635
 104.4531826  82.9873583  36.7906460 103.7945183  91.0925031  38.4392322
 103.1416633  91.3400938  37.7844775 104.1725563  90.2789169  38.1054799
 100.7552357 101.1284724  32.5420492 100.9374751 100.3106380  33.0048245
 101.5785343 101.3452416  32.1045382 101.0894522 100.0552909  29.8035541
 101.6182289  99.5445363  29.1905703 101.3522742  99.7395439  30.6681074
  99.8432756  91.8344842  44.9258359  99.1673393  91.7338971  45.5960734
 100.6660390  91.6784055  45.3894356  91.5911615  98.0716778  37.5470874
  92.1765052  97.3260466  37.6798778  91.3936453  98.3820735  38.4307538
  94.4450270 101.1068026  32.5633317  93.7760645 101.5914153  32.0797357
  94.3063140 101.3537246  33.4776695  86.1829270  90.6422378  36.2675317
  86.2213369  90.1085969  37.0612435  85.6769563  90.1157584  35.6486295
  98.5855539 103.1411769  39.1615975  99.1373847 103.3043391  39.9265060
  98.9261732 103.7316207  38.4896000  93.5620032  85.4886919  39.7637860
  93.6261359  86.3501750  39.3515257  93.4987152  84.8760921  39.0310218
  93.0372305  87.5610051  43.4110894  93.6644343  87.1787129  44.0248418
  92.1800223  87.3424253  43.7766586 103.4366413  97.9673027  45.0164629
 103.9806317  98.5802985  44.5219584 102.8553258  98.5252605  45.5331642
  89.8137847  89.3686481  29.3429249  90.1091288  88.4597159  29.2896302
  88.9125883  89.3474220  29.0210251 101.7223926 101.0893745  36.1479657
 101.5975066 100.2883484  35.6390603 102.3803017 101.5839938  35.6593627
  93.3432094  87.4442477  35.3256797  92.6218680  88.0578445  35.1864271
  94.1325350  87.9800242  35.2473443 103.7858834  98.8902765  37.7759207
 102.8389170  98.7708116  37.7037534 104.1341608  98.0025263  37.8585469
  96.1458408  84.7796904  41.5997449  96.6692810  85.0259200  42.3623758
  95.9270741  85.6116938  41.1800586  91.5425689  87.0500578  29.4668574
  91.2138395  86.1697957  29.2843680  91.8965060  86.9948247  30.3544963
 100.7905268  98.6855481  33.9763559 100.6430230  97.7572188  34.1571129
 101.6158761  98.7075572  33.4920635  94.6567512  87.3373548  29.8344052
  94.9963585  87.8659469  29.1122660  95.1039633  87.6753954  30.6102618
 104.3939390  99.5084040  35.0628432 105.3185937  99.3026901  34.9252883
 104.2254693  99.2600441  35.9717774  97.3510953  85.7210599  39.2847120
  97.0107773  84.9218412  39.6867800  96.6449959  86.0212310  38.7123953
  98.0027425  82.8059911  37.7374443  98.8253494  82.3320389  37.6153333
  98.2465488  83.5850395  38.2373129  96.6435659  85.8348170  28.0337344
  97.3644022  86.2129422  27.5301061  96.0200963  86.5537046  28.1372322
 100.7866782  86.5393319  28.9695677 101.0030396  87.4217956  28.6684505
 100.3060849  86.1479532  28.2401319  95.5266003  89.4979032  35.5466421
  95.3810584  89.8119335  36.4390703  95.0491207  90.1163932  34.9937320
  97.3862386  86.4881580  35.5947311  97.3723955  85.5922673  35.2579609
  98.1034814  86.4952243  36.2285597  99.2388517  86.9218920  37.6400438
  98.9806295  87.8435991  37.6384769  98.7073557  86.5249354  38.3300902
 104.1834706 100.0269707  30.4190524 104.3571583  99.4616130  29.6664376
 104.6763597 100.8270602  30.2370014  90.0011666  92.0384376  38.4854082
  89.4565134  92.8144184  38.6174357  90.8791015  92.3855181  38.3273204
  96.7899282  85.3695960  30.8634881  96.9115193  84.4412606  31.0625768
  96.5001325  85.3834646  29.9513196  99.6590473  83.0550870  34.0001601
  99.6812169  83.1190204  33.0453580 100.0758532  82.2155379  34.1942107
 110.0374097  92.7906130  32.0380823 110.4805243  92.0413455  31.6399947
 109.1600607  92.7816266  31.6554555 105.1709878  99.3436471  27.5187422
 105.8660783  99.9643164  27.7374737 105.5133028  98.4931823  27.7939800
  90.7877687  91.1654272  41.3784239  90.0459424  91.3136908  41.9648870
  90.4670432  91.4262538  40.5150989 107.0701301  96.7936177  29.0474753
 107.5952626  97.1323450  28.3224073 106.9823654  95.8583192  28.8637887
  98.7321350 100.7070251  41.1764629  99.0408477 100.4619397  42.0487329
  99.5296832 100.9116889  40.6883500  98.7541962 102.8608160  33.4070006
  98.3146952 102.3684539  34.1002863  99.5050079 102.3181128  33.1662081
  91.2334301  99.0519701  33.4094634  92.0592321  98.7523473  33.0293277
  90.8828353  98.2827324  33.8584423  96.2015834  98.4046169  35.4792308
  95.5795844  97.7416874  35.1794535  96.8720701  98.4307301  34.7965955
  89.4342906  96.9706028  34.3683568  88.5974815  96.5428202  34.1867569
  89.4066552  97.1638471  35.3054359  96.2740362  86.8827957  45.0724814
  96.3228517  87.7590080  44.6902583  96.8162876  86.3405350  44.4996457
 106.7595208  97.4269081  44.3525951 105.9690751  97.4093219  43.8130450
 106.5228562  97.9657374  45.1074987 106.8793083  94.2761547  41.6658679
 106.9291087  94.1111554  42.6074202 106.7707006  93.4088806  41.2756560
  95.7629341  96.9550093  28.9550768  95.9117462  97.6385557  28.3017441
  96.5695785  96.9355183  29.4700224 104.1696845  90.2592475  42.9817986
 105.0706708  90.1198940  42.6901984 104.2444819  90.4246930  43.9216163
  98.5039650  87.6359330  41.8271172  97.6342960  87.9292896  41.5553761
  98.7399131  88.2199775  42.5478436 108.3811279  96.6958489  41.9100701
 108.0896088  97.0588469  42.7464162 107.7683411  95.9825497  41.7314033
 109.5806962  94.2611368  34.4303271 110.4153853  94.7001172  34.5940831
 109.7166090  93.7850022  33.6111517 106.6298468  91.8191103  40.3780759
 107.1052589  92.0118749  39.5699610 105.7064033  91.8750289  40.1324142
  93.5181974  92.9815270  29.9611837  93.2728016  92.0777600  30.1592047
  93.6877889  92.9832421  29.0191315 101.2078684  83.8538947  39.3436593
 101.7260628  84.5899974  39.0183081 100.8533817  84.1602940  40.1783352
  92.7877622  88.7143628  27.4597998  92.0946867  88.7887983  26.8038034
  92.5429374  87.9503972  27.9819515 101.4591278  80.2739229  34.8637489
 101.7393032  79.6062418  35.4897916 102.2441885  80.4668325  34.3512153
  99.2624747  99.4498223  26.4262516  98.6898714 100.0688410  25.9732987
  99.8357540  99.9997585  26.9602437 105.3300137  88.6956863  38.6109064
 106.2817560  88.7954961  38.6321288 105.1603587  87.9035132  39.1207149
 103.3514516  85.7812446  38.7968465 102.7564448  86.0617459  38.1014954
 103.0664213  86.2706347  39.5685206 102.4822007  99.7335373  27.5571098
 103.4152680  99.6680935  27.7603973 102.3945219 100.5691640  27.0985630
 107.8088214  91.9162983  37.7251364 107.7764535  90.9778984  37.9111048
 108.4188838  91.9947020  36.9917189  99.6471545  90.7859036  23.7678568
 100.5930650  90.6565244  23.8366986  99.2685790  90.0473698  24.2447996
 107.9582703  88.7074026  37.7709647 107.4421752  87.9232483  37.5839576
 108.8422651  88.3792743  37.9356167 105.6193430  82.4515042  33.7305460
 105.4218251  82.1430130  34.6148792 106.2293135  83.1776681  33.8603390
 113.6264764  92.9778990  36.8657401 114.3568153  92.7164278  37.4265104
 113.0171710  92.2407712  36.9059469 111.7080061  91.1186852  37.4631852
 110.9813225  90.9842817  36.8548344 111.2927348  91.4263681  38.2688570
  99.5310238  94.8376782  45.2279225 100.4513247  95.0155381  45.4219272
  99.4959821  93.8932827  45.0758924  97.8314462  88.7109012  23.7033453
  96.9245918  88.4142125  23.7796167  98.1090443  88.4138830  22.8367739
  88.7492403  90.0315376  34.1532500  88.4295187  89.1780684  33.8606874
  88.2025831  90.2463954  34.9090467  92.5272310  92.7477817  37.8702006
  92.7458320  93.6794925  37.8890040  92.9398084  92.3885791  38.6556810
  99.4476528  83.2545902  29.8577695  98.6377256  82.9092987  30.2332941
 100.1360945  82.9453446  30.4465306 101.3767076  82.3323949  31.4801991
 101.9298115  82.7519402  32.1392014 101.6137163  81.4059697  31.5224947
  97.4000176  88.3211022  47.2604755  97.2996903  89.2705379  47.1916846
  97.1821718  87.9929261  46.3880825  96.6013247  85.5695948  23.8445432
  97.4632411  85.8950846  24.1041250  96.7863591  84.7827443  23.3318498
  88.6180663  93.6518287  36.1225621  87.9244134  93.2372240  35.6095576
  89.3653654  93.6938824  35.5259040 104.7545884  84.4424474  30.9880655
 104.1744553  85.1009278  30.6058708 104.4881816  83.6201819  30.5768073
 103.2049450  83.8429532  33.1901976 103.7049228  83.9546066  32.3816295
 103.8485058  83.5390585  33.8302784  97.2631446  91.7508161  46.0769817
  96.7798527  92.5508521  46.2833706  97.3492385  91.7616106  45.1237261
  90.5317405  93.5836541  33.9991636  90.5088093  93.6824228  33.0473519
  90.8418042  94.4301692  34.3208802  93.1904783  95.6412696  38.1138251
  94.1448037  95.6096638  38.0468182  92.9917307  95.1803320  38.9288476
  93.7804165  94.2113812  40.6809048  94.5997054  94.7057891  40.7043885
  94.0540973  93.2945780  40.6526616 103.5370762  86.6024564  30.0437004
 102.6496617  86.8874215  29.8257198 103.9524751  86.4418328  29.1964281
 106.8885298  86.6271085  33.7591343 107.6645688  87.1167538  34.0315960
 106.1633432  87.0529140  34.2163212 109.3257856  87.3398705  34.8165284
 109.9202347  87.0994441  34.1058592 109.3984440  86.6205835  35.4438820
  91.5455012 101.1832315  35.1308448  91.4109480 100.4232716  34.5646446
  91.1287074 101.9073215  34.6637237 102.6813975  96.3669239  24.1385024
 103.3849825  96.5719242  24.7542679 101.9576624  96.9346001  24.4034107
 103.5111785  92.1179100  30.2587294 103.4546987  92.5747652  29.4194926
 104.0640128  91.3569785  30.0810137 107.3216591  87.9068832  31.0837413
 107.0653525  87.5065468  31.9145621 106.6969459  88.6212626  30.9587553
 111.6328929  90.6464905  33.5908705 111.0728487  90.7158095  34.3640267
 111.0272432  90.4705890  32.8708201  94.7024138 102.0801633  35.3426891
  94.5856522 103.0247065  35.2405581  93.8816584 101.7775194  35.7312690
 104.5900672  96.8051768  26.1883484 105.4246276  96.3732967  26.0060959
 104.4285015  96.6333782  27.1160378 104.2446565  93.3083882  27.5539823
 104.1895368  93.1428153  26.6128267 103.6192620  94.0159914  27.7102013
  89.0339080  88.5451946  41.3801245  89.6797943  88.0350900  41.8688470
  88.8256231  89.2820628  41.9544670 101.5592472  95.6132793  46.8793386
 102.4283631  95.7873446  46.5180021 101.0799223  96.4327210  46.7569115
  97.5542690  82.8091991  27.1325141  97.5421360  83.7533830  27.2893412
  98.4466112  82.6262136  26.8384603  95.7278652 102.7329894  38.5582819
  96.6305899 102.7653505  38.8749314  95.5016022 101.8030345  38.5729155
  97.4832254 101.4860881  35.2192898  96.5327885 101.4862743  35.1057270
  97.7864740 100.7393616  34.7028933 101.3694810  79.4034767  31.3871078
 100.6027205  78.8493254  31.5327761 101.7805514  79.4756636  32.2485230
  93.3736571  85.6919563  45.4776259  94.2368032  85.3356368  45.6879584
  92.8001981  85.3533458  46.1651664 113.2184947 107.3221419  36.2838660
 113.8563357 107.2028167  35.5802001 113.1005790 108.2702263  36.3426613
 110.0274654 107.2748847  36.2200185 109.6893165 107.1589912  35.3320720
 110.8964422 106.8740013  36.2001191 110.5094437 108.4283699  42.1786391
 110.4983078 108.0336497  41.3066894 110.6715076 107.6949772  42.7720162
 103.4325901 110.6235515  35.0481297 104.2247193 110.2826340  34.6327596
 103.6722552 110.7330491  35.9683450 107.2301698 111.2120811  41.1265575
 106.9391564 112.1166442  41.0112241 107.8658682 111.2537339  41.8409644
 108.1557905 108.5897659  37.7166934 108.7521477 108.3653682  37.0023897
 108.2132876 107.8482405  38.3192382 112.7726216 105.0472873  33.3591869
 113.5589305 104.6292296  33.0082286 113.0364920 105.9518965  33.5273517
 115.6960063  98.6969680  38.7219456 115.3643388  99.5665091  38.4980671
 115.1005677  98.3805964  39.4013486 112.1891583 110.8982226  38.1215368
 111.8892306 111.8007265  38.0131176 111.8442643 110.6314410  38.9736521
 105.6404064 107.3496023  34.1552073 104.7154561 107.2172237  34.3629765
 105.8888478 108.1290243  34.6522015 115.5888727 103.4164767  35.8012806
 114.6805604 103.3480175  35.5071567 115.5376323 103.8936712  36.6294631
 103.0012876 106.9929297  34.9895862 103.1305257 107.2463776  35.9035274
 102.3210327 107.5857005  34.6700517 109.6629593 104.8354412  43.7447703
 108.8862927 105.3948332  43.7350568 110.3020156 105.3211195  44.2662573
 117.4550373 101.6181205  37.5790680 116.8124753 101.9113738  36.9330474
 116.9505302 101.5034125  38.3843876 107.9175965 107.6439866  43.3065670
 108.6590649 108.1824910  43.0300494 107.2112950 108.2706154  43.4637222
 113.3931305 109.7869006  41.9037831 113.8014661 109.3451417  41.1592464
 112.6708566 109.2121634  42.1572024 109.7462375 104.7241613  39.2771388
 110.5923570 105.1481026  39.4206037 109.6861012 104.0675237  39.9709952
 112.8961820 102.3845981  40.9352562 112.6522752 103.1388042  40.3986838
 113.1721750 102.7631329  41.7699809 114.8500283 108.9284594  39.6129828
 115.0617178 109.5716353  38.9364209 114.8030031 108.0946910  39.1451758
 112.4526512 101.5402414  36.5166400 111.5910991 101.8383668  36.8083137
 112.4788946 101.7572813  35.5847432 106.1612162 109.6316086  35.8619969
 106.7313519 110.0603355  35.2237453 106.7520274 109.3498671  36.5604154
 106.6537329 104.7979514  44.1080980 106.0235989 105.4795795  44.3416377
 106.5473417 104.6862595  43.1634118 101.9482301 104.4651310  35.0346904
 101.1581355 104.7208838  34.5587015 102.4393548 105.2799648  35.1398945
 103.8997046 104.8295889  31.9930381 103.1028210 104.9414583  32.5113877
 103.6722639 105.1682541  31.1271271 109.7302714 111.3540592  39.9412895
 109.7947147 111.8161000  40.7771067 109.0213638 110.7237957  40.0695205
 100.2320004 104.7181800  37.4661895 100.4828042 105.6028810  37.7319471
 100.7679552 104.5386402  36.6936987 105.9318071  99.1000280  46.4706231
 105.5385017  98.5466478  47.1453875 106.7484212  99.4110858  46.8612749
 108.8486032 100.5158159  44.0626488 109.5895746 101.1165312  43.9830950
 109.0803955  99.7735797  43.5044530 103.9927370 105.7014526  42.3404717
 103.8780885 104.7999783  42.6411816 103.1371888 105.9478223  41.9889534
 105.8306329 115.1728068  38.4652896 106.3813754 115.0445131  37.6929890
 104.9917805 115.4722957  38.1147789 109.6273500 111.4379196  42.8097128
 110.1601837 110.6767484  42.5796435 109.0987581 111.1452848  43.5521282
 112.7943195  96.5439262  38.3390769 112.4507465  97.4340903  38.2629880
 113.1622158  96.3540919  37.4760354 100.8629046 108.8672792  31.1579371
 101.7004268 109.2769800  30.9413079 101.0407314 107.9272234  31.1279565
 110.3440589 101.3797574  31.9048443 109.4882185 100.9904424  31.7254081
 110.7567541 101.4589534  31.0448228 111.8739736  98.9143917  36.3040002
 111.3704531  98.8774052  35.4907808 112.1670343  99.8236660  36.3636659
 108.1182622  98.9982647  35.3106184 108.9835618  98.8025455  34.9512074
 108.1860130  98.7692998  36.2375541 105.7244941 101.2284854  32.6822551
 106.2988693 101.0060036  31.9495744 106.3115923 101.2973549  33.4351152
 108.0267608  98.1026103  31.4097620 107.3732021  97.7875121  30.7854235
 107.9848082  97.4801844  32.1357443 111.2605349 104.5908037  35.7345268
 110.3427910 104.8122984  35.5766956 111.6765492 104.6654347  34.8756975
 114.5930861  95.8032821  33.4408507 114.8989738  94.9430184  33.1534422
 115.3183466  96.3950441  33.2407501 100.8855217 106.2063507  31.8290105
 100.6879617 105.6132868  31.1041171 100.3301881 105.9015718  32.5466044
 108.8651941 106.0986614  33.9484698 108.9200550 105.1460450  33.8727175
 108.0543143 106.2546053  34.4325996 106.8044301 104.7163674  31.7075077
 105.9912166 105.0157844  32.1140269 107.3003295 104.3219362  32.4249559
 112.4018512 105.1805498  40.5389971 112.7567900 105.4076971  41.3984437
 113.0490644 105.5123875  39.9167226 106.2958375 102.2882029  37.3236312
 106.9357755 102.1470788  36.6259275 105.4635906 102.0016543  36.9474914
 103.2986992 102.2582354  32.1009299 103.5593809 103.1727687  31.9918459
 104.1204164 101.7906797  32.2505911 104.7711917 103.6720111  39.2708123
 105.4434971 103.4637473  38.6220772 103.9441704 103.4742197  38.8313355
 110.6737489 100.2982052  41.2873784 110.0265404 100.9972002  41.1938260
 111.4438505 100.7318196  41.6550032 110.8501623 108.1362817  39.3470604
 111.7793683 108.2873977  39.1739571 110.4292653 108.2246838  38.4919250
 109.6489955 112.1613482  37.1169141 109.5101041 111.7932266  37.9895079
 108.8604551 112.6761121  36.9453099 105.1739414 106.9462714  40.0310560
 105.0359212 106.2142953  40.6322099 106.0844338 106.8571614  39.7494748
 107.8021715 106.6582674  39.5194240 108.5121334 106.0175866  39.4780858
 107.7591023 106.9095568  40.4420421 106.5150649 103.6447892  41.3389879
 105.9788006 103.1938630  41.9911476 105.9267357 103.7793800  40.5960344
  97.4455048 107.8913703  33.9957850  98.1326088 107.5775433  33.4078866
  97.2903177 108.7955067  33.7225102 102.2489770 102.7803899  38.4242874
 102.1647959 102.1729569  37.6893284 101.4272477 103.2712918  38.4252370
 112.4213484 101.2657463  33.7913069 112.9182184 100.5127425  33.4714139
 111.6500466 101.3021779  33.2256278 109.0048453 103.4074846  33.5184754
 108.6346240 102.8545886  34.2065659 109.5007545 102.8032979  32.9659754
 106.8337651 113.8672341  40.6139772 107.5347111 114.5008824  40.7669166
 106.3632766 114.2087072  39.8535411 114.8632479  98.2327056  35.9392428
 113.9495559  98.4631283  36.1074635 115.2925580  98.3165500  36.7906460
 114.6338937 106.4216948  38.4392322 113.9810388 106.6692856  37.7844775
 115.0119317 105.6081086  38.1054799 110.6826510 107.1636759  44.9258359
 110.0067147 107.0630889  45.5960734 111.5054144 107.0075973  45.3894356
 102.4305369 113.4008696  37.5470874 103.0158806 112.6552384  37.6798778
 102.2330208 113.7112653  38.4307538  97.0223024 105.9714296  36.2675317
  97.0607124 105.4377887  37.0612435  96.5163317 105.4449502  35.6486295
 104.4013787 100.8178837  39.7637860 104.4655113 101.6793667  39.3515257
 104.3380907 100.2052838  39.0310218 103.8766059 102.8901969  43.4110894
 104.5038098 102.5079046  44.0248418 103.0193978 102.6716171  43.7766586
 100.6531602 104.6978398  29.3429249 100.9485043 103.7889077  29.2896302
  99.7519638 104.6766138  29.0210251 104.1825849 102.7734395  35.3256797
 103.4612435 103.3870362  35.1864271 104.9719105 103.3092160  35.2473443
 106.9852162 100.1088821  41.5997449 107.5086564 100.3551118  42.3623758
 106.7664496 100.9408856  41.1800586 102.3819443 102.3792496  29.4668574
 102.0532150 101.4989875  29.2843680 102.7358814 102.3240165  30.3544963
 105.4961267 102.6665466  29.8344052 105.8357339 103.1951387  29.1122660
 105.9433387 103.0045872  30.6102618 108.1904707 101.0502516  39.2847120
 107.8501528 100.2510329  39.6867800 107.4843714 101.3504227  38.7123953
 108.8421179  98.1351829  37.7374443 109.6647249  97.6612307  37.6153333
 109.0859243  98.9142313  38.2373129 106.3659758 104.8270949  35.5466421
 106.2204339 105.1411252  36.4390703 105.8884962 105.4455850  34.9937320
 108.2256141 101.8173497  35.5947311 108.2117710 100.9214591  35.2579609
 108.9428569 101.8244161  36.2285597 110.0782272 102.2510838  37.6400438
 109.8200049 103.1727908  37.6384769 109.5467312 101.8541272  38.3300902
 100.8405420 107.3676294  38.4854082 100.2958888 108.1436102  38.6174357
 101.7184770 107.7147098  38.3273204 107.6293037 100.6987878  30.8634881
 107.7508948  99.7704524  31.0625768 107.3395079 100.7126564  29.9513196
 110.4984227  98.3842788  34.0001601 110.5205924  98.4482121  33.0453580
 110.9152286  97.5447297  34.1942107 101.6271442 106.4946190  41.3784239
 100.8853178 106.6428825  41.9648870 101.3064186 106.7554456  40.5150989
 100.2736661 112.2997945  34.3683568  99.4368569 111.8720120  34.1867569
 100.2460306 112.4930389  35.3054359 107.1134116 102.2119875  45.0724814
 107.1622272 103.0881998  44.6902583 107.6556631 101.6697268  44.4996457
 115.0090599 105.5884393  42.9817986 115.9100462 105.4490858  42.6901984
 115.0838574 105.7538848  43.9216163 109.3433405 102.9651247  41.8271172
 108.4736714 103.2584814  41.5553761 109.5792885 103.5491692  42.5478436
 117.4692222 107.1483021  40.3780759 117.9446344 107.3410667  39.5699610
 116.5457787 107.2042207  40.1324142 112.0472439  99.1830864  39.3436593
 112.5654382  99.9191891  39.0183081 111.6927571  99.4894858  40.1783352
 112.2985033  95.6031147  34.8637489 112.5786787  94.9354336  35.4897916
 113.0835640  95.7960243  34.3512153 116.1693891 104.0248781  38.6109064
 117.1211314 104.1246879  38.6321288 115.9997342 103.2327049  39.1207149
 114.1908271 101.1104364  38.7968465 113.5958203 101.3909377  38.1014954
 113.9057967 101.5998265  39.5685206 118.7976457 104.0365944  37.7709647
 118.2815506 103.2524401  37.5839576 119.6816406 103.7084661  37.9356167
 116.4587184  97.7806960  33.7305460 116.2612005  97.4722048  34.6148792
 117.0686890  98.5068599  33.8603390 110.3703992 110.1668700  45.2279225
 111.2907002 110.3447299  45.4219272 110.3353575 109.2224745  45.0758924
  99.5886157 105.3607293  34.1532500  99.2688942 104.5072602  33.8606874
  99.0419585 105.5755872  34.9090467 103.3666065 108.0769734  37.8702006
 103.5852075 109.0086842  37.8890040 103.7791839 107.7177709  38.6556810
 110.2870283  98.5837820  29.8577695 109.4771011  98.2384905  30.2332941
 110.9754700  98.2745363  30.4465306 112.2160831  97.6615866  31.4801991
 112.7691870  98.0811320  32.1392014 112.4530917  96.7351615  31.5224947
 108.2393930 103.6502940  47.2604755 108.1390657 104.5997297  47.1916846
 108.0215472 103.3221179  46.3880825  99.4574417 108.9810205  36.1225621
  98.7637889 108.5664158  35.6095576 100.2047408 109.0230741  35.5259040
 114.0443204  99.1721449  33.1901976 114.5442983  99.2837984  32.3816295
 114.6878812  98.8682502  33.8302784 108.1025200 107.0800079  46.0769817
 107.6192282 107.8800439  46.2833706 108.1886139 107.0908024  45.1237261
 101.3711160 108.9128459  33.9991636 101.3481848 109.0116146  33.0473519
 101.6811796 109.7593609  34.3208802 104.0298538 110.9704614  38.1138251
 104.9841791 110.9388556  38.0468182 103.8311061 110.5095237  38.9288476
 104.6197920 109.5405730  40.6809048 105.4390809 110.0349808  40.7043885
 104.8934728 108.6237698  40.6526616 117.7279052 101.9563003  33.7591343
 118.5039442 102.4459455  34.0315960 117.0027186 102.3821057  34.2163212
  99.8732834 103.8743864  41.3801245 100.5191698 103.3642818  41.8688470
  99.6649985 104.6112545  41.9544670 112.2088564  94.7326685  31.3871078
 111.4420960  94.1785172  31.5327761 112.6199269  94.8048554  32.2485230
 104.2130325 101.0211481  45.4776259 105.0761787 100.6648286  45.6879584
 103.6395736 100.6825375  46.1651664  46.0356682  -1.3257117  30.6637525
  45.5920537  -2.1120739  30.3458429  46.6973896  -1.1377967  29.9981415
  48.1337920  -1.0454317  28.6918926  48.1156396  -0.2245436  28.1999195
  49.0557841  -1.1700242  28.9169067  49.0453761  -4.4058479  31.0869644
  48.8939268  -4.6347927  30.1699728  49.0358441  -3.4487878  31.1000989
  50.7545968  -1.3739356  29.1646126  50.6958514  -2.0580136  28.4976709
  51.1565486  -0.6320366  28.7126752  49.2397642  -1.6724439  31.7409936
  49.7837546  -1.0594481  31.2464891  48.6584487  -1.1144861  32.2576949
  52.5626436  -2.2128385  31.0771257  51.7721980  -2.2304246  30.5375757
  52.3259791  -1.6740091  31.8320294  54.1842508  -2.9438977  28.6346007
  53.8927316  -2.5808997  29.4709468  53.5714639  -3.6571969  28.4559339
  47.3623701  -4.0264672  33.6038692  48.2314860  -3.8524020  33.2425327
  46.8830452  -3.2070256  33.4814422  59.0216176   7.6823954  23.0083967
  59.6594586   7.5630701  22.3047307  58.9037019   8.6304798  23.0671919
  55.8305883   7.6351382  22.9445492  55.4924394   7.5192446  22.0566027
  56.6995651   7.2342547  22.9246498  56.3125666   8.7886233  28.9031697
  56.3014306   8.3939032  28.0312201  56.4746305   8.0552306  29.4965469
  49.2357130  10.9838050  21.7726603  50.0278422  10.6428874  21.3572903
  49.4753780  11.0933025  22.6928757  53.0332927  11.5723345  27.8510881
  52.7422793  12.4768976  27.7357548  53.6689911  11.6139873  28.5654951
  53.9589134   8.9500194  24.4412241  54.5552706   8.7256216  23.7269204
  54.0164105   8.2084939  25.0437689  63.9765872   5.3450641  20.9870154
  64.7091044   4.7749857  21.2207983  63.2205228   4.9572241  21.4276659
  61.4991292  -0.9427785  25.4464762  61.1674617  -0.0732374  25.2225977
  60.9036906  -1.2591501  26.1258793  57.9922812  11.2584761  24.8460675
  57.6923535  12.1609800  24.7376482  57.6473871  10.9916944  25.6981828
  61.3919956   3.7767301  22.5258112  60.4836833   3.7082709  22.2316873
  61.3407551   4.2539246  23.3539938  52.9743592  18.0229081  17.8131643
  52.8967621  18.9736906  17.8920123  52.3705235  17.6774954  18.4706569
  55.4660821   5.1956946  30.4693010  54.6894155   5.7550867  30.4595874
  56.1051384   5.6813729  30.9907880  63.2581602   1.9783739  24.3035986
  62.6155982   2.2716272  23.6575781  62.7536531   1.8636660  25.1089183
  53.7207194   8.0042400  30.0310977  54.4621878   8.5427444  29.7545800
  53.0144179   8.6308689  30.1882528  59.1962533  10.1471540  28.6283138
  59.6045889   9.7053951  27.8837770  58.4739795   9.5724168  28.8817331
  55.5493603   5.0844147  26.0016695  56.3954799   5.5083561  26.1451344
  55.4892241   4.4277771  26.6955258  59.5191348  10.7072731  22.3835427
  58.8900210  10.8718445  21.6811495  59.1317010  11.1214340  23.1546391
  63.3980580  11.6427169  19.7379791  62.7131618  12.0226070  19.1876824
  63.4824429  12.2522495  20.4711738  58.6993049   2.7448515  27.6597869
  58.4553981   3.4990576  27.1232144  58.9752979   3.1233863  28.4945116
  60.6531511   9.2887128  26.3375134  60.8648407   9.9318888  25.6609515
  60.6061260   8.4549444  25.8697064  55.0719310  10.4447139  19.6485512
  55.5357655  10.7234842  18.8590135  54.8076108   9.5430584  19.4658603
  51.9643391   9.9918621  22.5865275  52.5344748  10.4205889  21.9482760
  52.5551503   9.7101205  23.2849461  52.4568557   5.1582048  30.8326287
  51.8267218   5.8398329  31.0661683  52.3504645   5.0465130  29.8879425
  61.7677339  12.1659083  24.5097492  62.5894783  11.7639270  24.2280173
  61.7639742  12.0627317  25.4613607  55.5333943  11.7143127  26.6658202
  55.5978375  12.1763534  27.5016374  54.8244867  11.0840491  26.7940512
  69.8583332   8.5097832  20.8582463  69.1047041   7.9405230  20.7026467
  69.9930874   8.4760496  21.8053098  51.7349300  -0.5397186  33.1951538
  51.3416246  -1.0930988  33.8699182  52.5515440  -0.2286608  33.5858055
  50.5106243  14.0152428  19.1887861  50.6872871  14.9370393  19.0008845
  51.3063076  13.7010848  19.6182240  54.6517261   0.8760693  30.7871794
  55.3926975   1.4767846  30.7076257  54.8835184   0.1338331  30.2289837
  49.7958599   6.0617060  29.0650024  49.6812114   5.1602317  29.3657123
  48.9403117   6.3080757  28.7134840  56.8750437  14.0034801  30.6637525
  56.4314291  13.2171179  30.3458429  57.5367650  14.1913951  29.9981415
  51.6337558  15.5330602  25.1898203  52.1844983  15.4047665  24.4175197
  50.7949034  15.8325491  24.8393096  58.9731675  14.2837600  28.6918926
  58.9550150  15.1046481  28.1999195  59.8951595  14.1591676  28.9169067
  55.4304729  11.7981730  29.5342434  55.9633066  11.0370018  29.3041742
  54.9018810  11.5055382  30.2766589  61.7750288   9.1216743  22.1628292
  61.1173962   9.8116004  22.2508421  62.5790687   9.5113175  22.5062279
  60.5855747   7.4761116  20.2132234  61.0987628   8.1091107  20.7153944
  61.2356971   6.8762311  19.8475594  57.0636578   4.9510571  22.4590575
  56.1459139   5.1725518  22.3012263  57.4796721   5.0256882  21.6002282
  61.3517543  12.4567117  18.3411377  60.8979870  11.6158027  18.3976567
  60.7211510  13.0928515  18.6786157  59.7950482  14.2943614  19.2761195
  60.0873456  14.8548671  18.5573561  60.3049103  14.5872175  20.0314354
  54.7584107  15.0723965  20.3654648  54.7160286  15.2984811  19.4363180
  55.6746806  14.8387339  20.5140449  58.2049741   5.5408032  27.2635277
  58.5599129   5.7679505  28.1229743  58.8521872   5.8726409  26.6412533
  63.9347478   8.6626468  17.9684606  63.7965377   8.8528064  17.0405796
  63.5783697   9.4245851  18.4252658  63.9616858  10.7302995  22.9795878
  64.3953364  10.6378284  23.8278932  64.6748438  10.7060496  22.3415894
  52.8749908  11.9486994  20.1616611  53.6690507  11.4537314  19.9599186
  52.1641600  11.4204857  19.7984316  57.6944753  14.3305089  24.5128979
  57.7481775  14.8996026  25.2806694  56.8259534  14.5006974  24.1483016
  50.5743146   4.0322646  25.9953430  51.2466199   3.8240008  25.3466079
  49.7472932   3.8344732  25.5558662  64.8232407  10.7726696  25.5128763
  65.0168297  11.6772506  25.7588038  64.7233025  10.3134115  26.3467348
  56.4768718   0.6584586  28.0119091  55.8296633   1.3574536  27.9183567
  57.2469733   1.0920730  28.3795339  59.8847516  10.9233439  31.0869644
  59.7333022  10.6943990  30.1699728  59.8752195  11.8804040  31.1000989
  56.6532852   8.4965351  26.0715910  57.5824912   8.6476511  25.8984878
  56.2323882   8.5849372  25.2164557  55.4521184  12.5216016  23.8414448
  55.3132270  12.1534800  24.7140386  54.6635780  13.0363655  23.6698406
  56.0469336  17.6225112  15.1839985  56.2221092  17.1513155  15.9985607
  55.3602124  18.2490878  15.4121245  57.0026399  11.8997619  21.2303286
  56.6676232  11.8598388  22.1260936  56.5030345  11.2342334  20.7573696
  50.9770643   7.3065249  26.7555867  50.8390441   6.5745487  27.3567406
  51.8875567   7.2174149  26.4740055  53.6052944   7.0185208  26.2439547
  54.3152562   6.3778400  26.2026165  53.5622252   7.2698103  27.1665727
  61.5939723  13.9552561  29.1646126  61.5352269  13.2711781  28.4976709
  61.9959241  14.6971551  28.7126752  52.3181878   4.0050426  28.0635186
  51.7819235   3.5541164  28.7156782  51.7298586   4.1396335  27.3205650
  50.6130421  20.7714475  21.9579845  50.8527020  21.4032999  22.6358863
  49.7699618  20.4202515  22.2445204  61.5957130  11.9192145  27.3960105
  60.7083909  11.5818067  27.5186504  62.1655681  11.1875176  27.6328871
  55.1258283  16.5793597  24.3621349  55.0528455  17.3848569  24.8740653
  54.6835676  16.7785563  23.5369370  54.9148063  15.8165368  17.8724170
  54.1315585  16.3587048  17.9662395  55.6140808  16.3339347  18.2718411
  66.0774470   7.3300363  22.1576667  66.0664347   8.2125078  21.7870600
  65.2091850   6.9771913  21.9631204  57.5856967  16.4780432  26.5179507
  58.2984939  17.1127896  26.4455409  57.0946995  16.5744298  25.7019509
  59.3074494  10.3831684  18.0896799  58.3730772  10.5033147  17.9201503
  59.4851162   9.4804151  17.8256809  62.6947045   6.2249003  18.6246833
  63.1607497   7.0576995  18.5507136  63.1454545   5.7593985  19.3292092
  52.6368880  14.2274875  27.3385078  53.3378340  14.8611358  27.4914472
  52.1663995  14.5689607  26.5780717  60.4370166   6.7819482  25.1637629
  59.7841616   7.0295390  24.5090081  60.8150546   5.9683621  24.8300106
  57.3977340  16.8179176  19.2665799  57.5799735  16.0000832  19.7293551
  58.2210326  17.0346868  18.8290689  57.7319506  15.7447361  16.5280847
  58.2607272  15.2339815  15.9151009  57.9947725  15.4289891  17.3926380
  56.4857739   7.5239293  31.6503666  55.8098376   7.4233423  32.3206041
  57.3085373   7.3678507  32.1139663  48.2336598  13.7611230  24.2716181
  48.8190035  13.0154918  24.4044085  48.0361437  14.0715187  25.1552845
  51.0875254  16.7962477  19.2878623  50.4185629  17.2808605  18.8042663
  50.9488123  17.0431698  20.2022002  55.2280522  18.8306221  25.8861282
  55.7798830  18.9937842  26.6510367  55.5686716  19.4210659  25.2141306
  49.6797288   3.2504503  30.1356201  50.3069327   2.8681581  30.7493725
  48.8225207   3.0318705  30.5011893  60.0791396  13.6567478  31.7409936
  60.6231300  14.2697437  31.2464891  59.4978241  14.2147057  32.2576949
  58.3648909  16.7788196  22.8724964  58.2400049  15.9777936  22.3635909
  59.0228000  17.2734390  22.3838934  60.4283818  14.5797217  24.5004514
  59.4814153  14.4602568  24.4282841  60.7766591  13.6919715  24.5830775
  52.7883391   0.4691355  28.3242756  53.3117793   0.7153652  29.0869065
  52.5695724   1.3011390  27.9045893  57.4330251  14.3749933  20.7008866
  57.2855213  13.4466640  20.8816436  58.2583745  14.3970023  20.2165941
  61.0364373  15.1978491  21.7873739  61.9610920  14.9921353  21.6498190
  60.8679676  14.9494893  22.6963080  53.9935936   1.4105051  26.0092426
  53.6532757   0.6112864  26.4113106  53.2874942   1.7106761  25.4369259
  55.8813500   2.6113372  24.3645745  55.6231278   3.5330442  24.3630075
  55.3498541   2.2143806  25.0546209  60.8259689  15.7164159  17.1435830
  60.9996567  15.1510581  16.3909683  61.3188580  16.5165054  16.9615320
  46.6436649   7.7278828  25.2099389  46.0990117   8.5038636  25.3419663
  47.5215999   8.0749633  25.0518511  66.6799080   8.4800582  18.7626130
  67.1230226   7.7307907  18.3645253  65.8025591   8.4710718  18.3799862
  61.8134862  15.0330923  14.2432729  62.5085766  15.6537616  14.4620043
  62.1558012  14.1826275  14.5185106  47.4302671   6.8548724  28.1029546
  46.6884407   7.0031360  28.6894176  47.1095415   7.1156990  27.2396295
  63.7126285  12.4830629  15.7720059  64.2377609  12.8217902  15.0469379
  63.6248637  11.5477644  15.5883194  55.3746333  16.3964703  27.9009936
  55.6833460  16.1513849  28.7732636  56.1721815  16.6011341  27.4128806
  55.3966945  18.5502612  20.1315313  54.9571936  18.0578991  20.8248169
  56.1475062  18.0075580  19.8907388  47.8759284  14.7414153  20.1339941
  48.7017304  14.4417925  19.7538584  47.5253336  13.9721775  20.5829729
  52.8440818  14.0940621  22.2037614  52.2220827  13.4311326  21.9039842
  53.5145685  14.1201753  21.5211262  52.9165345   2.5722409  31.7970120
  52.9653501   3.4484532  31.4147890  53.4587859   2.0299802  31.2241763
  63.4020191  13.1163533  31.0771257  62.6115735  13.0987671  30.5375757
  63.1653545  13.6551826  31.8320294  63.5218066   9.9655999  28.3903986
  63.5716071   9.8006006  29.3319509  63.4131989   9.0983258  28.0001867
  60.8121828   5.9486927  29.7063293  61.7131691   5.8093392  29.4147290
  60.8869803   6.1141382  30.6461470  55.1464634   3.3253782  28.5516479
  54.2767943   3.6187348  28.2799067  55.3824114   3.9094227  29.2723742
  65.0236263  12.3852940  28.6346007  64.7321071  12.7482921  29.4709468
  64.4108394  11.6719949  28.4559339  66.2231945   9.9505820  21.1548578
  67.0578836  10.3895624  21.3186138  66.3591074   9.4744473  20.3356823
  63.2723451   7.5085555  27.1026065  63.7477573   7.7013201  26.2944917
  62.3489016   7.5644741  26.8569449  57.8503667  -0.4566601  26.0681899
  58.3685611   0.2794426  25.7428388  57.4958800  -0.1502608  26.9028658
  61.9725120   4.3851315  25.3354371  62.9242543   4.4849413  25.3566595
  61.8028570   3.5929584  25.8452455  59.9939499   1.4706898  25.5213772
  59.3989431   1.7511911  24.8260260  59.7089196   1.9600799  26.2930513
  64.4513198   7.6057435  24.4496671  64.4189518   6.6673436  24.6356354
  65.0613821   7.6841472  23.7162495  64.6007686   4.3968478  24.4954954
  64.0846735   3.6126935  24.3084883  65.4847635   4.0687195  24.6601473
  70.2689748   8.6673442  23.5902707  70.9993136   8.4058730  24.1510411
  69.6596693   7.9302164  23.6304775  68.3505045   6.8081304  24.1877159
  67.6238208   6.6737269  23.5793650  67.9352332   7.1158133  24.9933877
  56.1735221  10.5271234  31.9524532  57.0938231  10.7049833  32.1464578
  56.1384804   9.5827279  31.8004231  49.1697294   8.4372269  24.5947313
  49.3883303   9.3689376  24.6135347  49.5823067   8.0780243  25.3802117
  54.0425159   4.0105474  33.9850062  53.9421886   4.9599831  33.9162153
  53.8246701   3.6823713  33.1126132  53.9056429   7.4402613  32.8015123
  53.4223511   8.2402973  33.0079012  53.9917368   7.4510558  31.8482567
  49.8329767  11.3307148  24.8383557  50.7873020  11.2991090  24.7713489
  49.6342290  10.8697772  25.6533783  50.4229149   9.9008264  27.4054355
  51.2422038  10.3952343  27.4289192  50.6965956   8.9840232  27.3771922
  63.5310281   2.3165537  20.4836650  64.3070671   2.8061990  20.7561266
  62.8058415   2.7423591  20.9408519  65.9682840   3.0293156  21.5410590
  66.5627330   2.7888892  20.8303898  66.0409423   2.3100287  22.1684126
  48.1879995  16.8726767  21.8553755  48.0534463  16.1127168  21.2891753
  47.7712058  17.5967667  21.3882544  68.2753912   6.3359357  20.3154011
  67.7153470   6.4052547  21.0885573  67.6697416   6.1600342  19.5953508
  51.3449121  17.7696084  22.0672198  51.2281505  18.7141517  21.9650888
  50.5241567  17.4669646  22.4557997  45.6764063   4.2346398  28.1046552
  46.3222926   3.7245352  28.5933777  45.4681214   4.9715079  28.6789977
  58.2017455  11.3027245  33.6038692  59.0708615  11.4767898  33.2425327
  57.7224207  12.1221662  33.4814422  52.3703635  18.4224346  25.2828126
  53.2730882  18.4547957  25.5994621  52.1441005  17.4924797  25.2974462
  54.1257237  17.1755333  21.9438205  53.1752868  17.1757194  21.8302577
  54.4289723  16.4288067  21.4274239  50.0161554   1.3814015  32.2021566
  50.8793015   1.0250820  32.4124891  49.4426965   1.0427910  32.8896970
  69.8609931  23.0115871  23.0083967  70.4988341  22.8922619  22.3047307
  69.7430774  23.9596715  23.0671919  66.6699637  22.9643299  22.9445492
  66.3318149  22.8484364  22.0566027  67.5389405  22.5634464  22.9246498
  62.5286453  24.8178776  18.9342383  61.9651318  24.7268713  18.1658671
  62.4138848  23.9978680  19.4144875  67.1519420  24.1178151  28.9031697
  67.1408061  23.7230949  28.0312201  67.3140060  23.3844224  29.4965469
  60.0750885  26.3129967  21.7726603  60.8672177  25.9720792  21.3572903
  60.3147535  26.4224942  22.6928757  68.1086012  28.4849743  14.2456848
  67.4573991  29.0703824  13.8590861  68.9030374  29.0155938  14.3051885
  62.0341639  25.5738881  14.6443982  62.8072515  25.0267868  14.5056858
  62.3867038  26.4383130  14.8558443  63.8726681  26.9015263  27.8510881
  63.5816547  27.8060894  27.7357548  64.5083666  26.9431790  28.5654951
  64.7982888  24.2792111  24.4412241  65.3946460  24.0548134  23.7269204
  64.8557860  23.5376857  25.0437689  64.3707916  21.7331547  12.2762432
  64.6233437  21.2113068  11.5145895  63.4332476  21.5697692  12.3789116
  69.4151199  20.7367325  20.0837175  70.2014289  20.3186748  19.7327592
  69.6789904  21.6413417  20.2518824  69.5861277  26.1740175  14.7825832
  68.9507110  26.2474802  15.4946737  69.2558683  26.7633774  14.1044911
  74.8159626  20.6742558  20.9870154  75.5484798  20.1041775  21.2207983
  74.0598982  20.2864159  21.4276659  64.0904205  23.6359653  14.4786807
  63.9740463  22.9604556  15.1467891  64.2006465  23.1492027  13.6618960
  66.4335746  23.0969800  18.1833496  66.0693953  22.5700421  18.8946418
  67.2902862  22.7068269  18.0099982  72.3385047  14.3864132  25.4464762
  72.0068372  15.2559543  25.2225977  71.7430660  14.0700416  26.1258793
  66.0741233  18.1259699  13.1794845  66.2415635  18.9939936  13.5465316
  65.8838402  18.2886981  12.2556134  68.8316566  26.5876678  24.8460675
  68.5317289  27.4901717  24.7376482  68.4867626  26.3208862  25.6981828
  62.2829048  23.0390475  20.8797379  61.3579544  22.9066689  21.0875071
  62.5313461  23.8184694  21.3767322  72.2313710  19.1059219  22.5258112
  71.3230587  19.0374627  22.2316873  72.1801306  19.5831163  23.3539938
  66.0530454  20.5817357  14.1641511  65.9330079  21.0274408  15.0026992
  65.3583042  20.9302675  13.6055050  59.6437859  22.6823749  21.7141168
  59.7730240  22.9358228  22.6280580  58.9635310  23.2751457  21.3945824
  63.8137346  33.3520999  17.8131643  63.7361376  34.3028824  17.8920123
  63.2098990  33.0066871  18.4706569  66.3054576  20.5248864  30.4693010
  65.5287910  21.0842784  30.4595874  66.9445139  21.0105647  30.9907880
  74.0975356  17.3075657  24.3035986  73.4549737  17.6008190  23.6575781
  73.5930285  17.1928577  25.1089183  71.7515520  21.0538830  14.9921846
  72.6633376  21.2866217  14.8169543  71.2425167  21.6375874  14.4296924
  64.5600948  23.3334318  30.0310977  65.3015633  23.8719361  29.7545800
  63.8537934  23.9600606  30.1882528  70.0356288  25.4763458  28.6283138
  70.4439644  25.0345868  27.8837770  69.3133549  24.9016085  28.8817331
  66.3887358  20.4136065  26.0016695  67.2348553  20.8375478  26.1451344
  66.3285996  19.7569689  26.6955258  70.3585102  26.0364649  22.3835427
  69.7293965  26.2010363  21.6811495  69.9710765  26.4506258  23.1546391
  74.2374334  26.9719086  19.7379791  73.5525373  27.3517988  19.1876824
  74.3218184  27.5814413  20.4711738  69.5386803  18.0740433  27.6597869
  69.2947735  18.8282494  27.1232144  69.8146734  18.4525781  28.4945116
  71.4925266  24.6179045  26.3375134  71.7042161  25.2610805  25.6609515
  71.4455014  23.7841362  25.8697064  69.0951495  17.2296866  23.2411706
  68.2335974  17.5278120  23.5328444  69.1213930  17.4467265  22.3092739
  65.9113064  25.7739057  19.6485512  66.3751410  26.0526760  18.8590135
  65.6469862  24.8722501  19.4658603  62.8037145  25.3210538  22.5865275
  63.3738502  25.7497807  21.9482760  63.3945257  25.0393123  23.2849461
  64.8481950  21.8962209  16.4575077  65.5505994  22.3483253  16.9249004
  64.5162579  21.2546028  17.0854970  63.2962312  20.4873966  30.8326287
  62.6660972  21.1690247  31.0661683  63.1898400  20.3757047  29.8879425
  58.5907284  20.1545762  21.7592211  57.8006338  20.4103290  21.2832321
  59.0818532  20.9694100  21.8644251  72.6071094  27.4951001  24.5097492
  73.4288538  27.0931188  24.2280173  72.6033497  27.3919235  25.4613607
  60.5422030  20.5190341  18.7175687  59.7453193  20.6309035  19.2359183
  60.3147622  20.8576993  17.8516578  66.3727697  27.0435044  26.6658202
  66.4372130  27.5055451  27.5016374  65.6638621  26.4132409  26.7940512
  56.8744987  20.4076252  24.1907202  57.1253026  21.2923262  24.4564778
  57.4104536  20.2280854  23.4182293  80.6977087  23.8389749  20.8582463
  79.9440795  23.2697147  20.7026467  80.8324628  23.8052414  21.8053098
  66.0875715  28.7103152  16.5337182  65.9521390  29.5554687  16.9622030
  66.6285528  28.9122429  15.7703116  62.5743055  14.7894732  33.1951538
  62.1810000  14.2360930  33.8699182  63.3909195  15.1005310  33.5858055
  59.5405112  26.2278590  17.1065108  60.0529633  27.0221840  17.2570672
  60.1927825  25.5304880  17.0398709  61.3499997  29.3444346  19.1887861
  61.5266625  30.2662311  19.0008845  62.1456831  29.0302765  19.6182240
  65.4911016  16.2052611  30.7871794  66.2320729  16.8059764  30.7076257
  65.7228938  15.4630248  30.2289837  60.6352354  21.3908978  29.0650024
  60.5205869  20.4894235  29.3657123  59.7796871  21.6372675  28.7134840
  62.4731313  30.8622520  25.1898203  63.0238738  30.7339583  24.4175197
  61.6342788  31.1617409  24.8393096  66.2698484  27.1273648  29.5342434
  66.8026820  26.3661936  29.3041742  65.7412565  26.8347299  30.2766589
  69.4368179  12.2333714  25.0636076  69.0932448  13.1235355  24.9875186
  69.8047141  12.0435371  24.2005661  57.5054029  24.5567244  17.8824678
  58.3429251  24.9664252  17.6658386  57.6832297  23.6166686  17.8524872
  69.4018461  22.2242325  13.5708511  68.8865085  22.9946929  13.8096898
  69.1295770  21.5507461  14.1941572  66.9865572  17.0692025  18.6293749
  66.1307169  16.6798876  18.4499388  67.3992524  17.1483986  17.7693535
  68.5164719  14.6038369  23.0285309  68.0129515  14.5668504  22.2153114
  68.8095326  15.5131111  23.0881966  64.7607605  14.6877098  22.0351491
  65.6260602  14.4919907  21.6757380  64.8285114  14.4587450  22.9620848
  74.3752735  24.9774679  15.5061684  73.5982178  24.6385839  15.0616847
  75.0544216  24.9827302  14.8316650  69.1904764  20.0969417  15.3968292
  68.8854900  20.4115566  16.2478435  70.1435207  20.1750837  15.4395625
  67.6351196  26.2559640  17.0461246  67.1072558  25.5212400  16.7334484
  67.1338699  27.0334316  16.8001214  72.6144042  24.4508661  22.1628292
  71.9567717  25.1407922  22.2508421  73.4184442  24.8405093  22.5062279
  62.3669924  16.9179306  19.4067858  62.9413676  16.6954488  18.6741051
  62.9540906  16.9868001  20.1596459  71.4249501  22.8053033  20.2132234
  71.9381383  23.4383025  20.7153944  72.0750725  22.2054229  19.8475594
  62.6939511  18.9483767  13.4263743  61.8576823  19.2858454  13.7473018
  62.5544281  18.8132747  12.4890880  64.6692592  13.7920555  18.1342927
  64.0157004  13.4769572  17.5099542  64.6273066  13.1696296  18.8602750
  65.7803796  24.0739850  10.0496219  64.8730858  23.8429104  10.2487368
  66.2774828  23.2777470  10.2370201  68.6871875  32.7837358  12.9692905
  68.0133574  33.0869054  13.5777863  69.0737697  33.5866438  12.6198362
  67.9030332  20.2802489  22.4590575  66.9852893  20.5017436  22.3012263
  68.3190476  20.3548799  21.6002282  68.6865380  21.6793904  17.5893255
  69.4337199  22.1915302  17.2800377  68.9556969  21.3577957  18.4497649
  66.9592030  24.1752445  14.5720209  66.0503249  23.8911478  14.6692679
  66.9887114  24.5951524  13.7123516  72.1911297  27.7859035  18.3411377
  71.7373624  26.9449945  18.3976567  71.5605264  28.4220433  18.6786157
  71.1344217  18.7151021  19.5712044  70.3966974  18.2028407  19.9022287
  71.3870990  18.2751402  18.7595321  70.6344237  29.6235531  19.2761195
  70.9267211  30.1840589  18.5573561  71.1442857  29.9164092  20.0314354
  71.2355844  11.4927273  20.1653814  71.5414721  10.6324636  19.8779729
  71.9608449  12.0844893  19.9652807  57.5280200  21.8957959  18.5535411
  57.3304600  21.3027320  17.8286478  56.9726864  21.5910170  19.2711350
  65.5076924  21.7881066  20.6730005  65.5625534  20.8354902  20.5972481
  64.6968126  21.9440505  21.1571303  66.6568118  25.7161189  11.9108288
  66.2187548  24.9997048  11.4513925  67.3978559  25.9437304  11.3493379
  63.4469284  20.4058126  18.4320383  62.6337149  20.7052296  18.8385576
  63.9428278  20.0113814  19.1494866  65.5977862  30.4015882  20.3654648
  65.5554041  30.6276729  19.4363180  66.5140561  30.1679257  20.5140449
  69.0443496  20.8699950  27.2635277  69.3992883  21.0971423  28.1229743
  69.6915627  21.2018327  26.6412533  74.7741233  23.9918386  17.9684606
  74.6359131  24.1819982  17.0405796  74.4177451  24.7537769  18.4252658
  62.9383359  17.9776481  24.0481618  63.5782738  17.8365240  23.3504582
  62.1060889  17.6910994  23.6720220  74.8010612  26.0594913  22.9795878
  75.2347119  25.9670202  23.8278932  75.5142193  26.0352413  22.3415894
  63.7143663  27.2778911  20.1616611  64.5084261  26.7829232  19.9599186
  63.0035355  26.7496775  19.7984316  68.5338507  29.6597007  24.5128979
  68.5875529  30.2287943  25.2806694  67.6653288  29.8298892  24.1483016
  60.0226426  21.4221993  16.2376364  59.0924014  21.3606449  16.4546326
  60.1183898  20.8997946  15.4413005  59.9411975  17.9476806  18.8254605
  60.2018792  18.8622139  18.7163766  60.7629147  17.4801249  18.9751218
  61.4136900  19.3614563  25.9953430  62.0859954  19.1531925  25.3466079
  60.5866687  19.1636649  25.5558662  75.6626162  26.1018614  25.5128763
  75.8562052  27.0064424  25.7588038  75.5626780  25.6426033  26.3467348
  67.3162472  15.9876504  28.0119091  66.6690387  16.6866454  27.9183567
  68.0863488  16.4212648  28.3795339  70.7241270  26.2525356  31.0869644
  70.5726777  26.0235908  30.1699728  70.7145950  27.2095958  31.1000989
  67.4926607  23.8257269  26.0715910  68.4218667  23.9768429  25.8984878
  67.0717637  23.9141290  25.2164557  66.2914939  27.8507933  23.8414448
  66.1526024  27.4826718  24.7140386  65.5029535  28.3655573  23.6698406
  66.8863091  32.9517030  15.1839985  67.0614846  32.4805073  15.9985607
  66.1995879  33.5782796  15.4121245  67.8420154  27.2289536  21.2303286
  67.5069986  27.1890306  22.1260936  67.3424099  26.5634252  20.7573696
  61.8164398  22.6357166  26.7555867  61.6784196  21.9037405  27.3567406
  62.7269321  22.5466066  26.4740055  70.7779345  24.5745571  11.5040345
  70.1608516  23.8492399  11.4073398  70.3095834  25.3354931  11.1607420
  64.4446698  22.3477126  26.2439547  65.1546317  21.7070318  26.2026165
  64.4016006  22.5990020  27.1665727  72.4333477  29.2844479  29.1646126
  72.3746023  28.6003699  28.4976709  72.8352995  30.0263469  28.7126752
  63.1575632  19.3342343  28.0635186  62.6212989  18.8833082  28.7156782
  62.5692341  19.4688252  27.3205650  61.4524176  36.1006393  21.9579845
  61.6920774  36.7324917  22.6358863  60.6093372  35.7494433  22.2445204
  72.4350884  27.2484063  27.3960105  71.5477663  26.9109985  27.5186504
  73.0049435  26.5167094  27.6328871  54.0880031  23.5808155  20.7203157
  54.7751071  23.2669885  20.1324172  53.9328160  24.4849519  20.4470408
  58.8914754  18.4698351  25.1488181  58.8072942  17.8624021  24.4138590
  58.0697460  18.9607369  25.1497677  65.9652038  31.9085515  24.3621349
  65.8922209  32.7140487  24.8740653  65.5229431  32.1077481  23.5369370
  65.7541817  31.1457285  17.8724170  64.9709339  31.6878965  17.9662395
  66.4534562  31.6631265  18.2718411  69.0638467  16.9551915  20.5158376
  69.5607167  16.2021877  20.1959446  68.2925449  16.9916231  19.9501585
  76.9168225  22.6592280  22.1576667  76.9058101  23.5416996  21.7870600
  76.0485604  22.3063831  21.9631204  68.4250721  31.8072349  26.5179507
  69.1378693  32.4419814  26.4455409  67.9340750  31.9036215  25.7019509
  70.1468248  25.7123602  18.0896799  69.2124527  25.8325064  17.9201503
  70.3244917  24.8096069  17.8256809  65.6473436  19.0969298  20.2430060
  65.2771224  18.5440338  20.9310966  66.1432529  18.4927431  19.6905060
  73.5340799  21.5540921  18.6246833  74.0001252  22.3868913  18.5507136
  73.9848300  21.0885903  19.3292092  63.4762635  29.5566793  27.3385078
  64.1772094  30.1903276  27.4914472  63.0057750  29.8981524  26.5780717
  71.6017031  27.8984742  15.6232985  71.8776874  27.7841337  16.5326859
  70.7321529  27.5002227  15.5845158  71.5057462  13.9221508  22.6637734
  70.5920542  14.1525735  22.8319941  71.9350564  14.0059952  23.5151767
  71.2763921  22.1111400  25.1637629  70.6235371  22.3587308  24.5090081
  71.6544301  21.2975538  24.8300106  68.2371095  32.1471093  19.2665799
  68.4193489  31.3292749  19.7293551  69.0604081  32.3638786  18.8290689
  68.5713260  31.0739278  16.5280847  69.1001026  30.5631733  15.9151009
  68.8341480  30.7581809  17.3926380  67.3251494  22.8531211  31.6503666
  66.6492131  22.7525340  32.3206041  68.1479128  22.6970425  32.1139663
  59.0730353  29.0903148  24.2716181  59.6583790  28.3446836  24.4044085
  58.8755191  29.4007104  25.1552845  61.9269008  32.1254395  19.2878623
  61.2579383  32.6100523  18.8042663  61.7881878  32.3723616  20.2022002
  53.6648008  21.6608748  22.9920624  53.7032107  21.1272339  23.7857742
  53.1588300  21.1343953  22.3731601  66.0674277  34.1598139  25.8861282
  66.6192585  34.3229760  26.6510367  66.4080470  34.7502576  25.2141306
  61.0438770  16.5073288  26.4883166  61.1080096  17.3688119  26.0760564
  60.9805890  15.8947290  25.7555525  60.5191042  18.5796421  30.1356201
  61.1463081  18.1973498  30.7493725  59.6618961  18.3610623  30.5011893
  57.2956585  20.3872850  16.0674555  57.5910026  19.4783528  16.0141609
  56.3944621  20.3660590  15.7455558  69.2042664  32.1080114  22.8724964
  69.0793803  31.3069854  22.3635909  69.8621755  32.6026308  22.3838934
  60.8250832  18.4628847  22.0502104  60.1037418  19.0764814  21.9109577
  61.6144088  18.9986611  21.9718750  71.2677572  29.9089134  24.5004514
  70.3207908  29.7894485  24.4282841  71.6160345  29.0211632  24.5830775
  63.6277146  15.7983273  28.3242756  64.1511547  16.0445570  29.0869065
  63.4089479  16.6303308  27.9045893  59.0244427  18.0686948  16.1913881
  58.6957133  17.1884327  16.0088986  59.3783797  18.0134616  17.0790270
  68.2724006  29.7041850  20.7008866  68.1248968  28.7758558  20.8816436
  69.0977499  29.7261941  20.2165941  62.1386250  18.3559918  16.5589358
  62.4782322  18.8845839  15.8367967  62.5858370  18.6940324  17.3347925
  71.8758127  30.5270409  21.7873739  72.8004675  30.3213271  21.6498190
  71.7073431  30.2786810  22.6963080  64.8329691  16.7396968  26.0092426
  64.4926511  15.9404781  26.4113106  64.1268697  17.0398679  25.4369259
  65.4846162  13.8246281  24.4619749  66.3072232  13.3506759  24.3398640
  65.7284226  14.6036764  24.9618436  64.1254397  16.8534539  14.7582651
  64.8462759  17.2315792  14.2546368  63.5019701  17.5723416  14.8617629
  68.2685520  17.5579688  15.6940983  68.4849134  18.4404326  15.3929811
  67.7879587  17.1665902  14.9646625  63.0084741  20.5165401  22.2711728
  62.8629322  20.8305704  23.1636009  62.5309945  21.1350302  21.7182627
  64.8681124  17.5067949  22.3192617  64.8542693  16.6109043  21.9824915
  65.5853552  17.5138613  22.9530904  66.7207255  17.9405290  24.3645745
  66.4625033  18.8622360  24.3630075  66.1892295  17.5435724  25.0546209
  71.6653444  31.0456077  17.1435830  71.8390321  30.4802499  16.3909683
  72.1582335  31.8456972  16.9615320  57.4830403  23.0570746  25.2099389
  56.9383871  23.8330554  25.3419663  58.3609753  23.4041550  25.0518511
  64.2718020  16.3882330  17.5880188  64.3933931  15.4598976  17.7871075
  63.9820062  16.4021016  16.6758503  67.1409210  14.0737240  20.7246907
  67.1630907  14.1376573  19.7698887  67.5577269  13.2341749  20.9187414
  77.5192835  23.8092500  18.7626130  77.9623981  23.0599825  18.3645253
  76.6419345  23.8002636  18.3799862  72.6528616  30.3622841  14.2432729
  73.3479521  30.9829534  14.4620043  72.9951766  29.5118192  14.5185106
  58.2696425  22.1840642  28.1029546  57.5278161  22.3323277  28.6894176
  57.9489170  22.4448908  27.2396295  74.5520039  27.8122547  15.7720059
  75.0771363  28.1509819  15.0469379  74.4642392  26.8769562  15.5883194
  66.2360700  33.8794530  20.1315313  65.7965690  33.3870909  20.8248169
  66.9868817  33.3367498  19.8907388  58.7153039  30.0706071  20.1339941
  59.5411059  29.7709843  19.7538584  58.3647091  29.3013693  20.5829729
  63.6834572  29.4232539  22.2037614  63.0614581  28.7603244  21.9039842
  64.3539439  29.4493671  21.5211262  56.9161644  27.9892397  21.0928874
  56.0793552  27.5614572  20.9112875  56.8885289  28.1824841  22.0299665
  63.7559100  17.9014327  31.7970120  63.8047255  18.7776450  31.4147890
  64.2981614  17.3591720  31.2241763  74.2413945  28.4455450  31.0771257
  73.4509489  28.4279589  30.5375757  74.0047300  28.9843744  31.8320294
  74.3611820  25.2947917  28.3903986  74.4109825  25.1297924  29.3319509
  74.2525744  24.4275176  28.0001867  63.2448079  27.9736462  15.6796075
  63.3936199  28.6571927  15.0262747  64.0514522  27.9541552  16.1945530
  71.6515583  21.2778845  29.7063293  72.5525445  21.1385309  29.4147290
  71.7263557  21.4433299  30.6461470  65.9858388  18.6545699  28.5516479
  65.1161697  18.9479265  28.2799067  66.2217868  19.2386144  29.2723742
  75.8630017  27.7144858  28.6346007  75.5714825  28.0774839  29.4709468
  75.2502148  27.0011866  28.4559339  77.0625699  25.2797738  21.1548578
  77.8972591  25.7187542  21.3186138  77.1984828  24.8036391  20.3356823
  74.1117205  22.8377473  27.1026065  74.5871327  23.0305119  26.2944917
  73.1882771  22.8936659  26.8569449  61.0000712  24.0001640  16.6857144
  60.7546754  23.0963970  16.8837354  61.1696627  24.0018790  15.7436622
  68.6897422  14.8725316  26.0681899  69.2079366  15.6086343  25.7428388
  68.3352555  15.1789310  26.9028658  60.2696360  19.7329997  14.1843305
  59.5765604  19.8074352  13.5283341  60.0248111  18.9690341  14.7064822
  68.9410016  11.2925599  21.5882796  69.2211770  10.6248788  22.2143222
  69.7260623  11.4854694  21.0757460  66.7443485  30.4684593  13.1507822
  66.1717452  31.0874780  12.6978294  67.3176278  31.0183954  13.6847744
  72.8118874  19.7143233  25.3354371  73.7636297  19.8141330  25.3566595
  72.6422325  18.9221501  25.8452455  70.8333254  16.7998816  25.5213772
  70.2383186  17.0803829  24.8260260  70.5482951  17.2892717  26.2930513
  69.9640744  30.7521743  14.2816404  70.8971417  30.6867305  14.4849280
  69.8763957  31.5878010  13.8230937  72.5928761  30.0687613  11.2420352
  72.5142393  29.7347477  12.1356110  73.4138428  30.5609381  11.2411824
  75.2906952  22.9349353  24.4496671  75.2583272  21.9965353  24.6356354
  75.9007576  23.0133389  23.7162495  67.1290283  21.8045405  10.4923875
  68.0749388  21.6751614  10.5612293  66.7504528  21.0660067  10.9693303
  75.4401441  19.7260396  24.4954954  74.9240489  18.9418853  24.3084883
  76.3241389  19.3979113  24.6601473  73.1012168  13.4701412  20.4550766
  72.9036989  13.1616500  21.3394098  73.7111873  14.1963050  20.5848696
  81.1083502  23.9965359  23.5902707  81.8386891  23.7350647  24.1510411
  80.4990448  23.2594081  23.6304775  79.1898799  22.1373222  24.1877159
  78.4631963  22.0029187  23.5793650  78.7746086  22.4450051  24.9933877
  67.0128976  25.8563152  31.9524532  67.9331985  26.0341751  32.1464578
  66.9778559  24.9119197  31.8004231  65.3133200  19.7295382  10.4278760
  64.4064656  19.4328495  10.5041473  65.5909181  19.4325200   9.5613046
  56.2311141  21.0501745  20.8777806  55.9113925  20.1967053  20.5852180
  55.6844569  21.2650323  21.6335774  60.0091048  23.7664186  24.5947313
  60.2277058  24.6981294  24.6135347  60.4216822  23.4072161  25.3802117
  66.9295266  14.2732272  16.5823001  66.1195994  13.9279357  16.9578247
  67.6179683  13.9639815  17.1710613  68.8585814  13.3510318  18.2047298
  69.4116853  13.7705772  18.8637321  69.0955901  12.4246066  18.2470254
  64.8818913  19.3397392  33.9850062  64.7815640  20.2891749  33.9162153
  64.6640455  19.0115631  33.1126132  56.0999401  24.6704657  22.8470928
  55.4062872  24.2558610  22.3340882  56.8472392  24.7125193  22.2504347
  72.2364621  15.4610844  17.7125962  71.6563290  16.1195648  17.3304014
  71.9700554  14.6388188  17.3013380  70.6868188  14.8615901  19.9147282
  71.1867966  14.9732436  19.1061601  71.3303796  14.5576954  20.5548091
  64.7450184  22.7694531  32.8015123  64.2617265  23.5694891  33.0079012
  64.8311123  22.7802476  31.8482567  58.0136143  24.6022911  20.7236943
  57.9906831  24.7010598  19.7718826  58.3236780  25.4488061  21.0454109
  60.6723521  26.6599066  24.8383557  61.6266775  26.6283008  24.7713489
  60.4736045  26.1989689  25.6533783  61.2622903  25.2300182  27.4054355
  62.0815792  25.7244260  27.4289192  61.5359711  24.3132150  27.3771922
  71.0189499  17.6210934  16.7682310  70.1315354  17.9060585  16.5502505
  71.4343488  17.4604697  15.9209587  74.3704035  17.6457455  20.4836650
  75.1464426  18.1353907  20.7561266  73.6452170  18.0715509  20.9408519
  76.8076594  18.3585074  21.5410590  77.4021085  18.1180810  20.8303898
  76.8803178  17.6392205  22.1684126  59.0273750  32.2018685  21.8553755
  58.8928218  31.4419086  21.2891753  58.6105812  32.9259585  21.3882544
  70.1632713  27.3855609  10.8630330  70.8668563  27.5905611  11.4787986
  69.4395362  27.9532370  11.1279414  70.9930523  23.1365470  16.9832600
  70.9365724  23.5934021  16.1440233  71.5458866  22.3756154  16.8055443
  74.8035329  18.9255202  17.8082720  74.5472263  18.5251837  18.6390928
  74.1788197  19.6398996  17.6832859  79.1147667  21.6651275  20.3154011
  78.5547225  21.7344464  21.0885573  78.5091170  21.4892260  19.5953508
  62.1842876  33.0988002  22.0672198  62.0675260  34.0433435  21.9650888
  61.3635322  32.7961564  22.4557997  72.0719410  27.8238138  12.9128790
  72.9065014  27.3919336  12.7306265  71.9103753  27.6520151  13.8405685
  71.7265302  24.3270251  14.2785130  71.6714106  24.1614523  13.3373574
  71.1011358  25.0346284  14.4347319  56.5157817  19.5638315  28.1046552
  57.1616681  19.0537269  28.5933777  56.3074968  20.3006997  28.6789977
  69.0411210  26.6319163  33.6038692  69.9102369  26.8059815  33.2425327
  68.5617961  27.4513580  33.4814422  65.0361428  13.8278360  13.8570448
  65.0240098  14.7720200  14.0138719  65.9284850  13.6448506  13.5629909
  63.2097390  33.7516264  25.2828126  64.1124636  33.7839874  25.5994621
  62.9834760  32.8216715  25.2974462  64.9650992  32.5047251  21.9438205
  64.0146623  32.5049112  21.8302577  65.2683478  31.7579985  21.4274239
  68.8513547  10.4221137  18.1116385  68.0845943   9.8679623  18.2573067
  69.2624252  10.4943006  18.9730536  60.8555308  16.7105933  32.2021566
  61.7186770  16.3542737  32.4124891  60.2820719  16.3719827  32.8896970
  73.3680207  40.1470693  18.9342383  72.8045072  40.0560630  18.1658671
  73.2532602  39.3270598  19.4144875  70.9144639  41.6421885  21.7726603
  71.7065931  41.3012710  21.3572903  71.1541289  41.7516860  22.6928757
  78.9479766  43.8141661  14.2456848  78.2967746  44.3995742  13.8590861
  79.7424129  44.3447856  14.3051885  72.8735393  40.9030798  14.6443982
  73.6466269  40.3559785  14.5056858  73.2260792  41.7675048  14.8558443
  75.2101671  37.0623464  12.2762432  75.4627192  36.5404986  11.5145895
  74.2726230  36.8989610  12.3789116  80.2544954  36.0659243  20.0837175
  81.0408043  35.6478666  19.7327592  80.5183658  36.9705335  20.2518824
  80.4255031  41.5032093  14.7825832  79.7900864  41.5766720  15.4946737
  80.0952438  42.0925692  14.1044911  85.6553381  36.0034476  20.9870154
  86.3878553  35.4333693  21.2207983  84.8992737  35.6156076  21.4276659
  74.9297960  38.9651570  14.4786807  74.8134218  38.2896474  15.1467891
  75.0400220  38.4783944  13.6618960  77.2729501  38.4261717  18.1833496
  76.9087708  37.8992338  18.8946418  78.1296617  38.0360187  18.0099982
  83.1778801  29.7156050  25.4464762  82.8462126  30.5851461  25.2225977
  82.5824415  29.3992334  26.1258793  76.9134988  33.4551617  13.1794845
  77.0809390  34.3231854  13.5465316  76.7232157  33.6178899  12.2556134
  73.1222802  38.3682393  20.8797379  72.1973299  38.2358607  21.0875071
  73.3707215  39.1476612  21.3767322  83.0707465  34.4351136  22.5258112
  82.1624342  34.3666545  22.2316873  83.0195060  34.9123081  23.3539938
  76.8924208  35.9109275  14.1641511  76.7723834  36.3566325  15.0026992
  76.1976797  36.2594592  13.6055050  70.4831613  38.0115666  21.7141168
  70.6123994  38.2650145  22.6280580  69.8029065  38.6043374  21.3945824
  74.6531101  48.6812916  17.8131643  74.5755130  49.6320741  17.8920123
  74.0492744  48.3358789  18.4706569  84.9369111  32.6367575  24.3035986
  84.2943491  32.9300108  23.6575781  84.4324040  32.5220495  25.1089183
  82.5909275  36.3830748  14.9921846  83.5027131  36.6158135  14.8169543
  82.0818922  36.9667792  14.4296924  85.0768089  42.3011004  19.7379791
  84.3919127  42.6809905  19.1876824  85.1611938  42.9106331  20.4711738
  79.9345249  32.5588784  23.2411706  79.0729728  32.8570037  23.5328444
  79.9607684  32.7759183  22.3092739  76.7506819  41.1030974  19.6485512
  77.2145164  41.3818677  18.8590135  76.4863617  40.2014419  19.4658603
  73.6430900  40.6502456  22.5865275  74.2132257  41.0789724  21.9482760
  74.2339012  40.3685041  23.2849461  75.6875705  37.2254127  16.4575077
  76.3899748  37.6775170  16.9249004  75.3556333  36.5837946  17.0854970
  69.4301039  35.4837679  21.7592211  68.6400093  35.7395208  21.2832321
  69.9212286  36.2986017  21.8644251  71.3815784  35.8482259  18.7175687
  70.5846947  35.9600953  19.2359183  71.1541376  36.1868911  17.8516578
  67.7138742  35.7368170  24.1907202  67.9646780  36.6215180  24.4564778
  68.2498290  35.5572771  23.4182293  91.5370841  39.1681667  20.8582463
  90.7834550  38.5989065  20.7026467  91.6718383  39.1344332  21.8053098
  76.9269469  44.0395069  16.5337182  76.7915144  44.8846605  16.9622030
  77.4679282  44.2414347  15.7703116  70.3798867  41.5570507  17.1065108
  70.8923387  42.3513758  17.2570672  71.0321580  40.8596798  17.0398709
  72.1893752  44.6736264  19.1887861  72.3660380  45.5954228  19.0008845
  72.9850585  44.3594683  19.6182240  80.2761933  27.5625631  25.0636076
  79.9326202  28.4527273  24.9875186  80.6440896  27.3727289  24.2005661
  68.3447784  39.8859162  17.8824678  69.1823006  40.2956170  17.6658386
  68.5226051  38.9458604  17.8524872  80.2412216  37.5534242  13.5708511
  79.7258839  38.3238847  13.8096898  79.9689524  36.8799379  14.1941572
  77.8259327  32.3983943  18.6293749  76.9700923  32.0090794  18.4499388
  78.2386279  32.4775904  17.7693535  79.3558473  29.9330286  23.0285309
  78.8523269  29.8960422  22.2153114  79.6489080  30.8423029  23.0881966
  75.6001359  30.0169016  22.0351491  76.4654356  29.8211825  21.6757380
  75.6678868  29.7879368  22.9620848  85.2146490  40.3066597  15.5061684
  84.4375933  39.9677756  15.0616847  85.8937971  40.3119220  14.8316650
  80.0298519  35.4261334  15.3968292  79.7248655  35.7407484  16.2478435
  80.9828961  35.5042754  15.4395625  78.4744951  41.5851558  17.0461246
  77.9466312  40.8504317  16.7334484  77.9732454  42.3626234  16.8001214
  73.2063678  32.2471224  19.4067858  73.7807430  32.0246406  18.6741051
  73.7934661  32.3159919  20.1596459  73.5333266  34.2775685  13.4263743
  72.6970578  34.6150372  13.7473018  73.3938035  34.1424665  12.4890880
  75.5086346  29.1212473  18.1342927  74.8550758  28.8061490  17.5099542
  75.4666820  28.4988213  18.8602750  76.6197551  39.4031768  10.0496219
  75.7124613  39.1721021  10.2487368  77.1168583  38.6069387  10.2370201
  79.5265630  48.1129275  12.9692905  78.8527329  48.4160972  13.5777863
  79.9131452  48.9158356  12.6198362  78.7424086  35.6094406  22.4590575
  77.8246648  35.8309353  22.3012263  79.1584230  35.6840717  21.6002282
  79.5259134  37.0085822  17.5893255  80.2730953  37.5207219  17.2800377
  79.7950724  36.6869875  18.4497649  77.7985784  39.5044363  14.5720209
  76.8897004  39.2203396  14.6692679  77.8280868  39.9243441  13.7123516
  83.0305052  43.1150952  18.3411377  82.5767379  42.2741862  18.3976567
  82.3999019  43.7512351  18.6786157  81.9737971  34.0442938  19.5712044
  81.2360728  33.5320325  19.9022287  82.2264745  33.6043320  18.7595321
  81.4737991  44.9527449  19.2761195  81.7660965  45.5132506  18.5573561
  81.9836612  45.2456010  20.0314354  82.0749599  26.8219190  20.1653814
  82.3808476  25.9616554  19.8779729  82.8002204  27.4136811  19.9652807
  68.3673955  37.2249877  18.5535411  68.1698355  36.6319238  17.8286478
  67.8120619  36.9202087  19.2711350  76.3470678  37.1172983  20.6730005
  76.4019288  36.1646820  20.5972481  75.5361880  37.2732423  21.1571303
  77.4961872  41.0453107  11.9108288  77.0581302  40.3288965  11.4513925
  78.2372313  41.2729221  11.3493379  74.2863038  35.7350043  18.4320383
  73.4730904  36.0344214  18.8385576  74.7822033  35.3405732  19.1494866
  76.4371616  45.7307800  20.3654648  76.3947795  45.9568646  19.4363180
  77.3534315  45.4971175  20.5140449  85.6134987  39.3210304  17.9684606
  85.4752886  39.5111900  17.0405796  85.2571206  40.0829686  18.4252658
  74.5537417  42.6070829  20.1616611  75.3478016  42.1121149  19.9599186
  73.8429109  42.0788692  19.7984316  70.8620181  36.7513911  16.2376364
  69.9317769  36.6898366  16.4546326  70.9577653  36.2289864  15.4413005
  70.7805730  33.2768724  18.8254605  71.0412547  34.1914057  18.7163766
  71.6022902  32.8093166  18.9751218  77.7256845  48.2808948  15.1839985
  77.9008601  47.8096991  15.9985607  77.0389633  48.9074714  15.4121245
  78.6813908  42.5581454  21.2303286  78.3463741  42.5182224  22.1260936
  78.1817854  41.8926170  20.7573696  81.6173100  39.9037488  11.5040345
  81.0002270  39.1784316  11.4073398  81.1489588  40.6646848  11.1607420
  72.2917930  51.4298310  21.9579845  72.5314529  52.0616835  22.6358863
  71.4487127  51.0786350  22.2445204  73.4071646  34.1222913  10.6261650
  72.5301112  34.0011713  10.2623896  73.8829399  33.3308991  10.3740538
  64.9273786  38.9100072  20.7203157  65.6144826  38.5961802  20.1324172
  64.7721915  39.8141437  20.4470408  69.7308508  33.7990269  25.1488181
  69.6466697  33.1915938  24.4138590  68.9091214  34.2899287  25.1497677
  76.8045792  47.2377433  24.3621349  76.7315964  48.0432404  24.8740653
  76.3623185  47.4369399  23.5369370  76.5935572  46.4749203  17.8724170
  75.8103094  47.0170883  17.9662395  77.2928317  46.9923183  18.2718411
  79.9032222  32.2843832  20.5158376  80.4000921  31.5313795  20.1959446
  79.1319203  32.3208149  19.9501585  87.7561979  37.9884198  22.1576667
  87.7451856  38.8708913  21.7870600  86.8879359  37.6355749  21.9631204
  80.9862003  41.0415520  18.0896799  80.0518281  41.1616982  17.9201503
  81.1638671  40.1387986  17.8256809  76.4867191  34.4261215  20.2430060
  76.1164978  33.8732256  20.9310966  76.9826283  33.8219349  19.6905060
  84.3734554  36.8832839  18.6246833  84.8395006  37.7160830  18.5507136
  84.8242054  36.4177820  19.3292092  82.4410785  43.2276660  15.6232985
  82.7170629  43.1133255  16.5326859  81.5715284  42.8294145  15.5845158
  82.3451217  29.2513426  22.6637734  81.4314296  29.4817653  22.8319941
  82.7744318  29.3351870  23.5151767  79.0764849  47.4763011  19.2665799
  79.2587244  46.6584667  19.7293551  79.8997835  47.6930703  18.8290689
  79.4107015  46.4031196  16.5280847  79.9394781  45.8923651  15.9151009
  79.6735234  46.0873726  17.3926380  72.7662762  47.4546313  19.2878623
  72.0973138  47.9392440  18.8042663  72.6275632  47.7015533  20.2022002
  64.5041762  36.9900666  22.9920624  64.5425862  36.4564256  23.7857742
  63.9982055  36.4635871  22.3731601  71.8832524  31.8365206  26.4883166
  71.9473851  32.6980037  26.0760564  71.8199645  31.2239208  25.7555525
  68.1350340  35.7164768  16.0674555  68.4303781  34.8075446  16.0141609
  67.2338375  35.6952507  15.7455558  71.6644587  33.7920764  22.0502104
  70.9431172  34.4056732  21.9109577  72.4537842  34.3278529  21.9718750
  69.8638181  33.3978865  16.1913881  69.5350887  32.5176244  16.0088986
  70.2177552  33.3426534  17.0790270  79.1117760  45.0333768  20.7008866
  78.9642722  44.1050476  20.8816436  79.9371254  45.0553859  20.2165941
  72.9780004  33.6851835  16.5589358  73.3176077  34.2137756  15.8367967
  73.4252125  34.0232241  17.3347925  82.7151882  45.8562327  21.7873739
  83.6398429  45.6505188  21.6498190  82.5467185  45.6078728  22.6963080
  76.3239917  29.1538198  24.4619749  77.1465986  28.6798677  24.3398640
  76.5677981  29.9328682  24.9618436  74.9648151  32.1826457  14.7582651
  75.6856514  32.5607710  14.2546368  74.3413456  32.9015334  14.8617629
  79.1079274  32.8871606  15.6940983  79.3242889  33.7696244  15.3929811
  78.6273342  32.4957819  14.9646625  73.8478496  35.8457319  22.2711728
  73.7023076  36.1597622  23.1636009  73.3703699  36.4642219  21.7182627
  75.7074879  32.8359867  22.3192617  75.6936447  31.9400960  21.9824915
  76.4247307  32.8430531  22.9530904  82.5047198  46.3747994  17.1435830
  82.6784076  45.8094417  16.3909683  82.9976089  47.1748889  16.9615320
  75.1111775  31.7174247  17.5880188  75.2327686  30.7890893  17.7871075
  74.8213817  31.7312933  16.6758503  77.9802965  29.4029158  20.7246907
  78.0024662  29.4668491  19.7698887  78.3971024  28.5633666  20.9187414
  88.3586589  39.1384417  18.7626130  88.8017735  38.3891742  18.3645253
  87.4813100  39.1294554  18.3799862  83.4922371  45.6914759  14.2432729
  84.1873275  46.3121451  14.4620043  83.8345521  44.8410110  14.5185106
  85.3913794  43.1414464  15.7720059  85.9165118  43.4801737  15.0469379
  85.3036146  42.2061480  15.5883194  77.0754454  49.2086448  20.1315313
  76.6359445  48.7162826  20.8248169  77.8262571  48.6659415  19.8907388
  69.5546793  45.3997988  20.1339941  70.3804813  45.1001760  19.7538584
  69.2040845  44.6305611  20.5829729  74.5228327  44.7524457  22.2037614
  73.9008336  44.0895162  21.9039842  75.1933194  44.7785588  21.5211262
  67.7555398  43.3184315  21.0928874  66.9187307  42.8906489  20.9112875
  67.7279044  43.5116758  22.0299665  74.0841834  43.3028380  15.6796075
  74.2329954  43.9863844  15.0262747  74.8908277  43.2833470  16.1945530
  87.9019454  40.6089656  21.1548578  88.7366345  41.0479460  21.3186138
  88.0378583  40.1328309  20.3356823  71.8394466  39.3293558  16.6857144
  71.5940508  38.4255888  16.8837354  72.0090381  39.3310708  15.7436622
  79.5291176  30.2017234  26.0681899  80.0473120  30.9378261  25.7428388
  79.1746309  30.5081227  26.9028658  71.1090114  35.0621915  14.1843305
  70.4159359  35.1366270  13.5283341  70.8641866  34.2982259  14.7064822
  79.7803771  26.6217516  21.5882796  80.0605524  25.9540706  22.2143222
  80.5654377  26.8146612  21.0757460  77.5837239  45.7976510  13.1507822
  77.0111206  46.4166698  12.6978294  78.1570033  46.3475872  13.6847744
  80.8034499  46.0813661  14.2816404  81.7365172  46.0159222  14.4849280
  80.7157712  46.9169927  13.8230937  83.4322515  45.3979531  11.2420352
  83.3536147  45.0639394  12.1356110  84.2532182  45.8901299  11.2411824
  77.9684038  37.1337323  10.4923875  78.9143142  37.0043531  10.5612293
  77.5898282  36.3951985  10.9693303  83.9405922  28.7993329  20.4550766
  83.7430743  28.4908417  21.3394098  84.5505628  29.5254968  20.5848696
  91.9477257  39.3257277  23.5902707  92.6780645  39.0642565  24.1510411
  91.3384202  38.5885999  23.6304775  90.0292554  37.4665140  24.1877159
  89.3025717  37.3321105  23.5793650  89.6139841  37.7741968  24.9933877
  76.1526955  35.0587300  10.4278760  75.2458410  34.7620412  10.5041473
  76.4302936  34.7617118   9.5613046  67.0704895  36.3793663  20.8777806
  66.7507679  35.5258971  20.5852180  66.5238323  36.5942241  21.6335774
  77.7689020  29.6024189  16.5823001  76.9589749  29.2571274  16.9578247
  78.4573437  29.2931733  17.1710613  79.6979569  28.6802236  18.2047298
  80.2510607  29.0997689  18.8637321  79.9349655  27.7537984  18.2470254
  74.9225739  31.9174235  10.5690739  75.7844903  32.2429133  10.8286556
  75.1076083  31.1305731  10.0563805  66.9393155  39.9996574  22.8470928
  66.2456627  39.5850527  22.3340882  67.6866146  40.0417111  22.2504347
  83.0758376  30.7902761  17.7125962  82.4957045  31.4487565  17.3304014
  82.8094308  29.9680106  17.3013380  81.5261942  30.1907819  19.9147282
  82.0261721  30.3024353  19.1061601  82.1697550  29.8868872  20.5548091
  68.8529898  39.9314828  20.7236943  68.8300586  40.0302515  19.7718826
  69.1630534  40.7779979  21.0454109  81.8583254  32.9502852  16.7682310
  80.9709109  33.2352502  16.5502505  82.2737243  32.7896615  15.9209587
  85.2097790  32.9749373  20.4836650  85.9858180  33.4645825  20.7561266
  84.4845924  33.4007427  20.9408519  87.6470349  33.6876992  21.5410590
  88.2414839  33.4472728  20.8303898  87.7196932  32.9684122  22.1684126
  69.8667504  47.5310603  21.8553755  69.7321972  46.7711004  21.2891753
  69.4499567  48.2551503  21.3882544  81.0026467  42.7147526  10.8630330
  81.7062317  42.9197529  11.4787986  80.2789116  43.2824288  11.1279414
  81.8324278  38.4657388  16.9832600  81.7759479  38.9225939  16.1440233
  82.3852620  37.7048072  16.8055443  85.6429083  34.2547119  17.8082720
  85.3866018  33.8543755  18.6390928  85.0181952  34.9690913  17.6832859
  89.9541421  36.9943193  20.3154011  89.3940979  37.0636382  21.0885573
  89.3484925  36.8184177  19.5953508  73.0236630  48.4279920  22.0672198
  72.9069014  49.3725352  21.9650888  72.2029076  48.1253481  22.4557997
  82.9113165  43.1530055  12.9128790  83.7458769  42.7211254  12.7306265
  82.7497508  42.9812069  13.8405685  82.5659057  39.6562169  14.2785130
  82.5107861  39.4906440  13.3373574  81.9405112  40.3638202  14.4347319
  75.8755182  29.1570278  13.8570448  75.8633852  30.1012118  14.0138719
  76.7678604  28.9740423  13.5629909  75.8044746  47.8339168  21.9438205
  74.8540377  47.8341030  21.8302577  76.1077232  47.0871903  21.4274239
  79.6907302  25.7513054  18.1116385  78.9239698  25.1971541  18.2573067
  80.1018007  25.8234923  18.9730536  84.2073962  55.4762611  18.9342383
  83.6438827  55.3852548  18.1658671  84.0926357  54.6562516  19.4144875
  81.7538394  56.9713803  21.7726603  82.5459686  56.6304627  21.3572903
  81.9935044  57.0808778  22.6928757  89.7873520  59.1433579  14.2456848
  89.1361500  59.7287659  13.8590861  90.5817883  59.6739774  14.3051885
  83.7129148  56.2322716  14.6443982  84.4860024  55.6851703  14.5056858
  84.0654546  57.0966965  14.8558443  86.0495425  52.3915382  12.2762432
  86.3020946  51.8696903  11.5145895  85.1119985  52.2281528  12.3789116
  91.0938708  51.3951160  20.0837175  91.8801797  50.9770584  19.7327592
  91.3577413  52.2997253  20.2518824  91.2648786  56.8324011  14.7825832
  90.6294619  56.9058637  15.4946737  90.9346192  57.4217610  14.1044911
  96.4947135  51.3326394  20.9870154  97.2272307  50.7625610  21.2207983
  95.7386491  50.9447994  21.4276659  85.7691714  54.2943488  14.4786807
  85.6527972  53.6188391  15.1467891  85.8793974  53.8075862  13.6618960
  88.1123255  53.7553635  18.1833496  87.7481462  53.2284256  18.8946418
  88.9690371  53.3652104  18.0099982  94.0172556  45.0447968  25.4464762
  93.6855881  45.9143379  25.2225977  93.4218169  44.7284252  26.1258793
  87.7528742  48.7843535  13.1794845  87.9203144  49.6523771  13.5465316
  87.5625911  48.9470817  12.2556134  83.9616557  53.6974311  20.8797379
  83.0367053  53.5650525  21.0875071  84.2100970  54.4768530  21.3767322
  93.9101219  49.7643054  22.5258112  93.0018096  49.6958462  22.2316873
  93.8588815  50.2414999  23.3539938  87.7317963  51.2401192  14.1641511
  87.6117588  51.6858243  15.0026992  87.0370551  51.5886510  13.6055050
  81.3225368  53.3407584  21.7141168  81.4517749  53.5942063  22.6280580
  80.6422819  53.9335292  21.3945824  85.4924855  64.0104834  17.8131643
  85.4148885  64.9612659  17.8920123  84.8886499  63.6650707  18.4706569
  95.7762865  47.9659492  24.3035986  95.1337246  48.2592025  23.6575781
  95.2717794  47.8512413  25.1089183  93.4303029  51.7122666  14.9921846
  94.3420885  51.9450052  14.8169543  92.9212676  52.2959710  14.4296924
  95.9161843  57.6302922  19.7379791  95.2312881  58.0101823  19.1876824
  96.0005693  58.2398248  20.4711738  91.2174312  48.7324268  27.6597869
  90.9735244  49.4866329  27.1232144  91.4934243  49.1109616  28.4945116
  90.7739004  47.8880701  23.2411706  89.9123483  48.1861955  23.5328444
  90.8001439  48.1051100  22.3092739  87.5900573  56.4322892  19.6485512
  88.0538919  56.7110595  18.8590135  87.3257371  55.5306337  19.4658603
  86.5269459  52.5546044  16.4575077  87.2293503  53.0067088  16.9249004
  86.1950088  51.9129863  17.0854970  80.2694793  50.8129597  21.7592211
  79.4793847  51.0687126  21.2832321  80.7606041  51.6277935  21.8644251
  82.2209539  51.1774176  18.7175687  81.4240702  51.2892871  19.2359183
  81.9935131  51.5160829  17.8516578 102.3764596  54.4973585  20.8582463
 101.6228304  53.9280983  20.7026467 102.5112137  54.4636249  21.8053098
  87.7663224  59.3686987  16.5337182  87.6308899  60.2138523  16.9622030
  88.3073036  59.5706265  15.7703116  81.2192621  56.8862425  17.1065108
  81.7317142  57.6805675  17.2570672  81.8715334  56.1888716  17.0398709
  83.0287506  60.0028181  19.1887861  83.2054134  60.9246146  19.0008845
  83.8244340  59.6886601  19.6182240  91.1155688  42.8917549  25.0636076
  90.7719957  43.7819191  24.9875186  91.4834650  42.7019207  24.2005661
  79.1841538  55.2151079  17.8824678  80.0216760  55.6248088  17.6658386
  79.3619806  54.2750522  17.8524872  91.0805970  52.8826160  13.5708511
  90.5652594  53.6530765  13.8096898  90.8083279  52.2091296  14.1941572
  88.6653081  47.7275861  18.6293749  87.8094678  47.3382711  18.4499388
  89.0780033  47.8067822  17.7693535  90.1952228  45.2622204  23.0285309
  89.6917024  45.2252339  22.2153114  90.4882835  46.1714947  23.0881966
  86.4395114  45.3460934  22.0351491  87.3048111  45.1503742  21.6757380
  86.5072623  45.1171286  22.9620848  96.0540244  55.6358515  15.5061684
  95.2769687  55.2969674  15.0616847  96.7331725  55.6411138  14.8316650
  90.8692273  50.7553252  15.3968292  90.5642409  51.0699401  16.2478435
  91.8222716  50.8334672  15.4395625  89.3138705  56.9143475  17.0461246
  88.7860067  56.1796235  16.7334484  88.8126208  57.6918152  16.8001214
  94.2931551  55.1092496  22.1628292  93.6355226  55.7991757  22.2508421
  95.0971951  55.4988928  22.5062279  84.0457433  47.5763142  19.4067858
  84.6201185  47.3538323  18.6741051  84.6328415  47.6451836  20.1596459
  93.1037010  53.4636869  20.2132234  93.6168892  54.0966860  20.7153944
  93.7538234  52.8638064  19.8475594  84.3727020  49.6067603  13.4263743
  83.5364332  49.9442289  13.7473018  84.2331790  49.4716583  12.4890880
  86.3480101  44.4504391  18.1342927  85.6944513  44.1353408  17.5099542
  86.3060575  43.8280131  18.8602750  87.4591305  54.7323686  10.0496219
  86.5518367  54.5012939  10.2487368  87.9562337  53.9361305  10.2370201
  90.3659384  63.4421193  12.9692905  89.6921083  63.7452890  13.5777863
  90.7525206  64.2450273  12.6198362  90.3652889  52.3377740  17.5893255
  91.1124708  52.8499137  17.2800377  90.6344478  52.0161793  18.4497649
  88.6379539  54.8336281  14.5720209  87.7290758  54.5495313  14.6692679
  88.6674623  55.2535359  13.7123516  93.8698806  58.4442870  18.3411377
  93.4161133  57.6033780  18.3976567  93.2392773  59.0804268  18.6786157
  92.8131726  49.3734856  19.5712044  92.0754483  48.8612242  19.9022287
  93.0658499  48.9335238  18.7595321  92.3131746  60.2819367  19.2761195
  92.6054720  60.8424424  18.5573561  92.8230366  60.5747928  20.0314354
  92.9143353  42.1511108  20.1653814  93.2202230  41.2908472  19.8779729
  93.6395958  42.7428728  19.9652807  79.2067709  52.5541795  18.5535411
  79.0092109  51.9611155  17.8286478  78.6514373  52.2494005  19.2711350
  88.3355627  56.3745024  11.9108288  87.8975057  55.6580883  11.4513925
  89.0766068  56.6021139  11.3493379  85.1256793  51.0641961  18.4320383
  84.3124658  51.3636131  18.8385576  85.6215787  50.6697650  19.1494866
  87.2765371  61.0599718  20.3654648  87.2341550  61.2860564  19.4363180
  88.1928070  60.8263092  20.5140449  90.7231005  51.5283785  27.2635277
  91.0780392  51.7555259  28.1229743  91.3703136  51.8602162  26.6412533
  96.4528742  54.6502221  17.9684606  96.3146640  54.8403817  17.0405796
  96.0964960  55.4121604  18.4252658  96.4798121  56.7178748  22.9795878
  96.9134628  56.6254037  23.8278932  97.1929702  56.6936249  22.3415894
  85.3931172  57.9362747  20.1616611  86.1871770  57.4413067  19.9599186
  84.6822864  57.4080610  19.7984316  81.7013935  52.0805829  16.2376364
  80.7711523  52.0190284  16.4546326  81.7971407  51.5581781  15.4413005
  81.6199484  48.6060641  18.8254605  81.8806301  49.5205975  18.7163766
  82.4416656  48.1385084  18.9751218  97.3413671  56.7602449  25.5128763
  97.5349561  57.6648259  25.7588038  97.2414289  56.3009868  26.3467348
  88.5650600  63.6100865  15.1839985  88.7402355  63.1388909  15.9985607
  87.8783388  64.2366632  15.4121245  89.5207663  57.8873372  21.2303286
  89.1857495  57.8474142  22.1260936  89.0211608  57.2218087  20.7573696
  92.4566854  55.2329406  11.5040345  91.8396025  54.5076234  11.4073398
  91.9883343  55.9938766  11.1607420  83.1311685  66.7590228  21.9579845
  83.3708283  67.3908752  22.6358863  82.2880881  66.4078268  22.2445204
  84.2465400  49.4514830  10.6261650  83.3694867  49.3303631  10.2623896
  84.7223153  48.6600908  10.3740538  75.7667540  54.2391990  20.7203157
  76.4538580  53.9253720  20.1324172  75.6115669  55.1433355  20.4470408
  87.4329326  61.8041121  17.8724170  86.6496848  62.3462801  17.9662395
  88.1322071  62.3215100  18.2718411  90.7425976  47.6135750  20.5158376
  91.2394676  46.8605712  20.1959446  89.9712958  47.6500067  19.9501585
  98.5955734  53.3176116  22.1576667  98.5845610  54.2000831  21.7870600
  97.7273113  52.9647666  21.9631204  91.8255757  56.3707437  18.0896799
  90.8912036  56.4908900  17.9201503  92.0032426  55.4679904  17.8256809
  95.2128308  52.2124757  18.6246833  95.6788761  53.0452748  18.5507136
  95.6635809  51.7469738  19.3292092  93.2804540  58.5568578  15.6232985
  93.5564383  58.4425172  16.5326859  92.4109038  58.1586063  15.5845158
  93.1844971  44.5805343  22.6637734  92.2708051  44.8109570  22.8319941
  93.6138073  44.6643788  23.5151767  92.9551430  52.7695235  25.1637629
  92.3022880  53.0171143  24.5090081  93.3331810  51.9559374  24.8300106
  89.9158604  62.8054929  19.2665799  90.0980998  61.9876585  19.7293551
  90.7391590  63.0222621  18.8290689  90.2500769  61.7323114  16.5280847
  90.7788535  61.2215568  15.9151009  90.5128989  61.4165644  17.3926380
  83.6056517  62.7838230  19.2878623  82.9366892  63.2684358  18.8042663
  83.4669387  63.0307451  20.2022002  75.3435517  52.3192583  22.9920624
  75.3819616  51.7856174  23.7857742  74.8375809  51.7927789  22.3731601
  78.9744094  51.0456685  16.0674555  79.2697535  50.1367364  16.0141609
  78.0732130  51.0244425  15.7455558  90.8830173  62.7663949  22.8724964
  90.7581312  61.9653689  22.3635909  91.5409264  63.2610143  22.3838934
  82.5038341  49.1212682  22.0502104  81.7824927  49.7348650  21.9109577
  83.2931597  49.6570447  21.9718750  92.9465081  60.5672970  24.5004514
  91.9995417  60.4478321  24.4282841  93.2947854  59.6795468  24.5830775
  80.7031936  48.7270783  16.1913881  80.3744642  47.8468162  16.0088986
  81.0571306  48.6718452  17.0790270  89.9511515  60.3625686  20.7008866
  89.8036477  59.4342393  20.8816436  90.7765008  60.3845777  20.2165941
  83.8173759  49.0143753  16.5589358  84.1569831  49.5429674  15.8367967
  84.2645879  49.3524159  17.3347925  93.5545636  61.1854245  21.7873739
  94.4792184  60.9797106  21.6498190  93.3860940  60.9370646  22.6963080
  85.8041906  47.5118374  14.7582651  86.5250268  47.8899627  14.2546368
  85.1807210  48.2307251  14.8617629  89.9473029  48.2163523  15.6940983
  90.1636643  49.0988161  15.3929811  89.4667096  47.8249737  14.9646625
  84.6872250  51.1749237  22.2711728  84.5416831  51.4889540  23.1636009
  84.2097454  51.7934137  21.7182627  86.5468633  48.1651785  22.3192617
  86.5330202  47.2692878  21.9824915  87.2641061  48.1722448  22.9530904
  88.3994764  48.5989125  24.3645745  88.1412542  49.5206196  24.3630075
  87.8679804  48.2019559  25.0546209  93.3440953  61.7039912  17.1435830
  93.5177830  61.1386334  16.3909683  93.8369844  62.5040807  16.9615320
  85.9505529  47.0466165  17.5880188  86.0721440  46.1182811  17.7871075
  85.6607571  47.0604851  16.6758503  88.8196719  44.7321075  20.7246907
  88.8418416  44.7960408  19.7698887  89.2364778  43.8925584  20.9187414
  99.1980344  54.4676335  18.7626130  99.6411490  53.7183660  18.3645253
  98.3206854  54.4586471  18.3799862  94.3316125  61.0206676  14.2432729
  95.0267030  61.6413369  14.4620043  94.6739275  60.1702028  14.5185106
  96.2307548  58.4706382  15.7720059  96.7558872  58.8093655  15.0469379
  96.1429901  57.5353397  15.5883194  87.9148209  64.5378365  20.1315313
  87.4753199  64.0454744  20.8248169  88.6656326  63.9951333  19.8907388
  80.3940548  60.7289906  20.1339941  81.2198568  60.4293678  19.7538584
  80.0434600  59.9597528  20.5829729  78.5949153  58.6476233  21.0928874
  77.7581061  58.2198407  20.9112875  78.5672798  58.8408676  22.0299665
  96.0399329  55.9531752  28.3903986  96.0897334  55.7881759  29.3319509
  95.9313253  55.0859011  28.0001867  84.9235588  58.6320298  15.6796075
  85.0723708  59.3155762  15.0262747  85.7302031  58.6125388  16.1945530
  98.7413208  55.9381573  21.1548578  99.5760100  56.3771377  21.3186138
  98.8772337  55.4620226  20.3356823  95.7904714  53.4961308  27.1026065
  96.2658836  53.6888954  26.2944917  94.8670280  53.5520494  26.8569449
  82.6788221  54.6585475  16.6857144  82.4334263  53.7547805  16.8837354
  82.8484136  54.6602626  15.7436622  90.3684931  45.5309152  26.0681899
  90.8866875  46.2670179  25.7428388  90.0140064  45.8373145  26.9028658
  81.9483869  50.3913833  14.1843305  81.2553113  50.4658188  13.5283341
  81.7035620  49.6274176  14.7064822  90.6197525  41.9509434  21.5882796
  90.8999279  41.2832623  22.2143222  91.4048132  42.1438530  21.0757460
  88.4230994  61.1268428  13.1507822  87.8504961  61.7458615  12.6978294
  88.9963787  61.6767790  13.6847744  94.4906383  50.3727068  25.3354371
  95.4423806  50.4725166  25.3566595  94.3209834  49.5805337  25.8452455
  92.5120763  47.4582651  25.5213772  91.9170695  47.7387664  24.8260260
  92.2270460  47.9476552  26.2930513  91.6428253  61.4105578  14.2816404
  92.5758926  61.3451140  14.4849280  91.5551466  62.2461845  13.8230937
  94.2716270  60.7271449  11.2420352  94.1929902  60.3931312  12.1356110
  95.0925937  61.2193216  11.2411824  96.9694461  53.5933188  24.4496671
  96.9370781  52.6549189  24.6356354  97.5795085  53.6717225  23.7162495
  88.8077792  52.4629241  10.4923875  89.7536897  52.3335449  10.5612293
  88.4292037  51.7243903  10.9693303  97.1188950  50.3844231  24.4954954
  96.6027998  49.6002688  24.3084883  98.0028898  50.0562948  24.6601473
  94.7799677  44.1285247  20.4550766  94.5824498  43.8200335  21.3394098
  95.3899382  44.8546886  20.5848696 102.7871011  54.6549195  23.5902707
 103.5174399  54.3934483  24.1510411 102.1777956  53.9177917  23.6304775
 100.8686308  52.7957057  24.1877159 100.1419472  52.6613022  23.5793650
 100.4533595  53.1033886  24.9933877  86.9920709  50.3879217  10.4278760
  86.0852165  50.0912330  10.5041473  87.2696690  50.0909035   9.5613046
  77.9098650  51.7085581  20.8777806  77.5901434  50.8550889  20.5852180
  77.3632078  51.9234159  21.6335774  88.6082775  44.9316107  16.5823001
  87.7983503  44.5863192  16.9578247  89.2967192  44.6223651  17.1710613
  90.5373323  44.0094154  18.2047298  91.0904362  44.4289607  18.8637321
  90.7743410  43.0829902  18.2470254  85.7619494  47.2466152  10.5690739
  86.6238658  47.5721051  10.8286556  85.9469838  46.4597648  10.0563805
  77.7786910  55.3288492  22.8470928  77.0850381  54.9142445  22.3340882
  78.5259901  55.3709029  22.2504347  93.9152130  46.1194679  17.7125962
  93.3350799  46.7779483  17.3304014  93.6488063  45.2972023  17.3013380
  92.3655697  45.5199737  19.9147282  92.8655475  45.6316271  19.1061601
  93.0091305  45.2160789  20.5548091  79.6923652  55.2606746  20.7236943
  79.6694340  55.3594433  19.7718826  80.0024289  56.1071897  21.0454109
  92.6977008  48.2794769  16.7682310  91.8102863  48.5644420  16.5502505
  93.1130997  48.1188533  15.9209587  96.0491544  48.3041290  20.4836650
  96.8251935  48.7937743  20.7561266  95.3239679  48.7299344  20.9408519
  98.4864103  49.0168909  21.5410590  99.0808594  48.7764645  20.8303898
  98.5590687  48.2976040  22.1684126  80.7061259  62.8602520  21.8553755
  80.5715727  62.1002921  21.2891753  80.2893321  63.5843420  21.3882544
  91.8420222  58.0439444  10.8630330  92.5456072  58.2489446  11.4787986
  91.1182871  58.6116206  11.1279414  92.6718032  53.7949305  16.9832600
  92.6153233  54.2517857  16.1440233  93.2246375  53.0339990  16.8055443
  96.4822838  49.5839037  17.8082720  96.2259772  49.1835673  18.6390928
  95.8575706  50.2982831  17.6832859 100.7935176  52.3235110  20.3154011
 100.2334734  52.3928300  21.0885573 100.1878679  52.1476095  19.5953508
  83.8630385  63.7571837  22.0672198  83.7462769  64.7017270  21.9650888
  83.0422831  63.4545399  22.4557997  93.7506919  58.4821973  12.9128790
  94.5852523  58.0503172  12.7306265  93.5891262  58.3103987  13.8405685
  93.4052811  54.9854086  14.2785130  93.3501615  54.8198358  13.3373574
  92.7798867  55.6930119  14.4347319  86.7148937  44.4862195  13.8570448
  86.7027607  45.4304035  14.0138719  87.6072359  44.3032341  13.5629909
  86.6438501  63.1631086  21.9438205  85.6934132  63.1632947  21.8302577
  86.9470987  62.4163820  21.4274239  90.5301056  41.0804972  18.1116385
  89.7633452  40.5263459  18.2573067  90.9411761  41.1526841  18.9730536
 102.3791194  68.9991624  23.0083967 103.0169604  68.8798372  22.3047307
 102.2612037  69.9472468  23.0671919  99.1880901  68.9519052  22.9445492
  98.8499412  68.8360117  22.0566027 100.0570669  68.5510217  22.9246498
  95.0467716  70.8054529  18.9342383  94.4832581  70.7144466  18.1658671
  94.9320111  69.9854433  19.4144875  99.6700684  70.1053904  28.9031697
  99.6589324  69.7106702  28.0312201  99.8321323  69.3719977  29.4965469
  92.5932148  72.3005720  21.7726603  93.3853440  71.9596545  21.3572903
  92.8328798  72.4100695  22.6928757 100.6267275  74.4725496  14.2456848
  99.9755255  75.0579577  13.8590861 101.4211638  75.0031691  14.3051885
  94.5522902  71.5614634  14.6443982  95.3253778  71.0143621  14.5056858
  94.9048301  72.4258883  14.8558443  96.3907945  72.8891016  27.8510881
  96.0997811  73.7936647  27.7357548  97.0264929  72.9307544  28.5654951
  97.3164152  70.2667864  24.4412241  97.9127724  70.0423887  23.7269204
  97.3739123  69.5252610  25.0437689  96.8889180  67.7207300  12.2762432
  97.1414701  67.1988821  11.5145895  95.9513739  67.5573445  12.3789116
 101.9332463  66.7243078  20.0837175 102.7195552  66.3062501  19.7327592
 102.1971167  67.6289170  20.2518824 102.1042540  72.1615928  14.7825832
 101.4688373  72.2350555  15.4946737 101.7739947  72.7509527  14.1044911
 107.3340890  66.6618311  20.9870154 108.0666062  66.0917528  21.2207983
 106.5780246  66.2739912  21.4276659  96.6085469  69.6235406  14.4786807
  96.4921727  68.9480309  15.1467891  96.7187729  69.1367780  13.6618960
  98.9517010  69.0845553  18.1833496  98.5875217  68.5576174  18.8946418
  99.8084126  68.6944022  18.0099982 104.8566310  60.3739885  25.4464762
 104.5249635  61.2435296  25.2225977 104.2611924  60.0576169  26.1258793
  98.5922497  64.1135452  13.1794845  98.7596899  64.9815689  13.5465316
  98.4019666  64.2762734  12.2556134 101.3497830  72.5752431  24.8460675
 101.0498553  73.4777470  24.7376482 101.0048889  72.3084615  25.6981828
  94.8010311  69.0266228  20.8797379  93.8760808  68.8942442  21.0875071
  95.0494724  69.8060447  21.3767322 104.7494974  65.0934972  22.5258112
 103.8411851  65.0250380  22.2316873 104.6982569  65.5706917  23.3539938
  98.5711717  66.5693110  14.1641511  98.4511343  67.0150161  15.0026992
  97.8764306  66.9178428  13.6055050  92.1619122  68.6699502  21.7141168
  92.2911503  68.9233981  22.6280580  91.4816574  69.2627210  21.3945824
  96.3318610  79.3396752  17.8131643  96.2542639  80.2904577  17.8920123
  95.7280253  78.9942624  18.4706569 106.6156620  63.2951410  24.3035986
 105.9731000  63.5883943  23.6575781 106.1111548  63.1804330  25.1089183
 104.2696784  67.0414583  14.9921846 105.1814640  67.2741970  14.8169543
 103.7606431  67.6251627  14.4296924  97.0782212  69.3210071  30.0310977
  97.8196896  69.8595115  29.7545800  96.3719197  69.9476359  30.1882528
 102.5537551  71.4639211  28.6283138 102.9620907  71.0221622  27.8837770
 101.8314813  70.8891839  28.8817331  98.9068621  66.4011818  26.0016695
  99.7529817  66.8251231  26.1451344  98.8467259  65.7445442  26.6955258
 102.8766366  72.0240402  22.3835427 102.2475228  72.1886116  21.6811495
 102.4892028  72.4382011  23.1546391 106.7555598  72.9594839  19.7379791
 106.0706636  73.3393741  19.1876824 106.8399447  73.5690166  20.4711738
 102.0568067  64.0616186  27.6597869 101.8128999  64.8158247  27.1232144
 102.3327997  64.4401534  28.4945116 104.0106529  70.6054799  26.3375134
 104.2223425  71.2486558  25.6609515 103.9636278  69.7717115  25.8697064
 101.6132758  63.2172619  23.2411706 100.7517237  63.5153873  23.5328444
 101.6395193  63.4343018  22.3092739  98.4294328  71.7614810  19.6485512
  98.8932673  72.0402513  18.8590135  98.1651126  70.8598254  19.4658603
  95.3218409  71.3086291  22.5865275  95.8919766  71.7373560  21.9482760
  95.9126521  71.0268876  23.2849461  97.3663214  67.8837962  16.4575077
  98.0687257  68.3359006  16.9249004  97.0343842  67.2421781  17.0854970
  91.1088548  66.1421515  21.7592211  90.3187602  66.3979043  21.2832321
  91.5999795  66.9569853  21.8644251 105.1252357  73.4826754  24.5097492
 105.9469801  73.0806941  24.2280173 105.1214760  73.3794988  25.4613607
  93.0603293  66.5066094  18.7175687  92.2634456  66.6184788  19.2359183
  92.8328885  66.8452746  17.8516578  98.8908961  73.0310797  26.6658202
  98.9553393  73.4931204  27.5016374  98.1819885  72.4008162  26.7940512
  89.3926251  66.3952005  24.1907202  89.6434289  67.2799015  24.4564778
  89.9285799  66.2156607  23.4182293 113.2158350  69.8265502  20.8582463
 112.4622059  69.2572900  20.7026467 113.3505892  69.7928167  21.8053098
  98.6056978  74.6978905  16.5337182  98.4702653  75.5430440  16.9622030
  99.1466791  74.8998182  15.7703116  92.0586376  72.2154343  17.1065108
  92.5710896  73.0097593  17.2570672  92.7109089  71.5180633  17.0398709
  93.8681261  75.3320099  19.1887861  94.0447889  76.2538064  19.0008845
  94.6638094  75.0178518  19.6182240 100.2325455  75.3202471  30.6637525
  99.7889309  74.5338850  30.3458429 100.8942668  75.5081622  29.9981415
  94.9912576  76.8498273  25.1898203  95.5420001  76.7215336  24.4175197
  94.1524052  77.1493162  24.8393096 102.3306693  75.6005271  28.6918926
 102.3125168  76.4214152  28.1999195 103.2526613  75.4759346  28.9169067
  98.7879747  73.1149401  29.5342434  99.3208084  72.3537689  29.3041742
  98.2593828  72.8223052  30.2766589 101.9549442  58.2209467  25.0636076
 101.6113711  59.1111108  24.9875186 102.3228405  58.0311124  24.2005661
  90.0235293  70.5442997  17.8824678  90.8610515  70.9540005  17.6658386
  90.2013560  69.6042439  17.8524872 101.9199725  68.2118078  13.5708511
 101.4046348  68.9822682  13.8096898 101.6477033  67.5383214  14.1941572
  99.5046836  63.0567778  18.6293749  98.6488432  62.6674629  18.4499388
  99.9173788  63.1359739  17.7693535 101.0345982  60.5914122  23.0285309
 100.5310778  60.5544257  22.2153114 101.3276589  61.5006864  23.0881966
  97.2788868  60.6752851  22.0351491  98.1441865  60.4795660  21.6757380
  97.3466377  60.4463203  22.9620848 106.8933999  70.9650432  15.5061684
 106.1163442  70.6261592  15.0616847 107.5725480  70.9703056  14.8316650
 101.7086028  66.0845170  15.3968292 101.4036164  66.3991319  16.2478435
 102.6616470  66.1626590  15.4395625 100.1532460  72.2435393  17.0461246
  99.6253821  71.5088153  16.7334484  99.6519963  73.0210069  16.8001214
 105.1325306  70.4384414  22.1628292 104.4748980  71.1283675  22.2508421
 105.9365705  70.8280846  22.5062279  94.8851187  62.9055059  19.4067858
  95.4594939  62.6830241  18.6741051  95.4722170  62.9743754  20.1596459
 103.9430765  68.7928786  20.2132234 104.4562646  69.4258778  20.7153944
 104.5931988  68.1929982  19.8475594  95.2120775  64.9359520  13.4263743
  94.3758087  65.2734207  13.7473018  95.0725544  64.8008500  12.4890880
  97.1873855  59.7796308  18.1342927  96.5338267  59.4645325  17.5099542
  97.1454329  59.1572049  18.8602750  98.2985060  70.0615603  10.0496219
  97.3912122  69.8304857  10.2487368  98.7956092  69.2653223  10.2370201
 100.4211595  66.2678242  22.4590575  99.5034157  66.4893189  22.3012263
 100.8371739  66.3424552  21.6002282 101.2046643  67.6669658  17.5893255
 101.9518462  68.1791055  17.2800377 101.4738233  67.3453710  18.4497649
  99.4773293  70.1628198  14.5720209  98.5684513  69.8787231  14.6692679
  99.5068377  70.5827277  13.7123516 104.7092561  73.7734788  18.3411377
 104.2554888  72.9325698  18.3976567 104.0786528  74.4096186  18.6786157
 103.6525480  64.7026774  19.5712044 102.9148237  64.1904160  19.9022287
 103.9052254  64.2627155  18.7595321 103.1525500  75.6111284  19.2761195
 103.4448474  76.1716342  18.5573561 103.6624121  75.9039845  20.0314354
 103.7537108  57.4803026  20.1653814 104.0595985  56.6200389  19.8779729
 104.4789713  58.0720646  19.9652807  90.0461464  67.8833712  18.5535411
  89.8485864  67.2903073  17.8286478  89.4908128  67.5785923  19.2711350
  98.0258187  67.7756819  20.6730005  98.0806797  66.8230655  20.5972481
  97.2149389  67.9316258  21.1571303  99.1749381  71.7036942  11.9108288
  98.7368811  70.9872801  11.4513925  99.9159822  71.9313057  11.3493379
  95.9650547  66.3933879  18.4320383  95.1518413  66.6928049  18.8385576
  96.4609542  65.9989567  19.1494866  98.1159125  76.3891636  20.3654648
  98.0735304  76.6152482  19.4363180  99.0321824  76.1555010  20.5140449
 101.5624759  66.8575703  27.2635277 101.9174147  67.0847176  28.1229743
 102.2096890  67.1894080  26.6412533 107.2922496  69.9794139  17.9684606
 107.1540395  70.1695735  17.0405796 106.9358715  70.7413522  18.4252658
 107.3191876  72.0470666  22.9795878 107.7528382  71.9545955  23.8278932
 108.0323456  72.0228166  22.3415894  96.2324926  73.2654665  20.1616611
  97.0265525  72.7704985  19.9599186  95.5216618  72.7372528  19.7984316
 101.0519771  75.6472760  24.5128979 101.1056793  76.2163696  25.2806694
 100.1834552  75.8174645  24.1483016  92.5407689  67.4097746  16.2376364
  91.6105278  67.3482202  16.4546326  92.6365161  66.8873699  15.4413005
  92.4593239  63.9352559  18.8254605  92.7200056  64.8497892  18.7163766
  93.2810411  63.4677002  18.9751218 108.1807425  72.0894367  25.5128763
 108.3743315  72.9940177  25.7588038 108.0808043  71.6301786  26.3467348
 103.2422534  72.2401109  31.0869644 103.0908040  72.0111661  30.1699728
 103.2327213  73.1971711  31.1000989 100.0107870  69.8133022  26.0715910
 100.9399930  69.9644182  25.8984878  99.5898900  69.9017043  25.2164557
  98.8096202  73.8383687  23.8414448  98.6707288  73.4702471  24.7140386
  98.0210798  74.3531326  23.6698406  99.4044354  78.9392783  15.1839985
  99.5796110  78.4680826  15.9985607  98.7177142  79.5658549  15.4121245
 100.3601417  73.2165289  21.2303286 100.0251250  73.1766059  22.1260936
  99.8605363  72.5510005  20.7573696 103.2960609  70.5621324  11.5040345
 102.6789779  69.8368152  11.4073398 102.8277097  71.3230684  11.1607420
  96.9627962  68.3352879  26.2439547  97.6727580  67.6946071  26.2026165
  96.9197270  68.5865773  27.1665727 104.9514740  75.2720232  29.1646126
 104.8927287  74.5879452  28.4976709 105.3534259  76.0139222  28.7126752
  93.9705439  82.0882146  21.9579845  94.2102038  82.7200670  22.6358863
  93.1274636  81.7370186  22.2445204  95.0859155  64.7806748  10.6261650
  94.2088621  64.6595549  10.2623896  95.5616908  63.9892826  10.3740538
 104.9532148  73.2359816  27.3960105 104.0658927  72.8985738  27.5186504
 105.5230699  72.5042847  27.6328871  86.6061295  69.5683908  20.7203157
  87.2932335  69.2545638  20.1324172  86.4509424  70.4725272  20.4470408
  98.4833301  77.8961268  24.3621349  98.4103473  78.7016240  24.8740653
  98.0410694  78.0953234  23.5369370  98.2723081  77.1333038  17.8724170
  97.4890603  77.6754718  17.9662395  98.9715826  77.6507018  18.2718411
 101.5819731  62.9427668  20.5158376 102.0788430  62.1897630  20.1959446
 100.8106712  62.9791984  19.9501585 109.4349488  68.6468033  22.1576667
 109.4239365  69.5292749  21.7870600 108.5666868  68.2939584  21.9631204
 100.9431985  77.7948102  26.5179507 101.6559957  78.4295567  26.4455409
 100.4522013  77.8911968  25.7019509 102.6649512  71.6999355  18.0896799
 101.7305790  71.8200817  17.9201503 102.8426180  70.7971822  17.8256809
  98.1654700  65.0845051  20.2430060  97.7952487  64.5316091  20.9310966
  98.6613792  64.4803184  19.6905060 106.0522063  67.5416674  18.6246833
 106.5182515  68.3744666  18.5507136 106.5029563  67.0761656  19.3292092
  95.9943898  75.5442546  27.3385078  96.6953358  76.1779029  27.4914472
  95.5239013  75.8857277  26.5780717 104.1198294  73.8860495  15.6232985
 104.3958138  73.7717090  16.5326859 103.2502793  73.4877980  15.5845158
 104.0238726  59.9097261  22.6637734 103.1101805  60.1401488  22.8319941
 104.4531827  59.9935705  23.5151767 103.7945184  68.0987153  25.1637629
 103.1416634  68.3463061  24.5090081 104.1725564  67.2851291  24.8300106
 100.7552358  78.1346846  19.2665799 100.9374753  77.3168502  19.7293551
 101.5785344  78.3514539  18.8290689 101.0894524  77.0615031  16.5280847
 101.6182290  76.5507486  15.9151009 101.3522743  76.7457562  17.3926380
  99.8432757  68.8406964  31.6503666  99.1673394  68.7401094  32.3206041
 100.6660391  68.6846178  32.1139663  91.5911616  75.0778901  24.2716181
  92.1765053  74.3322589  24.4044085  91.3936455  75.3882857  25.1552845
  94.4450271  78.1130148  19.2878623  93.7760647  78.5976276  18.8042663
  94.3063141  78.3599369  20.2022002  86.1829271  67.6484501  22.9920624
  86.2213371  67.1148092  23.7857742  85.6769564  67.1219706  22.3731601
  98.5855540  80.1473892  25.8861282  99.1373848  80.3105513  26.6510367
  98.9261734  80.7378329  25.2141306 103.4366414  74.9735149  31.7409936
 103.9806318  75.5865107  31.2464891 102.8553259  75.5314728  32.2576949
  89.8137849  66.3748603  16.0674555  90.1091290  65.4659282  16.0141609
  88.9125884  66.3536343  15.7455558 101.7223927  78.0955867  22.8724964
 101.5975067  77.2945607  22.3635909 102.3803018  78.5902061  22.3838934
  93.3432096  64.4504600  22.0502104  92.6218681  65.0640567  21.9109577
  94.1325351  64.9862364  21.9718750 103.7858836  75.8964887  24.5004514
 102.8389171  75.7770238  24.4282841 104.1341609  75.0087385  24.5830775
  91.5425690  64.0562701  16.1913881  91.2138396  63.1760080  16.0088986
  91.8965061  64.0010369  17.0790270 100.7905269  75.6917603  20.7008866
 100.6430231  74.7634311  20.8816436 101.6158763  75.7137694  20.2165941
  94.6567513  64.3435671  16.5589358  94.9963586  64.8721592  15.8367967
  95.1039634  64.6816077  17.3347925 104.3939391  76.5146162  21.7873739
 105.3185938  76.3089024  21.6498190 104.2254694  76.2662563  22.6963080
  98.0027426  59.8122034  24.4619749  98.8253495  59.3382512  24.3398640
  98.2465489  60.5912517  24.9618436  96.6435660  62.8410292  14.7582651
  97.3644023  63.2191545  14.2546368  96.0200965  63.5599169  14.8617629
 100.7866783  63.5455441  15.6940983 101.0030398  64.4280079  15.3929811
 100.3060850  63.1541655  14.9646625  95.5266005  66.5041154  22.2711728
  95.3810585  66.8181457  23.1636009  95.0491208  67.1226055  21.7182627
  97.3862388  63.4943702  22.3192617  97.3723956  62.5984796  21.9824915
  98.1034816  63.5014366  22.9530904  99.2388518  63.9281043  24.3645745
  98.9806296  64.8498113  24.3630075  98.7073559  63.5311477  25.0546209
 104.1834707  77.0331830  17.1435830 104.3571585  76.4678252  16.3909683
 104.6763598  77.8332725  16.9615320  90.0011667  69.0446499  25.2099389
  89.4565135  69.8206307  25.3419663  90.8791017  69.3917303  25.0518511
  96.7899284  62.3758083  17.5880188  96.9115195  61.4474729  17.7871075
  96.5001326  62.3896769  16.6758503  99.6590474  60.0612993  20.7246907
  99.6812171  60.1252326  19.7698887 100.0758533  59.2217502  20.9187414
 110.0374098  69.7968253  18.7626130 110.4805244  69.0475578  18.3645253
 109.1600609  69.7878389  18.3799862 105.1709880  76.3498594  14.2432729
 105.8660784  76.9705287  14.4620043 105.5133030  75.4993945  14.5185106
 107.0701303  73.7998300  15.7720059 107.5952627  74.1385572  15.0469379
 106.9823655  72.8645315  15.5883194  98.7321351  77.7132373  27.9009936
  99.0408478  77.4681520  28.7732636  99.5296833  77.9179012  27.4128806
  98.7541963  79.8670283  20.1315313  98.3146954  79.3746662  20.8248169
  99.5050080  79.3243251  19.8907388  91.2334302  76.0581824  20.1339941
  92.0592322  75.7585596  19.7538584  90.8828354  75.2889446  20.5829729
  96.2015836  75.4108292  22.2037614  95.5795845  74.7478997  21.9039842
  96.8720702  75.4369424  21.5211262  89.4342907  73.9768150  21.0928874
  88.5974816  73.5490325  20.9112875  89.4066553  74.1700594  22.0299665
 106.7595209  74.4331203  31.0771257 105.9690752  74.4155342  30.5375757
 106.5228563  74.9719497  31.8320294 106.8793084  71.2823670  28.3903986
 106.9291089  71.1173677  29.3319509 106.7707007  70.4150929  28.0001867
  95.7629342  73.9612215  15.6796075  95.9117463  74.6447680  15.0262747
  96.5695786  73.9417305  16.1945530 104.1696846  67.2654598  29.7063293
 105.0706709  67.1261062  29.4147290 104.2444821  67.4309052  30.6461470
 108.3811281  73.7020611  28.6346007 108.0896089  74.0650592  29.4709468
 107.7683412  72.9887619  28.4559339 109.5806963  71.2673491  21.1548578
 110.4153854  71.7063295  21.3186138 109.7166092  70.7912144  20.3356823
 106.6298469  68.8253226  27.1026065 107.1052590  69.0180872  26.2944917
 105.7064034  68.8812412  26.8569449  93.5181975  69.9877393  16.6857144
  93.2728017  69.0839723  16.8837354  93.6877890  69.9894543  15.7436622
 101.2078685  60.8601069  26.0681899 101.7260629  61.5962096  25.7428388
 100.8533818  61.1665063  26.9028658  92.7877623  65.7205751  14.1843305
  92.0946868  65.7950105  13.5283341  92.5429375  64.9566094  14.7064822
 101.4591280  57.2801352  21.5882796 101.7393033  56.6124541  22.2143222
 102.2441886  57.4730447  21.0757460  99.2624748  76.4560346  13.1507822
  98.6898715  77.0750533  12.6978294  99.8357542  77.0059707  13.6847744
 105.3300138  65.7018986  25.3354371 106.2817561  65.8017084  25.3566595
 105.1603588  64.9097254  25.8452455 103.3514517  62.7874569  25.5213772
 102.7564449  63.0679582  24.8260260 103.0664214  63.2768470  26.2930513
 102.4822008  76.7397496  14.2816404 103.4152681  76.6743058  14.4849280
 102.3945221  77.5753763  13.8230937 107.8088216  68.9225106  24.4496671
 107.7764536  67.9841106  24.6356354 108.4188839  69.0009142  23.7162495
  99.6471547  67.7921159  10.4923875 100.5930651  67.6627367  10.5612293
  99.2685791  67.0535820  10.9693303 107.9582704  65.7136149  24.4954954
 107.4421753  64.9294606  24.3084883 108.8422653  65.3854866  24.6601473
 105.6193431  59.4577165  20.4550766 105.4218252  59.1492253  21.3394098
 106.2293137  60.1838803  20.5848696 113.6264766  69.9841112  23.5902707
 114.3568154  69.7226400  24.1510411 113.0171711  69.2469834  23.6304775
 111.7080063  68.1248975  24.1877159 110.9813226  67.9904940  23.5793650
 111.2927350  68.4325804  24.9933877  99.5310239  71.8438905  31.9524532
 100.4513249  72.0217504  32.1464578  99.4959822  70.8994950  31.8004231
  97.8314464  65.7171135  10.4278760  96.9245919  65.4204248  10.5041473
  98.1090445  65.4200953   9.5613046  88.7492404  67.0377498  20.8777806
  88.4295188  66.1842806  20.5852180  88.2025832  67.2526076  21.6335774
  92.5272312  69.7539939  24.5947313  92.7458321  70.6857047  24.6135347
  92.9398085  69.3947914  25.3802117  99.4476529  60.2608025  16.5823001
  98.6377258  59.9155110  16.9578247 100.1360946  59.9515568  17.1710613
 101.3767078  59.3386071  18.2047298 101.9298116  59.7581525  18.8637321
 101.6137164  58.4121820  18.2470254  96.6013248  62.5758070  10.5690739
  97.4632412  62.9012968  10.8286556  96.7863592  61.7889566  10.0563805
  88.6180664  70.6580410  22.8470928  87.9244135  70.2434363  22.3340882
  89.3653655  70.7000946  22.2504347 104.7545885  61.4486597  17.7125962
 104.1744554  62.1071401  17.3304014 104.4881817  60.6263941  17.3013380
 103.2049451  60.8491654  19.9147282 103.7049230  60.9608189  19.1061601
 103.8485059  60.5452707  20.5548091  90.5317407  70.5898664  20.7236943
  90.5088095  70.6886351  19.7718826  90.8418043  71.4363814  21.0454109
  93.1904784  72.6474819  24.8383557  94.1448038  72.6158761  24.7713489
  92.9917308  72.1865442  25.6533783  93.7804167  71.2175935  27.4054355
  94.5997056  71.7120013  27.4289192  94.0540974  70.3007903  27.3771922
 103.5370763  63.6086687  16.7682310 102.6496618  63.8936338  16.5502505
 103.9524752  63.4480450  15.9209587 106.8885299  63.6333208  20.4836650
 107.6645689  64.1229660  20.7561266 106.1633433  64.0591262  20.9408519
 109.3257858  64.3460827  21.5410590 109.9202348  64.1056563  20.8303898
 109.3984441  63.6267958  22.1684126  91.5455013  78.1894438  21.8553755
  91.4109481  77.4294839  21.2891753  91.1287076  78.9135338  21.3882544
 102.6813976  73.3731362  10.8630330 103.3849826  73.5781364  11.4787986
 101.9576625  73.9408124  11.1279414 103.5111787  69.1241223  16.9832600
 103.4546988  69.5809774  16.1440233 104.0640129  68.3631907  16.8055443
 107.3216592  64.9130955  17.8082720 107.0653527  64.5127590  18.6390928
 106.6969460  65.6274749  17.6832859 111.6328930  67.6527028  20.3154011
 111.0728488  67.7220217  21.0885573 111.0272434  67.4768013  19.5953508
  94.7024139  79.0863755  22.0672198  94.5856523  80.0309188  21.9650888
  93.8816585  78.7837317  22.4557997 104.5900674  73.8113891  12.9128790
 105.4246278  73.3795089  12.7306265 104.4285017  73.6395905  13.8405685
 104.2446566  70.3146004  14.2785130 104.1895370  70.1490276  13.3373574
 103.6192621  71.0222037  14.4347319 101.5592473  72.6194916  33.6038692
 102.4283633  72.7935568  33.2425327 101.0799225  73.4389333  33.4814422
  97.5542691  59.8154113  13.8570448  97.5421361  60.7595953  14.0138719
  98.4466113  59.6324259  13.5629909  95.7278653  79.7392017  25.2828126
  96.6305900  79.7715627  25.5994621  95.5016023  78.8092468  25.2974462
  97.4832255  78.4923004  21.9438205  96.5327886  78.4924865  21.8302577
  97.7864741  77.7455738  21.4274239 101.3694811  56.4096890  18.1116385
 100.6027207  55.8555376  18.2573067 101.7805516  56.4818759  18.9730536
 113.2184949  84.3283542  23.0083967 113.8563359  84.2090289  22.3047307
 113.1005792  85.2764386  23.0671919 110.0274655  84.2810970  22.9445492
 109.6893167  84.1652035  22.0566027 110.8964423  83.8802135  22.9246498
 110.5094438  85.4345822  28.9031697 110.4983079  85.0398620  28.0312201
 110.6715078  84.7011894  29.4965469 103.4325903  87.6297638  21.7726603
 104.2247195  87.2888463  21.3572903 103.6722553  87.7392613  22.6928757
 107.2301699  88.2182934  27.8510881 106.9391565  89.1228564  27.7357548
 107.8658684  88.2599461  28.5654951 108.1557906  85.5959782  24.4412241
 108.7521478  85.3715804  23.7269204 108.2132878  84.8544528  25.0437689
 112.7726217  82.0534996  20.0837175 113.5589306  81.6354419  19.7327592
 113.0364922  82.9581088  20.2518824 115.6960065  75.7031803  25.4464762
 115.3643390  76.5727214  25.2225977 115.1005678  75.3868087  26.1258793
 112.1891584  87.9044349  24.8460675 111.8892307  88.8069388  24.7376482
 111.8442644  87.6376532  25.6981828 105.6404066  84.3558146  20.8797379
 104.7154562  84.2234360  21.0875071 105.8888479  85.1352365  21.3767322
 115.5888728  80.4226889  22.5258112 114.6805605  80.3542298  22.2316873
 115.5376324  80.8998834  23.3539938 103.0012877  83.9991419  21.7141168
 103.1305258  84.2525898  22.6280580 102.3210328  84.5919127  21.3945824
 109.6629594  81.8416535  30.4693010 108.8862928  82.4010455  30.4595874
 110.3020157  82.3273318  30.9907880 117.4550374  78.6243328  24.3035986
 116.8124755  78.9175861  23.6575781 116.9505303  78.5096248  25.1089183
 107.9175966  84.6501988  30.0310977 108.6590651  85.1887032  29.7545800
 107.2112952  85.2768277  30.1882528 113.3931306  86.7931129  28.6283138
 113.8014662  86.3513539  27.8837770 112.6708567  86.2183756  28.8817331
 109.7462376  81.7303735  26.0016695 110.5923571  82.1543149  26.1451344
 109.6861013  81.0737360  26.6955258 112.8961821  79.3908104  27.6597869
 112.6522753  80.1450164  27.1232144 113.1721752  79.7693451  28.4945116
 114.8500284  85.9346716  26.3375134 115.0617179  86.5778476  25.6609515
 114.8030032  85.1009033  25.8697064 112.4526513  78.5464537  23.2411706
 111.5910992  78.8445790  23.5328444 112.4788948  78.7634936  22.3092739
 106.1612163  86.6378209  22.5865275 106.7313520  87.0665477  21.9482760
 106.7520275  86.3560794  23.2849461 106.6537330  81.8041636  30.8326287
 106.0235990  82.4857917  31.0661683 106.5473418  81.6924718  29.8879425
 101.9482302  81.4713432  21.7592211 101.1581356  81.7270961  21.2832321
 102.4393550  82.2861770  21.8644251 103.8997048  81.8358012  18.7175687
 103.1028211  81.9476706  19.2359183 103.6722640  82.1744664  17.8516578
 109.7302715  88.3602715  26.6658202 109.7947148  88.8223122  27.5016374
 109.0213639  87.7300080  26.7940512 100.2320005  81.7243923  24.1907202
 100.4828044  82.6090933  24.4564778 100.7679554  81.5448524  23.4182293
 105.9318073  76.1062402  33.1951538 105.5385018  75.5528601  33.8699182
 106.7484213  76.4172981  33.5858055 108.8486034  77.5220281  30.7871794
 109.5895747  78.1227434  30.7076257 109.0803956  76.7797919  30.2289837
 103.9927372  82.7076649  29.0650024 103.8780887  81.8061906  29.3657123
 103.1371889  82.9540345  28.7134840 111.0719209  90.6494389  30.6637525
 110.6283064  89.8630767  30.3458429 111.7336423  90.8373539  29.9981415
 105.8306331  92.1790190  25.1898203 106.3813756  92.0507254  24.4175197
 104.9917806  92.4785080  24.8393096 113.1700447  90.9297189  28.6918926
 113.1518923  91.7506070  28.1999195 114.0920367  90.8051264  28.9169067
 109.6273502  88.4441318  29.5342434 110.1601838  87.6829606  29.3041742
 109.0987583  88.1514970  30.2766589 112.7943197  73.5501384  25.0636076
 112.4507466  74.4403026  24.9875186 113.1622159  73.3603042  24.2005661
 100.8629047  85.8734915  17.8824678 101.7004269  86.2831923  17.6658386
 101.0407315  84.9334357  17.8524872 110.3440590  78.3859696  18.6293749
 109.4882187  77.9966547  18.4499388 110.7567542  78.4651657  17.7693535
 111.8739737  75.9206039  23.0285309 111.3704533  75.8836175  22.2153114
 112.1670344  76.8298782  23.0881966 108.1182623  76.0044769  22.0351491
 108.9835620  75.8087578  21.6757380 108.1860132  75.7755121  22.9620848
 105.7244942  78.2346977  19.4067858 106.2988694  78.0122159  18.6741051
 106.3115924  78.3035672  20.1596459 108.0267610  75.1088226  18.1342927
 107.3732022  74.7937243  17.5099542 107.9848084  74.4863966  18.8602750
 111.2605350  81.5970160  22.4590575 110.3427911  81.8185107  22.3012263
 111.6765494  81.6716470  21.6002282 114.5930862  72.8094943  20.1653814
 114.8989739  71.9492307  19.8779729 115.3183467  73.4012564  19.9652807
 100.8855218  83.2125630  18.5535411 100.6879618  82.6194991  17.8286478
 100.3301882  82.9077840  19.2711350 108.8651942  83.1048737  20.6730005
 108.9200552  82.1522573  20.5972481 108.0543144  83.2608176  21.1571303
 106.8044302  81.7225796  18.4320383 105.9912167  82.0219967  18.8385576
 107.3003296  81.3281485  19.1494866 112.4018514  82.1867621  27.2635277
 112.7567901  82.4139094  28.1229743 113.0490645  82.5185998  26.6412533
 106.2958377  79.2944152  24.0481618 106.9357756  79.1532911  23.3504582
 105.4635907  79.0078665  23.6720220 111.8913525  90.9764678  24.5128979
 111.9450547  91.5455614  25.2806694 111.0228306  91.1466563  24.1483016
 103.2986993  79.2644477  18.8254605 103.5593810  80.1789810  18.7163766
 104.1204165  78.7968919  18.9751218 104.7711918  80.6782234  25.9953430
 105.4434972  80.4699596  25.3466079 103.9441705  80.4804320  25.5558662
 110.6737490  77.3044175  28.0119091 110.0265405  78.0034125  27.9183567
 111.4438506  77.7380319  28.3795339 114.0816288  87.5693027  31.0869644
 113.9301795  87.3403579  30.1699728 114.0720968  88.5263628  31.1000989
 110.8501625  85.1424940  26.0715910 111.7793685  85.2936099  25.8984878
 110.4292655  85.2308961  25.2164557 109.6489957  89.1675604  23.8414448
 109.5101042  88.7994389  24.7140386 108.8604553  89.6823244  23.6698406
 105.1739416  83.9524837  26.7555867 105.0359214  83.2205076  27.3567406
 106.0844339  83.8633737  26.4740055 107.8021716  83.6644796  26.2439547
 108.5121335  83.0237988  26.2026165 107.7591024  83.9157691  27.1665727
 115.7908495  90.6012150  29.1646126 115.7321041  89.9171370  28.4976709
 116.1928013  91.3431140  28.7126752 106.5150650  80.6510014  28.0635186
 105.9788007  80.2000753  28.7156782 105.9267359  80.7855923  27.3205650
 115.7925902  88.5651734  27.3960105 114.9052681  88.2277655  27.5186504
 116.3624453  87.8334765  27.6328871  97.4455049  84.8975825  20.7203157
  98.1326089  84.5837555  20.1324172  97.2903178  85.8017190  20.4470408
 102.2489772  79.7866022  25.1488181 102.1647960  79.1791691  24.4138590
 101.4272478  80.2775040  25.1497677 112.4213485  78.2719585  20.5158376
 112.9182185  77.5189548  20.1959446 111.6500467  78.3083902  19.9501585
 111.7825739  93.1240020  26.5179507 112.4953711  93.7587485  26.4455409
 111.2915768  93.2203886  25.7019509 109.0048454  80.4136968  20.2430060
 108.6346242  79.8608009  20.9310966 109.5007547  79.8095102  19.6905060
 106.8337653  90.8734463  27.3385078 107.5347112  91.5070946  27.4914472
 106.3632768  91.2149195  26.5780717 114.8632480  75.2389179  22.6637734
 113.9495560  75.4693406  22.8319941 115.2925582  75.3227623  23.5151767
 114.6338939  83.4279071  25.1637629 113.9810389  83.6754978  24.5090081
 115.0119319  82.6143209  24.8300106 110.6826512  84.1698882  31.6503666
 110.0067149  84.0693011  32.3206041 111.5054146  84.0138096  32.1139663
 102.4305371  90.4070818  24.2716181 103.0158808  89.6614506  24.4044085
 102.2330209  90.7174775  25.1552845  97.0223025  82.9776419  22.9920624
  97.0607125  82.4440009  23.7857742  96.5163318  82.4511624  22.3731601
 104.4013788  77.8240959  26.4883166 104.4655114  78.6855790  26.0760564
 104.3380908  77.2114961  25.7555525 103.8766060  79.8964092  30.1356201
 104.5038099  79.5141169  30.7493725 103.0193979  79.6778294  30.5011893
 114.2760169  90.3027067  31.7409936 114.8200073  90.9157025  31.2464891
 113.6947014  90.8606645  32.2576949 100.6531603  81.7040521  16.0674555
 100.9485044  80.7951199  16.0141609  99.7519639  81.6828260  15.7455558
 104.1825850  79.7796517  22.0502104 103.4612436  80.3932485  21.9109577
 104.9719106  80.3154282  21.9718750 106.9852164  77.1150944  28.3242756
 107.5086565  77.3613240  29.0869065 106.7664497  77.9470979  27.9045893
 102.3819445  79.3854618  16.1913881 102.0532151  78.5051997  16.0088986
 102.7358815  79.3302287  17.0790270 105.4961268  79.6727588  16.5589358
 105.8357340  80.2013509  15.8367967 105.9433388  80.0107994  17.3347925
 108.1904709  78.0564639  26.0092426 107.8501529  77.2572452  26.4113106
 107.4843715  78.3566350  25.4369259 108.8421180  75.1413951  24.4619749
 109.6647250  74.6674430  24.3398640 109.0859244  75.9204435  24.9618436
 106.3659759  81.8333072  22.2711728 106.2204340  82.1473375  23.1636009
 105.8884963  82.4517972  21.7182627 108.2256142  78.8235620  22.3192617
 108.2117711  77.9276713  21.9824915 108.9428570  78.8306284  22.9530904
 110.0782273  79.2572960  24.3645745 109.8200051  80.1790031  24.3630075
 109.5467313  78.8603395  25.0546209 100.8405421  84.3738416  25.2099389
 100.2958889  85.1498224  25.3419663 101.7184771  84.7209221  25.0518511
 107.6293038  77.7050000  17.5880188 107.7508949  76.7766646  17.7871075
 107.3395080  77.7188686  16.6758503 110.4984228  75.3904911  20.7246907
 110.5205925  75.4544244  19.7698887 110.9152287  74.5509419  20.9187414
 101.6271443  83.5008313  28.1029546 100.8853179  83.6490948  28.6894176
 101.3064188  83.7616578  27.2396295 109.5715106  93.0424291  27.9009936
 109.8802232  92.7973438  28.7732636 110.3690588  93.2470929  27.4128806
 100.2736662  89.3060068  21.0928874  99.4368570  88.8782242  20.9112875
 100.2460307  89.4992511  22.0299665 107.1134118  79.2181998  31.7970120
 107.1622273  80.0944120  31.4147890 107.6556632  78.6759391  31.2241763
 117.5988963  89.7623121  31.0771257 116.8084507  89.7447260  30.5375757
 117.3622318  90.3011415  31.8320294 117.7186838  86.6115587  28.3903986
 117.7684843  86.4465595  29.3319509 117.6100762  85.7442846  28.0001867
 115.0090601  82.5946515  29.7063293 115.9100463  82.4552980  29.4147290
 115.0838575  82.7600970  30.6461470 109.3433406  79.9713370  28.5516479
 108.4736715  80.2646936  28.2799067 109.5792886  80.5553815  29.2723742
 119.2205035  89.0312529  28.6346007 118.9289843  89.3942509  29.4709468
 118.6077166  88.3179537  28.4559339 117.4692223  84.1545143  27.1026065
 117.9446345  84.3472790  26.2944917 116.5457789  84.2104329  26.8569449
 112.0472440  76.1892987  26.0681899 112.5654384  76.9254014  25.7428388
 111.6927573  76.4956980  26.9028658 112.2985034  72.6093270  21.5882796
 112.5786788  71.9416459  22.2143222 113.0835641  72.8022365  21.0757460
 116.1693892  81.0310904  25.3354371 117.1211315  81.1309001  25.3566595
 115.9997343  80.2389172  25.8452455 114.1908272  78.1166487  25.5213772
 113.5958204  78.3971499  24.8260260 113.9057969  78.6060388  26.2930513
 118.6481970  84.2517023  24.4496671 118.6158290  83.3133024  24.6356354
 119.2582594  84.3301060  23.7162495 118.7976459  81.0428067  24.4954954
 118.2815507  80.2586523  24.3084883 119.6816407  80.7146783  24.6601473
 116.4587186  74.7869082  20.4550766 116.2612007  74.4784170  21.3394098
 117.0686891  75.5130721  20.5848696 110.3703994  87.1730822  31.9524532
 111.2907003  87.3509421  32.1464578 110.3353577  86.2286868  31.8004231
  99.5886159  82.3669416  20.8777806  99.2688943  81.5134724  20.5852180
  99.0419587  82.5817994  21.6335774 103.3666066  85.0831857  24.5947313
 103.5852076  86.0148965  24.6135347 103.7791840  84.7239831  25.3802117
 110.2870284  75.5899942  16.5823001 109.4771012  75.2447027  16.9578247
 110.9754701  75.2807486  17.1710613 112.2160832  74.6677989  18.2047298
 112.7691871  75.0873443  18.8637321 112.4530919  73.7413737  18.2470254
 108.2393931  80.6565063  33.9850062 108.1390658  81.6059420  33.9162153
 108.0215473  80.3283302  33.1126132  99.4574419  85.9872327  22.8470928
  98.7637890  85.5726280  22.3340882 100.2047410  86.0292864  22.2504347
 114.0443206  76.1783572  19.9147282 114.5442984  76.2900106  19.1061601
 114.6878814  75.8744625  20.5548091 108.1025201  84.0862202  32.8015123
 107.6192283  84.8862562  33.0079012 108.1886141  84.0970146  31.8482567
 101.3711161  85.9190581  20.7236943 101.3481849  86.0178269  19.7718826
 101.6811798  86.7655732  21.0454109 104.0298539  87.9766736  24.8383557
 104.9841793  87.9450679  24.7713489 103.8311063  87.5157360  25.6533783
 104.6197921  86.5467852  27.4054355 105.4390810  87.0411931  27.4289192
 104.8934729  85.6299820  27.3771922 117.7279053  78.9625126  20.4836650
 118.5039444  79.4521578  20.7561266 117.0027188  79.3883180  20.9408519
  99.8732835  80.8805986  28.1046552 100.5191699  80.3704940  28.5933777
  99.6649986  81.6174668  28.6789977 112.3986228  87.9486834  33.6038692
 113.2677387  88.1227486  33.2425327 111.9192979  88.7681250  33.4814422
 106.5672408  95.0683935  25.2828126 107.4699654  95.1007545  25.5994621
 106.3409778  94.1384386  25.2974462 112.2088565  71.7388807  18.1116385
 111.4420961  71.1847294  18.2573067 112.6199270  71.8110676  18.9730536
 104.2130326  78.0273603  32.2021566 105.0761788  77.6710408  32.4124891
 103.6395737  77.6887498  32.8896970 116.7711827  91.4354320  33.1951538
 116.3778773  90.8820518  33.8699182 117.5877967  91.7464898  33.5858055
 119.6879788  92.8512199  30.7871794 120.4289501  93.4519352  30.7076257
 119.9197711  92.1089837  30.2289837 114.7159815  95.2256009  30.1356201
 115.3431854  94.8433087  30.7493725 113.8587734  95.0070211  30.5011893
 117.9527872  94.5473915  31.7970120 118.0016028  95.4236038  31.4147890
 118.4950386  94.0051308  31.2241763 119.0787686  95.9856980  33.9850062
 118.9784413  96.9351337  33.9162153 118.8609228  95.6575219  33.1126132
 110.7126590  96.2097904  28.1046552 111.3585453  95.6996858  28.5933777
 110.5043741  96.9466586  28.6789977 115.0524081  93.3565521  32.2021566
 115.9155542  93.0002326  32.4124891 114.4789491  93.0179416  32.8896970
  67.7144193   6.3388841  17.3882831  67.2708047   5.5525219  17.0703736
  68.3761406   6.5267991  16.7226722  69.8125431   6.6191641  15.4164232
  69.7943906   7.4400522  14.9244502  70.7345351   6.4945716  15.6414374
  70.7241272   3.2587479  17.8114951  70.5726778   3.0298031  16.8945034
  70.7145951   4.2158080  17.8246296  72.4333478   6.2906601  15.8891432
  72.3746024   5.6065822  15.2222015  72.8352997   7.0325591  15.4372058
  70.9185152   5.9921519  18.4655243  71.4625056   6.6051477  17.9710197
  70.3371997   6.5501097  18.9822256  74.2413947   5.4517573  17.8016564
  73.4509490   5.4341712  17.2621063  74.0047301   5.9905866  18.5565601
  75.8630018   4.7206981  15.3591314  75.5714827   5.0836961  16.1954775
  75.2502150   4.0073989  15.1804646  69.0411211   3.6381286  20.3283999
  69.9102370   3.8121938  19.9670634  68.5617962   4.4575702  20.2059728
  80.7003687  15.3469912   9.7329274  81.3382097  15.2276659   9.0292614
  80.5824529  16.2950755   9.7917226  77.5093393  15.2997340   9.6690798
  77.1711904  15.1838404   8.7811333  78.3783161  14.8988505   9.6491805
  77.9913176  16.4532191  15.6277004  77.9801817  16.0584990  14.7557508
  78.1533815  15.7198264  16.2210775  70.9144640  18.6484008   8.4971910
  71.7065932  18.3074832   8.0818209  71.1541291  18.7578983   9.4174063
  74.7120437  19.2369303  14.5756188  74.4210303  20.1414934  14.4602854
  75.3477421  19.2785831  15.2900258  75.6376644  16.6146152  11.1657548
  76.2340216  16.3902174  10.4514511  75.6951615  15.8730897  11.7682995
  83.1778803   6.7218173  12.1710069  82.8462127   7.5913584  11.9471284
  82.5824416   6.4054457  12.8504099  79.6710322  18.9230719  11.5705982
  79.3711045  19.8255757  11.4621789  79.3261382  18.6562902  12.4227135
  83.0707466  11.4413259   9.2503419  82.1624343  11.3728667   8.9562180
  83.0195062  11.9185204  10.0785244  74.6531102  25.6875039   4.5376949
  74.5755132  26.6382864   4.6165430  74.0492745  25.3420911   5.1951876
  77.1448332  12.8602904  17.1938316  76.3681666  13.4196825  17.1841181
  77.7838895  13.3459687  17.7153186  84.9369112   9.6429697  11.0281293
  84.2943492   9.9362230  10.3821087  84.4324041   9.5282618  11.8334490
  75.3994704  15.6688358  16.7556283  76.1409388  16.2073402  16.4791107
  74.6931689  16.2954647  16.9127835  80.8750044  17.8117498  15.3528445
  81.2833400  17.3699909  14.6083077  80.1527305  17.2370126  15.6062638
  77.2281114  12.7490105  12.7262002  78.0742309  13.1729519  12.8696651
  77.1679751  12.0923729  13.4200565  81.1978858  18.3718689   9.1080734
  80.5687721  18.5364403   8.4056801  80.8104520  18.7860298   9.8791698
  85.0768090  19.3073127   6.4625097  84.3919128  19.6872028   5.9122131
  85.1611939  19.9168453   7.1957045  80.3780559  10.4094473  14.3843175
  80.1341491  11.1636534  13.8477451  80.6540489  10.7879821  15.2190422
  82.3319022  16.9533086  13.0620441  82.5435917  17.5964846  12.3854822
  82.2848770  16.1195402  12.5942371  76.7506820  18.1093097   6.3730819
  77.2145166  18.3880800   5.5835441  76.4863618  17.2076542   6.1903909
  73.6430901  17.6564579   9.3110582  74.2132258  18.0851847   8.6728066
  74.2339013  17.3747163  10.0094768  74.1356068  12.8228006  17.5571593
  73.5054728  13.5044287  17.7906990  74.0292156  12.7111088  16.6124731
  83.4464850  19.8305041  11.2342798  84.2682293  19.4285228  10.9525480
  83.4427253  19.7273275  12.1858914  77.2121453  19.3789084  13.3903509
  77.2765886  19.8409492  14.2261681  76.5032377  18.7486449  13.5185819
  73.4136810   7.1248772  19.9196844  73.0203756   6.5714970  20.5944489
  74.2302951   7.4359350  20.3103362  72.1893753  21.6798386   5.9133167
  72.3660381  22.6016351   5.7254151  72.9850586  21.3656805   6.3427547
  76.3304771   8.5406651  17.5117101  77.0714485   9.1413804  17.4321563
  76.5622694   7.7984289  16.9535143  71.4746109  13.7263018  15.7895331
  71.3599625  12.8248275  16.0902429  70.6190627  13.9726715  15.4380147
  78.5537947  21.6680758  17.3882831  78.1101801  20.8817137  17.0703736
  79.2155161  21.8559909  16.7226722  73.3125068  23.1976560  11.9143510
  73.8632493  23.0693623  11.1420504  72.4736544  23.4971449  11.5638402
  80.6519185  21.9483558  15.4164232  80.6337661  22.7692439  14.9244502
  81.5739105  21.8237634  15.6414374  77.1092239  19.4627688  16.2587741
  77.6420576  18.7015976  16.0287049  76.5806320  19.1701340  17.0011895
  83.4537798  16.7862701   8.8873599  82.7961473  17.4761962   8.9753728
  84.2578197  17.1759133   9.2307585  82.2643257  15.1407074   6.9377541
  82.7775139  15.7737065   7.4399251  82.9144481  14.5408269   6.5720901
  78.7424088  12.6156529   9.1835881  77.8246649  12.8371476   9.0257569
  79.1584231  12.6902840   8.3247589  83.0305053  20.1213075   5.0656683
  82.5767380  19.2803985   5.1221874  82.3999020  20.7574473   5.4031464
  81.4737992  21.9589572   6.0006502  81.7660967  22.5194629   5.2818867
  81.9836613  22.2518133   6.7559661  76.4371618  22.7369923   7.0899955
  76.3947796  22.9630769   6.1608487  77.3534316  22.5033297   7.2385756
  79.8837251  13.2053990  13.9880584  80.2386639  13.4325463  14.8475050
  80.5309383  13.5372367  13.3657839  85.6404368  18.3948953   9.7041185
  86.0740875  18.3024242  10.5524239  86.3535949  18.3706454   9.0661201
  74.5537418  19.6132952   6.8861918  75.3478017  19.1183272   6.6844493
  73.8429111  19.0850815   6.5229623  79.3732263  21.9951047  11.2374285
  79.4269285  22.5641984  12.0052001  78.5047044  22.1652932  10.8728322
  72.2530656  11.6968604  12.7198736  72.9253710  11.4885966  12.0711385
  71.4260443  11.4990690  12.2803969  86.5019917  18.4372654  12.2374070
  86.6955808  19.3418464  12.4833345  86.4020536  17.9780073  13.0712655
  78.1556228   8.3230544  14.7364397  77.5084143   9.0220494  14.6428874
  78.9257244   8.7566688  15.1040646  81.5635026  18.5879397  17.8114951
  81.4120533  18.3589948  16.8945034  81.5539706  19.5449998  17.8246296
  78.3320363  16.1611309  12.7961217  79.2612423  16.3122469  12.6230184
  77.9111393  16.2495330  11.9409864  77.1308694  20.1861974  10.5659755
  76.9919780  19.8180758  11.4385693  76.3423291  20.7009613  10.3943712
  77.7256846  25.2871070   1.9085291  77.9008602  24.8159113   2.7230914
  77.0389634  25.9136836   2.1366552  78.6813909  19.5643576   7.9548592
  78.3463742  19.5244346   8.8506242  78.1817855  18.8988292   7.4819003
  72.6558153  14.9711206  13.4801174  72.5177951  14.2391445  14.0812713
  73.5663077  14.8820107  13.1985361  75.2840454  14.6831166  12.9684853
  75.9940073  14.0424358  12.9271472  75.2409762  14.9344061  13.8911034
  83.2727233  21.6198519  15.8891432  83.2139779  20.9357739  15.2222015
  83.6746751  22.3617509  15.4372058  73.9969388  11.6696384  14.7880493
  73.4606745  11.2187122  15.4402089  73.4086097  11.8042293  14.0450957
  72.2917932  28.4360433   8.6825151  72.5314530  29.0678957   9.3604170
  71.4487128  28.0848473   8.9690511  83.2744640  19.5838103  14.1205412
  82.3871419  19.2464025  14.2431811  83.8443191  18.8521134  14.3574178
  76.8045793  24.2439555  11.0866655  76.7315965  25.0494527  11.5985960
  76.3623187  24.4431521  10.2614677  76.5935573  23.4811325   4.5969477
  75.8103095  24.0233006   4.6907701  77.2928318  23.9985305   4.9963718
  79.2644477  24.1426389  13.2424814  79.9772449  24.7773854  13.1700715
  78.7734506  24.2390255  12.4264816  80.9862004  18.0477642   4.8142106
  80.0518283  18.1679105   4.6446810  81.1638672  17.1450109   4.5502115
  74.3156390  21.8920833  14.0630385  75.0165850  22.5257316  14.2159779
  73.8451505  22.2335564  13.3026024  82.1157676  14.4465440  11.8882935
  81.4629127  14.6941348  11.2335388  82.4938056  13.6329579  11.5545412
  79.0764850  24.4825134   5.9911105  79.2587245  23.6646789   6.4538858
  79.8997836  24.6992826   5.5535995  79.4107016  23.4093319   3.2526154
  79.9394782  22.8985773   2.6396316  79.6735235  23.0935849   4.1171687
  78.1645249  15.1885251  18.3748972  77.4885886  15.0879381  19.0451347
  78.9872883  15.0324465  18.8384969  69.9124109  21.4257188  10.9961487
  70.4977545  20.6800876  11.1289392  69.7148947  21.7361145  11.8798151
  72.7662764  24.4608435   6.0123930  72.0973139  24.9454563   5.5287970
  72.6275633  24.7077656   6.9267308  76.9068032  26.4952179  12.6106588
  77.4586340  26.6583800  13.3755673  77.2474226  27.0856617  11.9386613
  71.3584798  10.9150461  16.8601507  71.9856837  10.5327539  17.4739032
  70.5012717  10.6964663  17.2257200  81.7578907  21.3213436  18.4655243
  82.3018811  21.9343395  17.9710197  81.1765752  21.8793015  18.9822256
  80.0436420  24.4434154   9.5970270  79.9187559  23.6423894   9.0881216
  80.7015511  24.9380348   9.1084240  82.1071328  22.2443175  11.2249820
  81.1601664  22.1248526  11.1528147  82.4554101  21.3565673  11.3076082
  74.4670901   8.1337313  15.0488062  74.9905303   8.3799610  15.8114372
  74.2483235   8.9657348  14.6291200  79.1117761  22.0395891   7.4254173
  78.9642724  21.1112598   7.6061743  79.9371255  22.0615981   6.9411248
  82.7151883  22.8624449   8.5119045  83.6398431  22.6567311   8.3743497
  82.5467187  22.6140851   9.4208387  75.6723446   9.0751009  12.7337733
  75.3320267   8.2758822  13.1358413  74.9662453   9.3752719  12.1614566
  77.5601011  10.2759330  11.0891052  77.3018788  11.1976400  11.0875382
  77.0286051   9.8789764  11.7791516  82.5047199  23.3810117   3.8681137
  82.6784077  22.8156539   3.1154989  82.9976091  24.1811012   3.6860627
  68.3224159  15.3924786  11.9344696  67.7777627  16.1684594  12.0664970
  69.2003509  15.7395590  11.7763817  69.1090181  14.5194682  14.8274853
  68.3671917  14.6677318  15.4139483  68.7882925  14.7802948  13.9641602
  77.0533844  24.0610660  14.6255243  77.3620970  23.8159807  15.4977942
  77.8509326  24.2657299  14.1374113  77.0754456  26.2148570   6.8560619
  76.6359446  25.7224949   7.5493476  77.8262573  25.6721538   6.6152694
  69.5546795  22.4060111   6.8585247  70.3804815  22.1063883   6.4783891
  69.2040847  21.6367733   7.3075036  74.5228328  21.7586579   8.9282921
  73.9008337  21.0957284   8.6285149  75.1933195  21.7847711   8.2456569
  74.5952855  10.2368367  18.5215427  74.6441011  11.1130490  18.1393196
  75.1375370   9.6945760  17.9487070  85.0807701  20.7809490  17.8016564
  84.2903245  20.7633629  17.2621063  84.8441056  21.3197784  18.5565601
  85.2005576  17.6301957  15.1149292  85.2503581  17.4651964  16.0564815
  85.0919499  16.7629216  14.7247173  82.4909338  13.6132885  16.4308599
  83.3919201  13.4739350  16.1392597  82.5657313  13.7787340  17.3706777
  76.8252144  10.9899740  15.2761785  75.9555453  11.2833306  15.0044374
  77.0611624  11.5740185  15.9969049  86.7023773  20.0498898  15.3591314
  86.4108581  20.4128879  16.1954775  86.0895904  19.3365907  15.1804646
  84.9510961  15.1731513  13.8271372  85.4265083  15.3659159  13.0190223
  84.0276527  15.2290699  13.5814756  79.5291178   7.2079357  12.7927206
  80.0473122   7.9440383  12.4673694  79.1746310   7.5143350  13.6273965
  83.6512630  12.0497273  12.0599678  84.6030053  12.1495371  12.0811902
  83.4816081  11.2575542  12.5697762  81.6727010   9.1352856  12.2459079
  81.0776942   9.4157869  11.5505567  81.3876706   9.6246757  13.0175820
  86.1300708  15.2703393  11.1741977  86.0977028  14.3319394  11.3601661
  86.7401332  15.3487429  10.4407802  77.8522731  18.1917192  18.6769838
  78.7725741  18.3695791  18.8709885  77.8172314  17.2473237  18.5249538
  70.8484804  16.1018227  11.3192619  71.0670814  17.0335334  11.3380653
  71.2610578  15.7426201  12.1047423  75.7212669  11.6751432  20.7095368
  75.6209396  12.6245789  20.6407459  75.5034211  11.3469671  19.8371438
  75.5843939  15.1048571  19.5260430  75.1011021  15.9048931  19.7324319
  75.6704878  15.1156516  18.5727874  71.5117277  18.9953106  11.5628864
  72.4660530  18.9637048  11.4958795  71.3129800  18.5343730  12.3779090
  72.1016659  17.5654222  14.1299661  72.9209548  18.0598301  14.1534499
  72.3753467  16.6486190  14.1017229  69.8667506  24.5372725   8.5799062
  69.7321973  23.7773126   8.0137060  69.4499568  25.2613625   8.1127851
  73.0236631  25.4342042   8.7917504  72.9069016  26.3787475   8.6896195
  72.2029078  25.1315604   9.1803304  67.3551573  11.8992356  14.8291859
  68.0010437  11.3891310  15.3179084  67.1468724  12.6361037  15.4035284
  79.8804965  18.9673203  20.3283999  80.7496125  19.1413856  19.9670634
  79.4011717  19.7867620  20.2059728  74.0491146  26.0870304  12.0073433
  74.9518392  26.1193915  12.3239928  73.8228516  25.1570755  12.0219769
  75.8044748  24.8401291   8.6683511  74.8540379  24.8403152   8.5547884
  76.1077234  24.0934025   8.1519546  71.6949064   9.0459973  18.9266873
  72.5580526   8.6896778  19.1370197  71.1214475   8.7073868  19.6142277
  91.5397441  30.6761829   9.7329274  92.1775851  30.5568577   9.0292614
  91.4218284  31.6242673   9.7917226  88.3487147  30.6289257   9.6690798
  88.0105659  30.5130322   8.7811333  89.2176916  30.2280422   9.6491805
  84.2073963  32.4824734   5.6587689  83.6438828  32.3914671   4.8903977
  84.0926358  31.6624638   6.1390182  88.8306930  31.7824109  15.6277004
  88.8195571  31.3876907  14.7557508  88.9927570  31.0490182  16.2210775
  81.7538395  33.9775925   8.4971910  82.5459687  33.6366750   8.0818209
  81.9935045  34.0870900   9.4174063  89.7873522  36.1495701   0.9702154
  89.1361501  36.7349782   0.5836168  90.5817885  36.6801896   1.0297192
  83.7129149  33.2384839   1.3689289  84.4860025  32.6913826   1.2302164
  84.0654548  34.1029088   1.5803750  85.5514191  34.5661221  14.5756188
  85.2604057  35.4706852  14.4602854  86.1871176  34.6077748  15.2900258
  86.4770398  31.9438069  11.1657548  87.0733971  31.7194092  10.4514511
  86.5345370  31.2022815  11.7682995  91.0938710  28.4013283   6.8082482
  91.8801799  27.9832706   6.4572899  91.3577414  29.3059375   6.9764130
  85.7691715  31.3005611   1.2032114  85.6527974  30.6250514   1.8713198
  85.8793975  30.8137985   0.3864267  88.1123256  30.7615758   4.9078803
  87.7481464  30.2346379   5.6191724  88.9690372  30.3714227   4.7345288
  94.0172557  22.0510090  12.1710069  93.6855882  22.9205501  11.9471284
  93.4218170  21.7346374  12.8504099  90.5104077  34.2522636  11.5705982
  90.2104800  35.1547675  11.4621789  90.1655136  33.9854820  12.4227135
  83.9616558  30.7036433   7.6042686  83.0367054  30.5712647   7.8120378
  84.2100971  31.4830652   8.1012628  93.9101220  26.7705177   9.2503419
  93.0018098  26.7020585   8.9562180  93.8588816  27.2477121  10.0785244
  81.3225369  30.3469707   8.4386475  81.4517750  30.6004186   9.3525887
  80.6422820  30.9397415   8.1191130  85.4924856  41.0166957   4.5376949
  85.4148886  41.9674782   4.6165430  84.8886500  40.6712829   5.1951876
  87.9842086  28.1894822  17.1938316  87.2075420  28.7488742  17.1841181
  88.6232649  28.6751605  17.7153186  95.7762867  24.9721615  11.0281293
  95.1337247  25.2654148  10.3821087  95.2717795  24.8574535  11.8334490
  86.2388458  30.9980275  16.7556283  86.9803143  31.5365319  16.4791107
  85.5325444  31.6246564  16.9127835  91.7143798  33.1409416  15.3528445
  92.1227154  32.6991826  14.6083077  90.9921060  32.5662043  15.6062638
  88.0674868  28.0782023  12.7262002  88.9136063  28.5021436  12.8696651
  88.0073506  27.4215647  13.4200565  92.0372613  33.7010607   9.1080734
  91.4081475  33.8656321   8.4056801  91.6498275  34.1152216   9.8791698
  95.9161845  34.6365044   6.4625097  95.2312883  35.0163946   5.9122131
  96.0005694  35.2460371   7.1957045  91.2174313  25.7386391  14.3843175
  90.9735245  26.4928452  13.8477451  91.4934244  26.1171739  15.2190422
  93.1712776  32.2825003  13.0620441  93.3829671  32.9256763  12.3854822
  93.1242524  31.4487320  12.5942371  90.7739005  24.8942824   9.9657013
  89.9123484  25.1924078  10.2573751  90.8001440  25.1113223   9.0338046
  87.5900575  33.4385015   6.3730819  88.0538920  33.7172718   5.5835441
  87.3257373  32.5368459   6.1903909  84.4824656  32.9856496   9.3110582
  85.0526013  33.4143765   8.6728066  85.0732767  32.7039081  10.0094768
  86.5269461  29.5608167   3.1820384  87.2293504  30.0129211   3.6494310
  86.1950089  28.9191986   3.8100277  84.9749822  28.1519924  17.5571593
  84.3448483  28.8336204  17.7906990  84.8685910  28.0403005  16.6124731
  80.2694795  27.8191720   8.4837517  79.4793849  28.0749248   8.0077628
  80.7606042  28.6340058   8.5889558  94.2858604  35.1596959  11.2342798
  95.1076048  34.7577146  10.9525480  94.2821007  35.0565193  12.1858914
  82.2209540  28.1836299   5.4420994  81.4240703  28.2954993   5.9604490
  81.9935132  28.5222951   4.5761885  88.0515208  34.7081002  13.3903509
  88.1159640  35.1701409  14.2261681  87.3426131  34.0778367  13.5185819
  78.5532498  28.0722210  10.9152508  78.8040536  28.9569220  11.1810084
  79.0892046  27.8926812  10.1427600  87.7663225  36.3749110   3.2582489
  87.6308900  37.2200645   3.6867337  88.3073038  36.5768387   2.4948423
  84.2530565  22.4540689  19.9196844  83.8597510  21.9006888  20.5944489
  85.0696705  22.7651268  20.3103362  81.2192623  33.8924548   3.8310414
  81.7317143  34.6867798   3.9815979  81.8715335  33.1950838   3.7644016
  83.0287507  37.0090304   5.9133167  83.2054136  37.9308269   5.7254151
  83.8244341  36.6948723   6.3427547  87.1698526  23.8698569  17.5117101
  87.9108239  24.4705722  17.4321563  87.4016449  23.1276206  16.9535143
  82.3139864  29.0554936  15.7895331  82.1993379  28.1540193  16.0902429
  81.4584382  29.3018633  15.4380147  89.3931702  36.9972676  17.3882831
  88.9495556  36.2109055  17.0703736  90.0548915  37.1851827  16.7226722
  84.1518823  38.5268478  11.9143510  84.7026248  38.3985541  11.1420504
  83.3130299  38.8263367  11.5638402  91.4912940  37.2775476  15.4164232
  91.4731415  38.0984357  14.9244502  92.4132860  37.1529551  15.6414374
  87.9485994  34.7919606  16.2587741  88.4814331  34.0307894  16.0287049
  87.4200075  34.4993257  17.0011895  91.1155689  19.8979672  11.7881383
  90.7719958  20.7881313  11.7120493  91.4834651  19.7081329  10.9250968
  79.1841539  32.2213202   4.6069985  80.0216761  32.6310210   4.3903692
  79.3619807  31.2812644   4.5770179  90.1952229  22.2684327   9.7530616
  89.6917025  22.2314462   8.9398421  90.4882836  23.1777069   9.8127272
  86.4395115  22.3523056   8.7596798  87.3048112  22.1565865   8.4002687
  86.5072624  22.1233408   9.6866154  89.3138707  33.9205598   3.7706553
  88.7860068  33.1858358   3.4579790  88.8126209  34.6980274   3.5246521
  94.2931553  32.1154619   8.8873599  93.6355227  32.8053880   8.9753728
  95.0971952  32.5051050   9.2307585  84.0457434  24.5825264   6.1313164
  84.6201186  24.3600446   5.3986357  84.6328417  24.6513959   6.8841766
  93.1037011  30.4698991   6.9377541  93.6168893  31.1028983   7.4399251
  93.7538235  29.8700187   6.5720901  90.3659386  40.4483315  -0.3061788
  89.6921084  40.7515012   0.3023170  90.7525208  41.2512396  -0.6556331
  89.5817842  27.9448447   9.1835881  88.6640404  28.1663394   9.0257569
  89.9977986  28.0194757   8.3247589  93.8698808  35.4504993   5.0656683
  93.4161135  34.6095903   5.1221874  93.2392774  36.0866391   5.4031464
  92.3131747  37.2881489   6.0006502  92.6054721  37.8486546   5.2818867
  92.8230367  37.5810050   6.7559661  79.2067711  29.5603917   5.2780718
  79.0092110  28.9673278   4.5531785  78.6514375  29.2556127   5.9956657
  87.1864434  29.4527024   7.3975311  87.2413044  28.5000860   7.3217788
  86.3755636  29.6086463   7.8816610  85.1256794  28.0704084   5.1565690
  84.3124660  28.3698254   5.5630882  85.6215788  27.6759772   5.8740172
  87.2765372  38.0661840   7.0899955  87.2341551  38.2922687   6.1608487
  88.1928071  37.8325215   7.2385756  90.7231006  28.5345908  13.9880584
  91.0780394  28.7617381  14.8475050  91.3703137  28.8664285  13.3657839
  84.6170869  25.6422439  10.7726925  85.2570248  25.5011198  10.0749888
  83.7848399  25.3556952  10.3965527  96.4798122  33.7240871   9.7041185
  96.9134629  33.6316160  10.5524239  97.1929703  33.6998371   9.0661201
  85.3931173  34.9424869   6.8861918  86.1871771  34.4475190   6.6844493
  84.6822865  34.4142733   6.5229623  90.2126017  37.3242965  11.2374285
  90.2663040  37.8933901  12.0052001  89.3440799  37.4944850  10.8728322
  81.7013936  29.0867951   2.9621670  80.7711524  29.0252407   3.1791632
  81.7971408  28.5643904   2.1658311  81.6199485  25.6122764   5.5499912
  81.8806303  26.5268097   5.4409072  82.4416658  25.1447207   5.6996525
  83.0924411  27.0260521  12.7198736  83.7647464  26.8177883  12.0711385
  82.2654197  26.8282607  12.2803969  97.3413672  33.7664572  12.2374070
  97.5349562  34.6710382  12.4833345  97.2414290  33.3071991  13.0712655
  88.9949983  23.6522462  14.7364397  88.3477898  24.3512412  14.6428874
  89.7650998  24.0858606  15.1040646  92.4028781  33.9171314  17.8114951
  92.2514287  33.6881866  16.8945034  92.3933460  34.8741916  17.8246296
  89.1714117  31.4903227  12.7961217  90.1006177  31.6414387  12.6230184
  88.7505147  31.5787248  11.9409864  87.9702449  35.5153891  10.5659755
  87.8313534  35.1472676  11.4385693  87.1817045  36.0301531  10.3943712
  88.5650601  40.6162988   1.9085291  88.7402356  40.1451031   2.7230914
  87.8783389  41.2428754   2.1366552  89.5207664  34.8935494   7.9548592
  89.1857497  34.8536264   8.8506242  89.0211610  34.2280210   7.4819003
  83.4951908  30.3003124  13.4801174  83.3571706  29.5683363  14.0812713
  84.4056831  30.2112024  13.1985361  86.1234209  30.0123083  12.9684853
  86.8333827  29.3716276  12.9271472  86.0803517  30.2635978  13.8911034
  94.1120987  36.9490437  15.8891432  94.0533533  36.2649657  15.2222015
  94.5140506  37.6909427  15.4372058  84.8363143  26.9988301  14.7880493
  84.3000500  26.5479040  15.4402089  84.2479851  27.1334210  14.0450957
  83.1311686  43.7652351   8.6825151  83.3708284  44.3970875   9.3604170
  82.2880883  43.4140391   8.9690511  94.1138395  34.9130021  14.1205412
  93.2265173  34.5755943  14.2431811  94.6836946  34.1813052  14.3574178
  75.7667542  31.2454113   7.4448464  76.4538581  30.9315843   6.8569479
  75.6115670  32.1495477   7.1715715  80.5702264  26.1344309  11.8733487
  80.4860453  25.5269979  11.1383897  79.7484970  26.6253327  11.8742984
  87.6439548  39.5731473  11.0866655  87.5709719  40.3786445  11.5985960
  87.2016941  39.7723439  10.2614677  87.4329328  38.8103243   4.5969477
  86.6496849  39.3524923   4.6907701  88.1322073  39.3277223   4.9963718
  90.1038231  39.4718307  13.2424814  90.8166204  40.1065772  13.1700715
  89.6128260  39.5682173  12.4264816  91.8255758  33.3769560   4.8142106
  90.8912037  33.4971022   4.6446810  92.0032427  32.4742027   4.5502115
  87.3260946  26.7615256   6.9675367  86.9558734  26.2086296   7.6556272
  87.8220039  26.1573389   6.4150367  85.1550145  37.2212751  14.0630385
  85.8559604  37.8549234  14.2159779  84.6845260  37.5627482  13.3026024
  92.9551431  29.7757358  11.8882935  92.3022881  30.0233266  11.2335388
  93.3331811  28.9621496  11.5545412  89.9158605  39.8117051   5.9911105
  90.0980999  38.9938707   6.4538858  90.7391591  40.0284743   5.5535995
  90.2500770  38.7385236   3.2526154  90.7788537  38.2277691   2.6396316
  90.5128990  38.4227767   4.1171687  89.0039004  30.5177169  18.3748972
  88.3279641  30.4171298  19.0451347  89.8266638  30.3616383  18.8384969
  80.7517863  36.7549106  10.9961487  81.3371300  36.0092794  11.1289392
  80.5542701  37.0653062  11.8798151  83.6056518  39.7900353   6.0123930
  82.9366894  40.2746481   5.5287970  83.4669388  40.0369573   6.9267308
  75.3435518  29.3254706   9.7165931  75.3819617  28.7918297  10.5103049
  74.8375811  28.7989911   9.0976908  87.7461787  41.8244097  12.6106588
  88.2980095  41.9875718  13.3755673  88.0867980  42.4148534  11.9386613
  82.7226280  24.1719246  13.2128473  82.7867607  25.0334077  12.8005871
  82.6593400  23.5593248  12.4800831  82.1978553  26.2442379  16.8601507
  82.8250591  25.8619456  17.4739032  81.3406471  26.0256581  17.2257200
  92.5972661  36.6505354  18.4655243  93.1412565  37.2635312  17.9710197
  92.0159506  37.2084932  18.9822256  78.9744095  28.0518808   2.7919862
  79.2697536  27.1429486   2.7386916  78.0732131  28.0306547   2.4700864
  90.8830174  39.7726072   9.5970270  90.7581314  38.9715812   9.0881216
  91.5409265  40.2672265   9.1084240  82.5038342  26.1274805   8.7747411
  81.7824928  26.7410772   8.6354884  83.2931598  26.6632569   8.6964057
  92.9465082  37.5735092  11.2249820  91.9995418  37.4540443  11.1528147
  93.2947856  36.6857590  11.3076082  85.3064656  23.4629231  15.0488062
  85.8299058  23.7091528  15.8114372  85.0876989  24.2949266  14.6291200
  80.7031937  25.7332906   2.9159187  80.3744643  24.8530285   2.7334293
  81.0571308  25.6780574   3.8035576  89.9511516  37.3687808   7.4254173
  89.8036478  36.4404516   7.6061743  90.7765009  37.3907899   6.9411248
  83.8173760  26.0205875   3.2834665  84.1569833  26.5491797   2.5613273
  84.2645881  26.3586282   4.0593231  93.5545638  38.1916367   8.5119045
  94.4792185  37.9859228   8.3743497  93.3860941  37.9432768   9.4208387
  86.5117201  24.4042926  12.7337733  86.1714021  23.6050739  13.1358413
  85.8056207  24.7044637  12.1614566  87.1633673  21.4892239  11.1865056
  87.9859742  21.0152717  11.0643946  87.4071736  22.2682722  11.6863742
  84.6872251  28.1811359   8.9957035  84.5416832  28.4951662   9.8881316
  84.2097455  28.7996260   8.4427933  86.5468634  25.1713907   9.0437924
  86.5330203  24.2755001   8.7070222  87.2641062  25.1784571   9.6776210
  88.3994765  25.6051247  11.0891052  88.1412543  26.5268318  11.0875382
  87.8679805  25.2081682  11.7791516  93.3440954  38.7102035   3.8681137
  93.5177831  38.1448457   3.1154989  93.8369845  39.5102929   3.6860627
  79.1617914  30.7216704  11.9344696  78.6171382  31.4976512  12.0664970
  80.0397264  31.0687508  11.7763817  85.9505530  24.0528288   4.3125494
  86.0721442  23.1244934   4.5116382  85.6607573  24.0666974   3.4003810
  79.9483936  29.8486600  14.8274853  79.2065672  29.9969235  15.4139483
  79.6276680  30.1094866  13.9641602  87.8927598  39.3902578  14.6255243
  88.2014725  39.1451725  15.4977942  88.6903080  39.5949217  14.1374113
  87.9148210  41.5440488   6.8560619  87.4753200  41.0516866   7.5493476
  88.6656327  41.0013455   6.6152694  80.3940549  37.7352029   6.8585247
  81.2198569  37.4355801   6.4783891  80.0434601  36.9659651   7.3075036
  85.3622082  37.0878497   8.9282921  84.7402092  36.4249202   8.6285149
  86.0326949  37.1139629   8.2456569  78.5949154  35.6538355   7.8174181
  77.7581063  35.2260529   7.6358182  78.5672800  35.8470798   8.7544972
  85.4346610  25.5660285  18.5215427  85.4834765  26.4422408  18.1393196
  85.9769124  25.0237678  17.9487070  95.9201456  36.1101408  17.8016564
  95.1296999  36.0925547  17.2621063  95.6834810  36.6489702  18.5565601
  96.0399331  32.9593875  15.1149292  96.0897336  32.7943882  16.0564815
  95.9313254  32.0921134  14.7247173  84.9235589  35.6382420   2.4041381
  85.0723710  36.3217885   1.7508054  85.7302033  35.6187510   2.9190837
  93.3303093  28.9424803  16.4308599  94.2312956  28.8031267  16.1392597
  93.4051067  29.1079257  17.3706777  87.6645898  26.3191657  15.2761785
  86.7949208  26.6125223  15.0044374  87.9005379  26.9032102  15.9969049
  97.5417527  35.3790816  15.3591314  97.2502336  35.7420797  16.1954775
  96.9289659  34.6657824  15.1804646  95.7904716  30.5023431  13.8271372
  96.2658837  30.6951077  13.0190223  94.8670281  30.5582616  13.5814756
  82.6788222  31.6647598   3.4102450  82.4334264  30.7609928   3.6082660
  82.8484137  31.6664748   2.4681928  90.3684932  22.5371274  12.7927206
  90.8866876  23.2732301  12.4673694  90.0140065  22.8435268  13.6273965
  81.9483870  27.3975955   0.9088612  81.2553115  27.4720310   0.2528648
  81.7035622  26.6336299   1.4310129  88.4230995  38.1330551  -0.1246871
  87.8504962  38.7520738  -0.5776399  88.9963788  38.6829912   0.4093051
  94.4906385  27.3789191  12.0599678  95.4423808  27.4787288  12.0811902
  94.3209835  26.5867459  12.5697762  92.5120764  24.4644774  12.2459079
  91.9170696  24.7449787  11.5505567  92.2270461  24.9538675  13.0175820
  91.6428255  38.4167701   1.0061711  92.5758928  38.3513262   1.2094587
  91.5551467  39.2523968   0.5476244  96.9694462  30.5995310  11.1741977
  96.9370783  29.6611311  11.3601661  97.5795086  30.6779347  10.4407802
  88.6916486  33.5209110  18.6769838  89.6119495  33.6987709  18.8709885
  88.6566069  32.5765155  18.5249538  77.9098651  28.7147703   7.6023113
  77.5901435  27.8613011   7.3097487  77.3632079  28.9296281   8.3581080
  81.6878558  31.4310144  11.3192619  81.9064568  32.3627252  11.3380653
  82.1004332  31.0718119  12.1047423  86.5606424  27.0043350  20.7095368
  86.4603151  27.9537707  20.6407459  86.3427966  26.6761589  19.8371438
  77.7786911  32.3350615   9.5716234  77.0850382  31.9204568   9.0586189
  78.5259902  32.3771151   8.9749653  86.4237694  30.4340489  19.5260430
  85.9404775  31.2340849  19.7324319  86.5098633  30.4448434  18.5727874
  79.6923653  32.2668868   7.4482249  79.6694341  32.3656556   6.4964132
  80.0024290  33.1134019   7.7699415  82.3511031  34.3245024  11.5628864
  83.3054285  34.2928966  11.4958795  82.1523555  33.8635647  12.3779090
  82.9410413  32.8946140  14.1299661  83.7603302  33.3890218  14.1534499
  83.2147221  31.9778108  14.1017229  80.7061260  39.8664643   8.5799062
  80.5715728  39.1065044   8.0137060  80.2893322  40.5905543   8.1127851
  83.8630386  40.7633960   8.7917504  83.7462770  41.7079393   8.6896195
  83.0422832  40.4607522   9.1803304  78.1945328  27.2284273  14.8291859
  78.8404191  26.7183227  15.3179084  77.9862479  27.9652955  15.4035284
  90.7198720  34.2965121  20.3283999  91.5889879  34.4705773  19.9670634
  90.2405471  35.1159538  20.2059728  84.8884900  41.4162222  12.0073433
  85.7912147  41.4485832  12.3239928  84.6622270  40.4862673  12.0219769
  86.6438502  40.1693208   8.6683511  85.6934133  40.1695070   8.5547884
  86.9470988  39.4225943   8.1519546  82.5342819  24.3751890  18.9266873
  83.3974280  24.0188695  19.1370197  81.9608229  24.0365785  19.6142277
 102.3791196  46.0053747   9.7329274 103.0169605  45.8860494   9.0292614
 102.2612038  46.9534591   9.7917226  99.1880902  45.9581175   9.6690798
  98.8499413  45.8422240   8.7811333 100.0570670  45.5572340   9.6491805
  95.0467717  47.8116651   5.6587689  94.4832583  47.7206588   4.8903977
  94.9320113  46.9916556   6.1390182  99.6700685  47.1116027  15.6277004
  99.6589326  46.7168825  14.7557508  99.8321324  46.3782099  16.2210775
  92.5932149  49.3067843   8.4971910  93.3853441  48.9658668   8.0818209
  92.8328800  49.4162818   9.4174063 100.6267276  51.4787619   0.9702154
  99.9755256  52.0641699   0.5836168 101.4211639  52.0093814   1.0297192
  94.5522903  48.5676756   1.3689289  95.3253779  48.0205743   1.2302164
  94.9048302  49.4321006   1.5803750  96.3907946  49.8953138  14.5756188
  96.0997812  50.7998769  14.4602854  97.0264930  49.9369666  15.2900258
  97.3164153  47.2729987  11.1657548  97.9127725  47.0486009  10.4514511
  97.3739124  46.5314732  11.7682995 101.9332464  43.7305201   6.8082482
 102.7195553  43.3124624   6.4572899 102.1971168  44.6351293   6.9764130
  96.6085470  46.6297528   1.2032114  96.4921728  45.9542432   1.8713198
  96.7187730  46.1429902   0.3864267  98.9517011  46.0907675   4.9078803
  98.5875218  45.5638296   5.6191724  99.8084127  45.7006144   4.7345288
 104.8566311  37.3802008  12.1710069 104.5249636  38.2497419  11.9471284
 104.2611925  37.0638292  12.8504099 101.3497831  49.5814554  11.5705982
 101.0498554  50.4839593  11.4621789 101.0048891  49.3146737  12.4227135
  94.8010312  46.0328351   7.6042686  93.8760809  45.9004565   7.8120378
  95.0494726  46.8122570   8.1012628 104.7494975  42.0997094   9.2503419
 103.8411852  42.0312503   8.9562180 104.6982571  42.5769039  10.0785244
  92.1619124  45.6761624   8.4386475  92.2911505  45.9296103   9.3525887
  91.4816575  46.2689332   8.1191130  96.3318611  56.3458874   4.5376949
  96.2542641  57.2966699   4.6165430  95.7280254  56.0004747   5.1951876
  98.8235841  43.5186740  17.1938316  98.0469175  44.0780660  17.1841181
  99.4626404  44.0043523  17.7153186 106.6156621  40.3013533  11.0281293
 105.9731001  40.5946066  10.3821087 106.1111550  40.1866453  11.8334490
  97.0782213  46.3272193  16.7556283  97.8196897  46.8657237  16.4791107
  96.3719198  46.9538482  16.9127835 102.5537553  48.4701334  15.3528445
 102.9620909  48.0283744  14.6083077 101.8314814  47.8953961  15.6062638
  98.9068623  43.4073940  12.7262002  99.7529818  43.8313354  12.8696651
  98.8467260  42.7507565  13.4200565 102.8766367  49.0302524   9.1080734
 102.2475230  49.1948238   8.4056801 102.4892029  49.4444134   9.8791698
 106.7555599  49.9656962   6.4625097 106.0706637  50.3455863   5.9122131
 106.8399448  50.5752289   7.1957045 102.0568068  41.0678309  14.3843175
 101.8129000  41.8220369  13.8477451 102.3327998  41.4463656  15.2190422
 104.0106531  47.6116921  13.0620441 104.2223426  48.2548681  12.3854822
 103.9636279  46.7779238  12.5942371 101.6132760  40.2234742   9.9657013
 100.7517239  40.5215995  10.2573751 101.6395194  40.4405141   9.0338046
  98.4294329  48.7676932   6.3730819  98.8932675  49.0464635   5.5835441
  98.1651127  47.8660377   6.1903909  95.3218410  48.3148414   9.3110582
  95.8919767  48.7435682   8.6728066  95.9126522  48.0330999  10.0094768
  97.3663215  44.8900085   3.1820384  98.0687258  45.3421128   3.6494310
  97.0343844  44.2483904   3.8100277  95.8143577  43.4811841  17.5571593
  95.1842237  44.1628122  17.7906990  95.7079665  43.3694923  16.6124731
  91.1088549  43.1483637   8.4837517  90.3187603  43.4041166   8.0077628
  91.5999796  43.9631975   8.5889558 105.1252359  50.4888877  11.2342798
 105.9469802  50.0869064  10.9525480 105.1214762  50.3857111  12.1858914
  93.0603294  43.5128217   5.4420994  92.2634458  43.6246911   5.9604490
  92.8328887  43.8514869   4.5761885  98.8908962  50.0372920  13.3903509
  98.9553395  50.4993327  14.2261681  98.1819886  49.4070285  13.5185819
  89.3926252  43.4014128  10.9152508  89.6434290  44.2861138  11.1810084
  89.9285800  43.2218729  10.1427600  98.6056980  51.7041027   3.2582489
  98.4702655  52.5492563   3.6867337  99.1466792  51.9060305   2.4948423
  95.0924319  37.7832607  19.9196844  94.6991265  37.2298806  20.5944489
  95.9090460  38.0943186  20.3103362  92.0586377  49.2216465   3.8310414
  92.5710898  50.0159716   3.9815979  92.7109090  48.5242756   3.7644016
  93.8681262  52.3382222   5.9133167  94.0447890  53.2600186   5.7254151
  94.6638095  52.0240641   6.3427547  98.0092280  39.1990486  17.5117101
  98.7501994  39.7997639  17.4321563  98.2410203  38.4568124  16.9535143
  93.1533618  44.3846854  15.7895331  93.0387134  43.4832111  16.0902429
  92.2978136  44.6310550  15.4380147 100.2325456  52.3264594  17.3882831
  99.7889310  51.5400972  17.0703736 100.8942670  52.5143744  16.7226722
  94.9912577  53.8560395  11.9143510  95.5420002  53.7277459  11.1420504
  94.1524053  54.1555284  11.5638402 102.3306694  52.6067394  15.4164232
 102.3125170  53.4276275  14.9244502 103.2526614  52.4821469  15.6414374
  98.7879748  50.1211523  16.2587741  99.3208085  49.3599811  16.0287049
  98.2593829  49.8285175  17.0011895 101.9549443  35.2271589  11.7881383
 101.6113713  36.1173231  11.7120493 102.3228406  35.0373247  10.9250968
  90.0235294  47.5505120   4.6069985  90.8610516  47.9602128   4.3903692
  90.2013562  46.6104562   4.5770179 101.0345984  37.5976244   9.7530616
 100.5310779  37.5606380   8.9398421 101.3276591  38.5068987   9.8127272
  97.2788870  37.6814974   8.7596798  98.1441866  37.4857783   8.4002687
  97.3466378  37.4525326   9.6866154 100.1532461  49.2497516   3.7706553
  99.6253823  48.5150275   3.4579790  99.6519964  50.0272192   3.5246521
 105.1325307  47.4446536   8.8873599 104.4748982  48.1345798   8.9753728
 105.9365706  47.8342968   9.2307585  94.8851189  39.9117182   6.1313164
  95.4594941  39.6892363   5.3986357  95.4722171  39.9805876   6.8841766
 103.9430766  45.7990909   6.9377541 104.4562648  46.4320901   7.4399251
 104.5931990  45.1992104   6.5720901 100.4211597  43.2740364   9.1835881
  99.5034158  43.4955311   9.0257569 100.8371740  43.3486675   8.3247589
 104.7092562  50.7796910   5.0656683 104.2554889  49.9387820   5.1221874
 104.0786529  51.4158309   5.4031464 103.1525501  52.6173407   6.0006502
 103.4448476  53.1778464   5.2818867 103.6624122  52.9101968   6.7559661
  90.0461465  44.8895835   5.2780718  89.8485865  44.2965196   4.5531785
  89.4908129  44.5848045   5.9956657  98.0258189  44.7818941   7.3975311
  98.0806798  43.8292778   7.3217788  97.2149391  44.9378381   7.8816610
  95.9650549  43.3996001   5.1565690  95.1518414  43.6990172   5.5630882
  96.4609543  43.0051690   5.8740172  98.1159127  53.3953758   7.0899955
  98.0735305  53.6214604   6.1608487  99.0321825  53.1617133   7.2385756
 101.5624760  43.8637826  13.9880584 101.9174148  44.0909299  14.8475050
 102.2096892  44.1956202  13.3657839  95.4564623  40.9714357  10.7726925
  96.0964003  40.8303116  10.0749888  94.6242154  40.6848870  10.3965527
 107.3191877  49.0532789   9.7041185 107.7528384  48.9608078  10.5524239
 108.0323458  49.0290289   9.0661201  96.2324927  50.2716787   6.8861918
  97.0265526  49.7767107   6.6844493  95.5216620  49.7434650   6.5229623
 101.0519772  52.6534883  11.2374285 101.1056794  53.2225819  12.0052001
 100.1834553  52.8236768  10.8728322  92.5407691  44.4159869   2.9621670
  91.6105279  44.3544324   3.1791632  92.6365163  43.8935822   2.1658311
  92.4593240  40.9414682   5.5499912  92.7200057  41.8560015   5.4409072
  93.2810412  40.4739124   5.6996525  93.9318165  42.3552439  12.7198736
  94.6041219  42.1469801  12.0711385  93.1047952  42.1574525  12.2803969
 108.1807426  49.0956489  12.2374070 108.3743316  50.0002300  12.4833345
 108.0808045  48.6363908  13.0712655  99.8343737  38.9814380  14.7364397
  99.1871652  39.6804329  14.6428874 100.6044753  39.4150524  15.1040646
 103.2422535  49.2463232  17.8114951 103.0908042  49.0173784  16.8945034
 103.2327215  50.2033833  17.8246296 100.0107872  46.8195145  12.7961217
 100.9399932  46.9706304  12.6230184  99.5898902  46.9079165  11.9409864
  98.8096203  50.8445809  10.5659755  98.6707289  50.4764594  11.4385693
  98.0210800  51.3593449  10.3943712  99.4044355  55.9454906   1.9085291
  99.5796111  55.4742949   2.7230914  98.7177143  56.5720672   2.1366552
 100.3601418  50.2227412   7.9548592 100.0251251  50.1828182   8.8506242
  99.8605364  49.5572128   7.4819003  94.3345662  45.6295042  13.4801174
  94.1965460  44.8975281  14.0812713  95.2450586  45.5403942  13.1985361
  96.9627963  45.3415001  12.9684853  97.6727582  44.7008193  12.9271472
  96.9197271  45.5927896  13.8911034 104.9514742  52.2782355  15.8891432
 104.8927288  51.5941575  15.2222015 105.3534260  53.0201345  15.4372058
  95.6756897  42.3280219  14.7880493  95.1394254  41.8770958  15.4402089
  95.0873605  42.4626128  14.0450957  93.9705441  59.0944268   8.6825151
  94.2102039  59.7262793   9.3604170  93.1274637  58.7432308   8.9690511
 104.9532149  50.2421938  14.1205412 104.0658928  49.9047860  14.2431811
 105.5230700  49.5104970  14.3574178  86.6061296  46.5746030   7.4448464
  87.2932336  46.2607760   6.8569479  86.4509425  47.4787395   7.1715715
  91.4096018  41.4636227  11.8733487  91.3254207  40.8561896  11.1383897
  90.5878725  41.9545245  11.8742984  98.4833302  54.9023391  11.0866655
  98.4103474  55.7078362  11.5985960  98.0410696  55.1015357  10.2614677
  98.2723082  54.1395161   4.5969477  97.4890604  54.6816841   4.6907701
  98.9715827  54.6569140   4.9963718 100.9431986  54.8010225  13.2424814
 101.6559958  55.4357690  13.1700715 100.4522015  54.8974091  12.4264816
 102.6649513  48.7061478   4.8142106 101.7305792  48.8262940   4.6446810
 102.8426181  47.8033944   4.5502115  98.1654701  42.0907173   6.9675367
  97.7952488  41.5378214   7.6556272  98.6613793  41.4865307   6.4150367
  95.9943899  52.5504668  14.0630385  96.6953359  53.1841151  14.2159779
  95.5239014  52.8919400  13.3026024 103.7945185  45.1049276  11.8882935
 103.1416636  45.3525183  11.2335388 104.1725565  44.2913414  11.5545412
 100.7552359  55.1408969   5.9911105 100.9374754  54.3230625   6.4538858
 101.5785345  55.3576661   5.5535995 101.0894525  54.0677154   3.2526154
 101.6182291  53.5569609   2.6396316 101.3522744  53.7519684   4.1171687
  99.8432758  45.8469087  18.3748972  99.1673395  45.7463216  19.0451347
 100.6660392  45.6908301  18.8384969  91.5911618  52.0841023  10.9961487
  92.1765054  51.3384711  11.1289392  91.3936456  52.3944980  11.8798151
  94.4450273  55.1192271   6.0123930  93.7760648  55.6038398   5.5287970
  94.3063142  55.3661491   6.9267308  86.1829272  44.6546624   9.7165931
  86.2213372  44.1210214  10.5103049  85.6769565  44.1281829   9.0976908
  98.5855541  57.1536014  12.6106588  99.1373849  57.3167636  13.3755673
  98.9261735  57.7440452  11.9386613  93.5620035  39.5011164  13.2128473
  93.6261361  40.3625995  12.8005871  93.4987155  38.8885166  12.4800831
  93.0372307  41.5734297  16.8601507  93.6644346  41.1911374  17.4739032
  92.1800226  41.3548499  17.2257200 103.4366416  51.9797272  18.4655243
 103.9806320  52.5927230  17.9710197 102.8553260  52.5376850  18.9822256
  89.8137850  43.3810726   2.7919862  90.1091291  42.4721404   2.7386916
  88.9125886  43.3598465   2.4700864 101.7223929  55.1017990   9.5970270
 101.5975068  54.3007730   9.0881216 102.3803020  55.5964183   9.1084240
  93.3432097  41.4566722   8.7747411  92.6218683  42.0702690   8.6354884
  94.1325353  41.9924487   8.6964057 103.7858837  52.9027010  11.2249820
 102.8389173  52.7832361  11.1528147 104.1341610  52.0149508  11.3076082
  96.1458410  38.7921149  15.0488062  96.6692812  39.0383445  15.8114372
  95.9270744  39.6241184  14.6291200  91.5425691  41.0624823   2.9159187
  91.2138398  40.1822202   2.7334293  91.8965062  41.0072492   3.8035576
 100.7905270  52.6979726   7.4254173 100.6430233  51.7696433   7.6061743
 101.6158764  52.7199817   6.9411248  94.6567515  41.3497793   3.2834665
  94.9963587  41.8783714   2.5613273  95.1039635  41.6878199   4.0593231
 104.3939392  53.5208285   8.5119045 105.3185940  53.3151146   8.3743497
 104.2254696  53.2724686   9.4208387  97.3510955  39.7334844  12.7337733
  97.0107776  38.9342657  13.1358413  96.6449962  40.0336555  12.1614566
  98.0027427  36.8184156  11.1865056  98.8253497  36.3444634  11.0643946
  98.2465491  37.5974640  11.6863742  95.5266006  43.5103277   8.9957035
  95.3810587  43.8243580   9.8881316  95.0491210  44.1288177   8.4427933
  97.3862389  40.5005825   9.0437924  97.3723958  39.6046918   8.7070222
  98.1034817  40.5076489   9.6776210  99.2388520  40.9343165  11.0891052
  98.9806297  41.8560236  11.0875382  98.7073560  40.5373600  11.7791516
 104.1834708  54.0393952   3.8681137 104.3571586  53.4740375   3.1154989
 104.6763600  54.8394847   3.6860627  90.0011668  46.0508621  11.9344696
  89.4565136  46.8268429  12.0664970  90.8791018  46.3979426  11.7763817
  96.7899285  39.3820205   4.3125494  96.9115196  38.4536851   4.5116382
  96.5001327  39.3958891   3.4003810  90.7877690  45.1778518  14.8274853
  90.0459426  45.3261153  15.4139483  90.4670434  45.4386783  13.9641602
  98.7321353  54.7194496  14.6255243  99.0408479  54.4743643  15.4977942
  99.5296835  54.9241134  14.1374113  98.7541965  56.8732405   6.8560619
  98.3146955  56.3808784   7.5493476  99.5050082  56.3305373   6.6152694
  91.2334304  53.0643946   6.8585247  92.0592324  52.7647718   6.4783891
  90.8828356  52.2951569   7.3075036  96.2015837  52.4170415   8.9282921
  95.5795846  51.7541120   8.6285149  96.8720704  52.4431546   8.2456569
  89.4342909  50.9830273   7.8174181  88.5974817  50.5552447   7.6358182
  89.4066554  51.1762716   8.7544972  96.2740364  40.8952203  18.5215427
  96.3228520  41.7714325  18.1393196  96.8162879  40.3529596  17.9487070
 106.7595210  51.4393326  17.8016564 105.9690754  51.4217465  17.2621063
 106.5228565  51.9781620  18.5565601 106.8793085  48.2885792  15.1149292
 106.9291090  48.1235800  16.0564815 106.7707008  47.4213051  14.7247173
  95.7629344  50.9674338   2.4041381  95.9117464  51.6509802   1.7508054
  96.5695787  50.9479428   2.9190837 104.1696847  44.2716720  16.4308599
 105.0706710  44.1323185  16.1392597 104.2444822  44.4371175  17.3706777
  98.5039653  41.6483575  15.2761785  97.6342962  41.9417141  15.0044374
  98.7399133  42.2324020  15.9969049 108.3811282  50.7082734  15.3591314
 108.0896090  51.0712714  16.1954775 107.7683413  49.9949742  15.1804646
 106.6298470  45.8315348  13.8271372 107.1052592  46.0242995  13.0190223
 105.7064036  45.8874534  13.5814756  93.5181977  46.9939516   3.4102450
  93.2728019  46.0901846   3.6082660  93.6877891  46.9956666   2.4681928
 101.2078687  37.8663192  12.7927206 101.7260630  38.6024219  12.4673694
 100.8533819  38.1727185  13.6273965  92.7877624  42.7267873   0.9088612
  92.0946869  42.8012228   0.2528648  92.5429376  41.9628217   1.4310129
  99.2624749  53.4622468  -0.1246871  98.6898716  54.0812655  -0.5776399
  99.8357543  54.0121830   0.4093051 105.3300139  42.7081108  12.0599678
 106.2817562  42.8079206  12.0811902 105.1603590  41.9159377  12.5697762
 103.3514519  39.7936692  12.2459079 102.7564451  40.0741704  11.5505567
 103.0664215  40.2830593  13.0175820 102.4822009  53.7459618   1.0061711
 103.4152682  53.6805180   1.2094587 102.3945222  54.5815885   0.5476244
 107.8088217  45.9287228  11.1741977 107.7764537  44.9903229  11.3601661
 108.4188841  46.0071265  10.4407802  99.5310240  48.8501027  18.6769838
 100.4513250  49.0279626  18.8709885  99.4959823  47.9057073  18.5249538
  88.7492405  44.0439621   7.6023113  88.4295190  43.1904929   7.3097487
  88.2025834  44.2588199   8.3581080  92.5272313  46.7602062  11.3192619
  92.7458323  47.6919170  11.3380653  92.9398087  46.4010036  12.1047423
  97.4000178  42.3335268  20.7095368  97.2996905  43.2829625  20.6407459
  97.1821720  42.0053507  19.8371438  88.6180665  47.6642532   9.5716234
  87.9244137  47.2496485   9.0586189  89.3653656  47.7063069   8.9749653
  97.2631448  45.7632406  19.5260430  96.7798530  46.5632767  19.7324319
  97.3492387  45.7740351  18.5727874  90.5317408  47.5960786   7.4482249
  90.5088096  47.6948473   6.4964132  90.8418044  48.4425937   7.7699415
  93.1904786  49.6536941  11.5628864  94.1448039  49.6220884  11.4958795
  92.9917309  49.1927565  12.3779090  93.7804168  48.2238057  14.1299661
  94.5997057  48.7182136  14.1534499  94.0540976  47.3070025  14.1017229
  91.5455015  55.1956561   8.5799062  91.4109482  54.4356962   8.0137060
  91.1287077  55.9197461   8.1127851  94.7024140  56.0925878   8.7917504
  94.5856525  57.0371310   8.6896195  93.8816587  55.7899439   9.1803304
  89.0339082  42.5576191  14.8291859  89.6797946  42.0475145  15.3179084
  88.8256233  43.2944873  15.4035284 101.5592474  49.6257039  20.3283999
 102.4283634  49.7997691  19.9670634 101.0799226  50.4451455  20.2059728
  95.7278655  56.7454140  12.0073433  96.6305901  56.7777750  12.3239928
  95.5016025  55.8154591  12.0219769  97.4832257  55.4985126   8.6683511
  96.5327888  55.4986988   8.5547884  97.7864743  54.7517861   8.1519546
  93.3736573  39.7043808  18.9266873  94.2368035  39.3480613  19.1370197
  92.8001984  39.3657703  19.6142277 113.2184950  61.3345665   9.7329274
 113.8563360  61.2152412   9.0292614 113.1005793  62.2826508   9.7917226
 110.0274656  61.2873093   9.6690798 109.6893168  61.1714157   8.7811333
 110.8964424  60.8864258   9.6491805 110.5094439  62.4407944  15.6277004
 110.4983080  62.0460743  14.7557508 110.6715079  61.7074017  16.2210775
 103.4325904  64.6359761   8.4971910 104.2247196  64.2950585   8.0818209
 103.6722554  64.7454736   9.4174063 107.2301700  65.2245056  14.5756188
 106.9391566  66.1290687  14.4602854 107.8658685  65.2661584  15.2900258
 108.1557907  62.6021905  11.1657548 108.7521480  62.3777927  10.4514511
 108.2132879  61.8606650  11.7682995 112.7726219  59.0597118   6.8082482
 113.5589308  58.6416542   6.4572899 113.0364923  59.9643211   6.9764130
 115.6960066  52.7093926  12.1710069 115.3643391  53.5789337  11.9471284
 115.1005679  52.3930210  12.8504099 112.1891586  64.9106472  11.5705982
 111.8892309  65.8131510  11.4621789 111.8442645  64.6438655  12.4227135
 105.6404067  61.3620269   7.6042686 104.7154563  61.2296483   7.8120378
 105.8888480  62.1414488   8.1012628 115.5888729  57.4289012   9.2503419
 114.6805607  57.3604420   8.9562180 115.5376325  57.9060957  10.0785244
 103.0012878  61.0053542   8.4386475 103.1305259  61.2588021   9.3525887
 102.3210329  61.5981250   8.1191130 109.6629595  58.8478657  17.1938316
 108.8862929  59.4072578  17.1841181 110.3020158  59.3335440  17.7153186
 117.4550376  55.6305450  11.0281293 116.8124756  55.9237983  10.3821087
 116.9505304  55.5158371  11.8334490 107.9175967  61.6564111  16.7556283
 108.6590652  62.1949155  16.4791107 107.2112953  62.2830400  16.9127835
 113.3931307  63.7993251  15.3528445 113.8014663  63.3575662  14.6083077
 112.6708569  63.2245879  15.6062638 109.7462377  58.7365858  12.7262002
 110.5923572  59.1605272  12.8696651 109.6861015  58.0799482  13.4200565
 112.8961822  56.3970226  14.3843175 112.6522754  57.1512287  13.8477451
 113.1721753  56.7755574  15.2190422 114.8500285  62.9408839  13.0620441
 115.0617180  63.5840599  12.3854822 114.8030033  62.1071155  12.5942371
 112.4526514  55.5526659   9.9657013 111.5910993  55.8507913  10.2573751
 112.4788949  55.7697058   9.0338046 106.1612165  63.6440332   9.3110582
 106.7313522  64.0727600   8.6728066 106.7520276  63.3622916  10.0094768
 106.6537331  58.8103759  17.5571593 106.0235992  59.4920040  17.7906990
 106.5473419  58.6986841  16.6124731 101.9482304  58.4775555   8.4837517
 101.1581358  58.7333084   8.0077628 102.4393551  59.2923893   8.5889558
 103.8997049  58.8420134   5.4420994 103.1028212  58.9538829   5.9604490
 103.6722641  59.1806786   4.5761885 109.7302717  65.3664837  13.3903509
 109.7947149  65.8285245  14.2261681 109.0213640  64.7362202  13.5185819
 100.2320007  58.7306045  10.9152508 100.4828045  59.6153055  11.1810084
 100.7679555  58.5510647  10.1427600 105.9318074  53.1124525  19.9196844
 105.5385019  52.5590723  20.5944489 106.7484214  53.4235103  20.3103362
 108.8486035  54.5282404  17.5117101 109.5895748  55.1289557  17.4321563
 109.0803958  53.7860042  16.9535143 103.9927373  59.7138771  15.7895331
 103.8780888  58.8124028  16.0902429 103.1371891  59.9602468  15.4380147
 111.0719211  67.6556511  17.3882831 110.6283065  66.8692890  17.0703736
 111.7336424  67.8435662  16.7226722 105.8306332  69.1852313  11.9143510
 106.3813757  69.0569376  11.1420504 104.9917808  69.4847202  11.5638402
 113.1700449  67.9359311  15.4164232 113.1518924  68.7568192  14.9244502
 114.0920369  67.8113387  15.6414374 109.6273503  65.4503441  16.2587741
 110.1601840  64.6891729  16.0287049 109.0987584  65.1577093  17.0011895
 112.7943198  50.5563507  11.7881383 112.4507467  51.4465149  11.7120493
 113.1622160  50.3665165  10.9250968 100.8629048  62.8797037   4.6069985
 101.7004270  63.2894046   4.3903692 101.0407316  61.9396479   4.5770179
 111.8739738  52.9268162   9.7530616 111.3704534  52.8898297   8.9398421
 112.1670345  53.8360905   9.8127272 108.1182624  53.0106892   8.7596798
 108.9835621  52.8149700   8.4002687 108.1860133  52.7817244   9.6866154
 105.7244943  55.2409100   6.1313164 106.2988695  55.0184281   5.3986357
 106.3115926  55.3097794   6.8841766 111.2605351  58.6032282   9.1835881
 110.3427913  58.8247229   9.0257569 111.6765495  58.6778593   8.3247589
 100.8855220  60.2187753   5.2780718 100.6879619  59.6257113   4.5531785
 100.3301884  59.9139963   5.9956657 108.8651943  60.1110859   7.3975311
 108.9200553  59.1584696   7.3217788 108.0543145  60.2670298   7.8816610
 106.8044303  58.7287919   5.1565690 105.9912169  59.0282089   5.5630882
 107.3003297  58.3343608   5.8740172 112.4018515  59.1929743  13.9880584
 112.7567903  59.4201216  14.8475050 113.0490646  59.5248120  13.3657839
 106.2958378  56.3006274  10.7726925 106.9357757  56.1595033  10.0749888
 105.4635908  56.0140788  10.3965527 111.8913526  67.9826800  11.2374285
 111.9450549  68.5517737  12.0052001 111.0228308  68.1528685  10.8728322
 103.2986994  56.2706599   5.5499912 103.5593812  57.1851933   5.4409072
 104.1204167  55.8031042   5.6996525 104.7711920  57.6844357  12.7198736
 105.4434973  57.4761719  12.0711385 103.9441706  57.4866443  12.2803969
 110.6737492  54.3106297  14.7364397 110.0265407  55.0096247  14.6428874
 111.4438507  54.7442441  15.1040646 114.0816290  64.5755150  17.8114951
 113.9301796  64.3465701  16.8945034 114.0720969  65.5325751  17.8246296
 110.8501626  62.1487062  12.7961217 111.7793686  62.2998222  12.6230184
 110.4292656  62.2371083  11.9409864 109.6489958  66.1737727  10.5659755
 109.5101043  65.8056511  11.4385693 108.8604554  66.6885366  10.3943712
 105.1739417  60.9586960  13.4801174 105.0359215  60.2267198  14.0812713
 106.0844340  60.8695860  13.1985361 107.8021718  60.6706919  12.9684853
 108.5121336  60.0300111  12.9271472 107.7591026  60.9219814  13.8911034
 115.7908496  67.6074272  15.8891432 115.7321042  66.9233492  15.2222015
 116.1928015  68.3493262  15.4372058 106.5150652  57.6572137  14.7880493
 105.9788009  57.2062875  15.4402089 105.9267360  57.7918046  14.0450957
 115.7925904  65.5713856  14.1205412 114.9052682  65.2339778  14.2431811
 116.3624455  64.8396887  14.3574178  97.4455051  61.9037948   7.4448464
  98.1326090  61.5899678   6.8569479  97.2903179  62.8079313   7.1715715
 102.2489773  56.7928144  11.8733487 102.1647961  56.1853814  11.1383897
 101.4272479  57.2837163  11.8742984 111.7825740  70.1302142  13.2424814
 112.4953713  70.7649607  13.1700715 111.2915769  70.2266008  12.4264816
 109.0048455  57.4199091   6.9675367 108.6346243  56.8670131   7.6556272
 109.5007548  56.8157224   6.4150367 106.8337654  67.8796586  14.0630385
 107.5347113  68.5133069  14.2159779 106.3632769  68.2211318  13.3026024
 114.6338940  60.4341193  11.8882935 113.9810390  60.6817101  11.2335388
 115.0119320  59.6205332  11.5545412 110.6826513  61.1761004  18.3748972
 110.0067150  61.0755134  19.0451347 111.5054147  61.0200218  18.8384969
 102.4305372  67.4132941  10.9961487 103.0158809  66.6676629  11.1289392
 102.2330210  67.7236898  11.8798151  97.0223027  59.9838541   9.7165931
  97.0607126  59.4502132  10.5103049  96.5163320  59.4573747   9.0976908
 104.4013789  54.8303082  13.2128473 104.4655116  55.6917913  12.8005871
 104.3380909  54.2177083  12.4800831 103.8766062  56.9026214  16.8601507
 104.5038100  56.5203292  17.4739032 103.0193980  56.6840416  17.2257200
 114.2760170  67.3089189  18.4655243 114.8200074  67.9219148  17.9710197
 113.6947015  67.8668768  18.9822256 100.6531604  58.7102643   2.7919862
 100.9485045  57.8013322   2.7386916  99.7519640  58.6890383   2.4700864
 104.1825851  56.7858640   8.7747411 103.4612437  57.3994608   8.6354884
 104.9719107  57.3216405   8.6964057 106.9852165  54.1213066  15.0488062
 107.5086567  54.3675363  15.8114372 106.7664498  54.9533101  14.6291200
 102.3819446  56.3916741   2.9159187 102.0532152  55.5114120   2.7334293
 102.7358817  56.3364410   3.8035576 105.4961269  56.6789711   3.2834665
 105.8357342  57.2075632   2.5613273 105.9433390  57.0170117   4.0593231
 108.1904710  55.0626762  12.7337733 107.8501530  54.2634575  13.1358413
 107.4843716  55.3628472  12.1614566 108.8421182  52.1476074  11.1865056
 109.6647251  51.6736552  11.0643946 109.0859245  52.9266558  11.6863742
 106.3659760  58.8395195   8.9957035 106.2204341  59.1535498   9.8881316
 105.8884964  59.4580095   8.4427933 108.2256143  55.8297743   9.0437924
 108.2117712  54.9338836   8.7070222 108.9428571  55.8368406   9.6776210
 110.0782274  56.2635083  11.0891052 109.8200052  57.1852153  11.0875382
 109.5467314  55.8665517  11.7791516 100.8405423  61.3800539  11.9344696
 100.2958891  62.1560347  12.0664970 101.7184772  61.7271343  11.7763817
 107.6293039  54.7112123   4.3125494 107.7508950  53.7828769   4.5116382
 107.3395082  54.7250809   3.4003810 101.6271444  60.5070435  14.8274853
 100.8853181  60.6553071  15.4139483 101.3064189  60.7678701  13.9641602
 109.5715107  70.0486414  14.6255243 109.8802234  69.8035560  15.4977942
 110.3690589  70.2533052  14.1374113 100.2736663  66.3122190   7.8174181
  99.4368572  65.8844365   7.6358182 100.2460309  66.5054634   8.7544972
 107.1134119  56.2244120  18.5215427 107.1622274  57.1006243  18.1393196
 107.6556633  55.6821513  17.9487070 117.5988965  66.7685244  17.8016564
 116.8084508  66.7509382  17.2621063 117.3622319  67.3073537  18.5565601
 117.7186840  63.6177710  15.1149292 117.7684844  63.4527717  16.0564815
 117.6100763  62.7504969  14.7247173 115.0090602  59.6008638  16.4308599
 115.9100465  59.4615103  16.1392597 115.0838576  59.7663093  17.3706777
 109.3433407  56.9775493  15.2761785 108.4736717  57.2709059  15.0044374
 109.5792888  57.5615938  15.9969049 119.2205036  66.0374651  15.3591314
 118.9289845  66.4004632  16.1954775 118.6077168  65.3241660  15.1804646
 117.4692225  61.1607266  13.8271372 117.9446346  61.3534912  13.0190223
 116.5457790  61.2166452  13.5814756 112.0472441  53.1955110  12.7927206
 112.5654385  53.9316137  12.4673694 111.6927574  53.5019103  13.6273965
 116.1693894  58.0373026  12.0599678 117.1211317  58.1371124  12.0811902
 115.9997344  57.2451295  12.5697762 114.1908273  55.1228609  12.2459079
 113.5958205  55.4033622  11.5505567 113.9057970  55.6122510  13.0175820
 118.6481971  61.2579146  11.1741977 118.6158292  60.3195147  11.3601661
 119.2582595  61.3363183  10.4407802 110.3703995  64.1792945  18.6769838
 111.2907004  64.3571544  18.8709885 110.3353578  63.2348990  18.5249538
  99.5886160  59.3731539   7.6023113  99.2688944  58.5196847   7.3097487
  99.0419588  59.5880117   8.3581080 103.3666067  62.0893980  11.3192619
 103.5852077  63.0211087  11.3380653 103.7791841  61.7301954  12.1047423
 108.2393933  57.6627185  20.7095368 108.1390660  58.6121542  20.6407459
 108.0215475  57.3345424  19.8371438  99.4574420  62.9934450   9.5716234
  98.7637891  62.5788403   9.0586189 100.2047411  63.0354987   8.9749653
 108.1025203  61.0924324  19.5260430 107.6192284  61.8924684  19.7324319
 108.1886142  61.1032269  18.5727874 101.3711162  62.9252704   7.4482249
 101.3481850  63.0240391   6.4964132 101.6811799  63.7717855   7.7699415
 104.0298540  64.9828859  11.5628864 104.9841794  64.9512801  11.4958795
 103.8311064  64.5219483  12.3779090 104.6197922  63.5529975  14.1299661
 105.4390811  64.0474054  14.1534499 104.8934730  62.6361943  14.1017229
  99.8732837  57.8868109  14.8291859 100.5191700  57.3767063  15.3179084
  99.6649988  58.6236790  15.4035284 112.3986229  64.9548956  20.3283999
 113.2677388  65.1289609  19.9670634 111.9192980  65.7743373  20.2059728
 106.5672409  72.0746057  12.0073433 107.4699656  72.1069668  12.3239928
 106.3409779  71.1446508  12.0219769 104.2130328  55.0335726  18.9266873
 105.0761789  54.6772531  19.1370197 103.6395738  54.6949621  19.6142277
 116.7711828  68.4416443  19.9196844 116.3778774  67.8882641  20.5944489
 117.5877969  68.7527021  20.3103362 119.6879789  69.8574322  17.5117101
 120.4289503  70.4581475  17.4321563 119.9197712  69.1151959  16.9535143
 114.7159816  72.2318132  16.8601507 115.3431855  71.8495209  17.4739032
 113.8587735  72.0132334  17.2257200 117.9527873  71.5536038  18.5215427
 118.0016029  72.4298161  18.1393196 118.4950388  71.0113431  17.9487070
 119.0787687  72.9919103  20.7095368 118.9784414  73.9413460  20.6407459
 118.8609229  72.6637342  19.8371438 110.7126591  73.2160026  14.8291859
 111.3585455  72.7058980  15.3179084 110.5043742  73.9528708  15.4035284
 115.0524082  70.3627644  18.9266873 115.9155544  70.0064448  19.1370197
 114.4789493  70.0241538  19.6142277   4.8220799  77.4911466  87.2355927
   4.0684508  76.9218864  87.0799931   4.9568340  77.4574130  88.1826561
   1.6436547  77.4614216  85.1399594   2.0867693  76.7121541  84.7418717
   0.7663057  77.4524352  84.7573326   1.1869412  78.9319454  87.5322041
   2.0216303  79.3709258  87.6959602   1.3228541  78.4558107  86.7130287
   5.2327214  77.6487076  89.9676171   5.9630603  77.3872364  90.5283874
   4.6234160  76.9115798  90.0078239   3.3142511  75.7894938  90.5650622
   2.5875675  75.6550903  89.9567114   2.8989798  76.0971767  91.3707340
   0.9320306  72.0106790  87.9184054   1.5264797  71.7702526  87.2077362
   1.0046890  71.2913921  88.5457590   3.2391379  75.3172991  86.6927475
   2.6790937  75.3866181  87.4659037   2.6334882  75.1413976  85.9726971
   4.8247398  91.9929505  89.3857431   5.4625808  91.8736253  88.6820771
   4.7068240  92.9410349  89.4445383   1.6337104  91.9456933  89.3218956
   1.2955615  91.8297998  88.4339490   2.5026872  91.5448098  89.3019962
   3.0723478  97.4663377  80.6230311   2.4211458  98.0517458  80.2364325
   3.8667841  97.9969572  80.6825349   4.3788666  89.7180959  86.4610639
   5.1651755  89.3000382  86.1101056   4.6427370  90.6227051  86.6292287
   4.5498743  95.1553809  81.1599296   3.9144576  95.2288436  81.8720200
   4.2196150  95.7447408  80.4818375   9.7797093  89.6556192  87.3643617
  10.5122265  89.0855409  87.5981447   9.0236449  89.2677793  87.8050123
   1.3973213  92.0783434  84.5606960   1.0331420  91.5514055  85.2719881
   2.2540329  91.6881903  84.3873445   7.3022514  83.3677766  91.8238226
   6.9705838  84.2373177  91.5999441   6.7068127  83.0514050  92.5032256
   1.0378700  87.1073333  79.5568308   1.2053102  87.9753570  79.9238779
   0.8475869  87.2700615  78.6329598   3.7954033  95.5690312  91.2234139
   3.4954756  96.4715351  91.1149946   3.4505093  95.3022496  92.0755292
   7.1951177  88.0872853  88.9031576   6.2868054  88.0188261  88.6090337
   7.1438773  88.5644797  89.7313402   9.0612823  86.2889291  90.6809450
   8.4187204  86.5821824  90.0349245   8.5567752  86.1742211  91.4862647
   6.7152987  90.0352464  81.3695309   7.6270843  90.2679851  81.1943007
   6.2062634  90.6189508  80.8070388   4.9993755  94.4577092  95.0056602
   5.4077111  94.0159502  94.2611234   4.2771016  93.8829719  95.2590795
   1.3524825  89.3949699  92.3790159   2.1986020  89.8189112  92.5224808
   1.2923462  88.7383323  93.0728722   5.3222569  95.0178283  88.7608891
   4.6931432  95.1823997  88.0584959   4.9348231  95.4319892  89.5319855
   9.2011801  95.9532720  86.1153254   8.5162839  96.3331622  85.5650288
   9.2855650  96.5628047  86.8485202   4.5024270  87.0554067  94.0371332
   4.2585202  87.8096128  93.5005608   4.7784200  87.4339415  94.8718579
   6.4562733  93.5992679  92.7148598   6.6679628  94.2424439  92.0382979
   6.4092481  92.7654996  92.2470528   4.0588962  86.2110500  89.6185170
   3.1973441  86.5091754  89.9101908   4.0851396  86.4280899  88.6866203
   0.8750531  94.7552691  86.0258976   1.3388877  95.0340394  85.2363598
   0.6107329  93.8536135  85.8432066   7.5708561  96.4764635  90.8870955
   8.3926004  96.0744822  90.6053637   7.5670964  96.3732869  91.8387071
  15.6614554  92.8203383  87.2355927  14.9078262  92.2510781  87.0799931
  15.7962095  92.7866048  88.1826561   1.0513182  97.6916786  82.9110646
   0.9158857  98.5368321  83.3395494   1.5922994  97.8936063  82.1476580
   4.4005645  81.2147348  91.4409540   4.0569915  82.1048989  91.3648650
   4.7684608  81.0249005  90.5779125   4.3655928  91.2055959  79.9481975
   3.8502552  91.9760563  80.1870362   4.0933237  90.5321095  80.5715036
   1.9503039  86.0505659  85.0067213   1.0944635  85.6612510  84.8272852
   2.3629991  86.1297620  84.1466999   3.4802186  83.5852003  89.4058773
   2.9766981  83.5482138  88.5926578   3.7732793  84.4944745  89.4655430
   9.3390202  93.9588313  81.8835148   8.5619645  93.6199473  81.4390310
  10.0181683  93.9640936  81.2090113   4.1542231  89.0783051  81.7741756
   3.8492367  89.3929200  82.6251899   5.1072673  89.1564471  81.8169089
   2.5988663  95.2373274  83.4234710   2.0710025  94.5026034  83.1107947
   2.0976166  96.0147950  83.1774678   7.5781509  93.4322295  88.5401756
   6.9205184  94.1221556  88.6281885   8.3821908  93.8218726  88.8835743
   6.3886968  91.7866667  86.5905698   6.9018850  92.4196659  87.0927408
   7.0388192  91.1867863  86.2249058   3.6509342 101.7650992  79.3466369
   2.9771041 102.0682688  79.9551327   4.0375164 102.5680072  78.9971826
   2.8667799  89.2616123  88.8364038   1.9490360  89.4831070  88.6785727
   3.2827942  89.3362433  87.9775746   3.6502847  90.6607538  83.9666719
   4.3974665  91.1728936  83.6573841   3.9194436  90.3391591  84.8271112
   1.9229497  93.1566079  80.9493673   1.0140716  92.8725112  81.0466143
   1.9524581  93.5765158  80.0896980   7.1548764  96.7672669  84.7184841
   6.7011091  95.9263579  84.7750031   6.5242731  97.4034067  85.0559621
   6.0981684  87.6964655  85.9485508   5.3604440  87.1842041  86.2795751
   6.3508457  87.2565036  85.1368785   5.5981703  98.6049165  85.6534659
   5.8904678  99.1654222  84.9347024   6.1080324  98.8977726  86.4087818
   6.1993311  80.4740907  86.5427277   6.5052188  79.6138270  86.2553192
   6.9245916  81.0658527  86.3426271   1.6205585  94.6974823  78.2881752
   1.1825014  93.9810682  77.8287389   2.3616025  94.9250938  77.7266843
   0.5615329  99.3829516  86.7428112   0.5191507  99.6090363  85.8136644
   1.4778027  99.1492891  86.8913913   4.0080962  89.8513584  93.6408741
   4.3630350  90.0785057  94.5003207   4.6553094  90.1831961  93.0185996
   9.7378699  92.9732020  84.3458070   9.5996598  93.1633616  83.4179259
   9.3814918  93.7351403  84.8026121   9.7648079  95.0408547  89.3569342
  10.1984586  94.9483836  90.2052396  10.4779660  95.0166047  88.7189358
   3.4975974  98.6410641  90.8902442   3.5512996  99.2101577  91.6580158
   2.6290755  98.8112526  90.5256479  10.6263628  95.0832248  91.8902227
  10.8199519  95.9878058  92.1361502  10.5264247  94.6239667  92.7240812
   2.2799939  84.9690138  94.3892554   1.6327854  85.6680088  94.2957031
   3.0500955  85.4026282  94.7568803   2.4564074  92.8070903  92.4489374
   3.3856134  92.9582063  92.2758341   2.0355104  92.8954924  91.5938021
   1.8500557 101.9330664  81.5613448   2.0252313 101.4618707  82.3759071
   1.1633345 102.5596430  81.7894709   2.8057620  96.2103170  87.6076750
   2.4707453  96.1703940  88.5034399   2.3061566  95.5447886  87.1347160
   5.7416812  93.5559205  77.8813809   5.1245983  92.8306033  77.7846862
   5.2733301  94.3168565  77.5380883   7.3970944  98.2658113  95.5419590
   7.3383490  97.5817333  94.8750173   7.7990462  99.0077103  95.0900216
   7.3988351  96.2297697  93.7733569   6.5115130  95.8923619  93.8959968
   7.9686902  95.4980728  94.0102335   4.0275934  85.9365549  86.8931839
   4.5244634  85.1835511  86.5732910   3.2562916  85.9729865  86.3275049
  11.8805692  91.6405914  88.5350131  11.8695568  92.5230630  88.1644064
  11.0123071  91.2877465  88.3404668   5.1105715  94.6937236  84.4670263
   4.1761994  94.8138698  84.2974967   5.2882383  93.7909703  84.2030273
   8.4978266  90.5354555  85.0020297   8.9638718  91.3682547  84.9280600
   8.9485767  90.0699537  85.7065555   6.5654497  96.8798376  82.0006449
   6.8414341  96.7654971  82.9100323   5.6958996  96.4815861  81.9618622
   6.4694929  82.9035142  89.0411198   5.5558009  83.1339369  89.2093405
   6.8988030  82.9873586  89.8925231   6.2401387  91.0925034  91.5411092
   5.5872838  91.3400942  90.8863545   6.6181767  90.2789172  91.2073570
   3.2008561 101.1284727  85.6439263   3.3830956 100.3106383  86.1067015
   4.0241547 101.3452420  85.2064153   3.5350727 100.0552912  82.9054311
   4.0638493  99.5445367  82.2924473   3.7978946  99.7395443  83.7699844
   4.1680131 101.0893748  89.2498428   4.0431270 100.2883488  88.7409373
   4.8259222 101.5839942  88.7612397   6.2315039  98.8902768  90.8777978
   5.2845375  98.7708119  90.8056304   6.5797812  98.0025266  90.9604239
   3.2361472  98.6855484  87.0782330   3.0886435  97.7572192  87.2589900
   4.0614966  98.7075575  86.5939405   6.8395594  99.5084043  88.1647203
   7.7642142  99.3026905  88.0271654   6.6710898  99.2600444  89.0736544
   3.2322987  86.5393322  82.0714447   3.4486601  87.4217960  81.7703275
   2.7517054  86.1479535  81.3420089   1.6844722  86.9218924  90.7419209
   1.4262499  87.8435994  90.7403539   1.1529762  86.5249358  91.4319673
   6.6290910 100.0269711  83.5209294   6.8027788  99.4616133  82.7683146
   7.1219802 100.8270606  83.3388784   2.1046677  83.0550874  87.1020371
   2.1268374  83.1190207  86.1472351   2.5214736  82.2155383  87.2960877
  12.4830302  92.7906134  85.1399594  12.9261448  92.0413459  84.7418717
  11.6056812  92.7816270  84.7573326   7.6166083  99.3436475  80.6206192
   8.3116988  99.9643168  80.8393507   7.9589233  98.4931826  80.8958570
   9.5157506  96.7936181  82.1493523  10.0408830  97.1323453  81.4242843
   9.4279859  95.8583196  81.9656658   1.1998167 102.8608164  86.5088776
   0.7603157 102.3684543  87.2021633   1.9506284 102.3181131  86.2680851
   9.3249287  94.2761551  94.7677450   9.3747292  94.1111558  95.7092972
   9.2163210  93.4088810  94.3775330   6.6153050  90.2592479  96.0836756
   7.5162912  90.1198943  95.7920754   6.6901024  90.4246933  97.0234934
  10.8267484  96.6958492  95.0119471  10.5352292  97.0588473  95.8482932
  10.2139615  95.9825500  94.8332803  12.0263166  94.2611372  87.5322041
  12.8610058  94.7001176  87.6959602  12.1622295  93.7850025  86.7130287
   9.0754672  91.8191107  93.4799529   9.5508794  92.0118753  92.6718380
   8.1520238  91.8750293  93.2342913   3.6534889  83.8538950  92.4455363
   4.1716833  84.5899977  92.1201852   3.2990021  84.1602944  93.2802122
   3.9047483  80.2739233  87.9656260   4.1849237  79.6062422  88.5916686
   4.6898090  80.4668328  87.4530923   1.7080951  99.4498227  79.5281286
   1.1354918 100.0688414  79.0751758   2.2813745  99.9997588  80.0621208
   7.7756341  88.6956867  91.7127835   8.7273764  88.7954964  91.7340059
   7.6059792  87.9035135  92.2225919   5.7970721  85.7812450  91.8987236
   5.2020653  86.0617463  91.2033724   5.5120417  86.2706351  92.6703977
   4.9278211  99.7335377  80.6589868   5.8608884  99.6680939  80.8622744
   4.8401424 100.5691644  80.2004401   7.5566228  99.0501247  77.6193816
   7.4779859  98.7161111  78.5129574   8.3775895  99.5423015  77.6185288
  10.2544419  91.9162986  90.8270134  10.2220739  90.9778987  91.0129818
  10.8645043  91.9947023  90.0935959   2.0927750  90.7859039  76.8697338
   3.0386855  90.6565248  76.9385756   1.7141995  90.0473701  77.3466767
  10.4038907  88.7074030  90.8728418   9.8877956  87.9232487  90.6858346
  11.2878856  88.3792747  91.0374937   8.0649634  82.4515045  86.8324230
   7.8674456  82.1430134  87.7167562   8.6749340  83.1776684  86.9622160
  16.0720969  92.9778993  89.9676171  16.8024357  92.7164281  90.5283874
  15.4627914  92.2407715  90.0078239  14.1536266  91.1186856  90.5650622
  13.4269430  90.9842821  89.9567114  13.7383553  91.4263685  91.3707340
   1.8932733  83.2545906  82.9596465   1.0833461  82.9092991  83.3351711
   2.5817150  82.9453449  83.5484076   3.8223281  82.3323952  84.5820762
   4.3754320  82.7519406  85.2410785   4.0593367  81.4059700  84.6243718
   7.2002088  84.4424478  84.0899426   6.6200757  85.1009282  83.7077478
   6.9338021  83.6201822  83.6786843   5.6505654  83.8429535  86.2920746
   6.1505433  83.9546070  85.4835065   6.2941262  83.5390588  86.9321555
   5.9826966  86.6024568  83.1455774   5.0952821  86.8874219  82.9275969
   6.3980955  86.4418331  82.2983051   9.3341502  86.6271089  86.8610113
  10.1101892  87.1167541  87.1334730   8.6089636  87.0529143  87.3181983
  11.7714061  87.3398708  87.9184054  12.3658552  87.0994444  87.2077362
  11.8440645  86.6205839  88.5457590   5.1270180  96.3669243  77.2403794
   5.8306030  96.5719245  77.8561450   4.4032828  96.9346004  77.5052878
   5.9567990  92.1179104  83.3606064   5.9003191  92.5747655  82.5213697
   6.5096332  91.3569788  83.1828907   9.7672796  87.9068836  84.1856184
   9.5109730  87.5065471  85.0164391   9.1425664  88.6212630  84.0606323
  14.0785134  90.6464909  86.6927475  13.5184692  90.7158098  87.4659037
  13.4728637  90.4705894  85.9726971   7.0356877  96.8051772  79.2902254
   7.8702481  96.3732970  79.1079729   6.8741220  96.6333785  80.2179149
   6.6902769  93.3083885  80.6558593   6.6351573  93.1428157  79.7147038
   6.0648824  94.0159918  80.8120783   3.8151014  79.4034771  84.4889849
   3.0483410  78.8493257  84.6346531   4.2261719  79.4756639  85.3504000
  15.6641152 107.3221423  89.3857431  16.3019562 107.2028170  88.6820771
  15.5461995 108.2702267  89.4445383  12.4730858 107.2748851  89.3218956
  12.1349370 107.1589916  88.4339490  13.3420627 106.8740016  89.3019962
  10.1739138 106.0437098  78.6535896  10.4264658 105.5218620  77.8919359
   9.2363697 105.8803244  78.7562579  15.2182421 105.0472877  86.4610639
  16.0045510 104.6292300  86.1101056  15.4821125 105.9518969  86.6292287
  20.6190848 104.9848110  87.3643617  21.3516020 104.4147327  87.5981447
  19.8630203 104.5969710  87.8050123  12.2366967 107.4075351  84.5606960
  11.8725175 106.8805972  85.2719881  13.0934083 107.0173820  84.3873445
  18.1416268  98.6969684  91.8238226  17.8099593  99.5665095  91.5999441
  17.5461881  98.3805968  92.5032256  11.8772454 102.4365251  79.5568308
  12.0446857 103.3045488  79.9238779  11.6869623 102.5992533  78.6329598
  18.0344931 103.4164770  88.9031576  17.1261809 103.3480179  88.6090337
  17.9832527 103.8936715  89.7313402  11.8561675 104.8922909  80.5414975
  11.7361300 105.3379959  81.3800455  11.1614264 105.2408226  79.9828513
  19.9006578 101.6181209  90.6809450  19.2580958 101.9113742  90.0349245
  19.3961506 101.5034129  91.4862647  17.5546741 105.3644382  81.3695309
  18.4664598 105.5971769  81.1943007  17.0456388 105.9481426  80.8070388
  15.8387509 109.7869010  95.0056602  16.2470865 109.3451420  94.2611234
  15.1164771 109.2121637  95.2590795  12.1918579 104.7241616  92.3790159
  13.0379774 105.1481030  92.5224808  12.1317217 104.0675241  93.0728722
  15.3418024 102.3845985  94.0371332  15.0978956 103.1388045  93.5005608
  15.6177955 102.7631332  94.8718579  17.2956487 108.9284597  92.7148598
  17.5073382 109.5716357  92.0382979  17.2486235 108.0946914  92.2470528
  14.8982716 101.5402418  89.6185170  14.0367195 101.8383671  89.9101908
  14.9245151 101.7572817  88.6866203  10.6513172 106.2067761  82.8348541
  11.3537215 106.6588804  83.3022467  10.3193800 105.5651580  83.4628434
   4.3938506 104.4651313  88.1365674   3.6037560 104.7208842  87.6605785
   4.8849753 105.2799651  88.2417715   6.3453251 104.8295893  85.0949151
   5.5484414 104.9414587  85.6132647   6.1178843 105.1682545  84.2290042
  26.5008308 108.1495301  87.2355927  25.7472017 107.5802699  87.0799931
  26.6355849 108.1157966  88.1826561  11.2942237 100.5158162  97.1645258
  12.0351950 101.1165315  97.0849720  11.5260160  99.7735800  96.6063301
  15.2399400  96.5439265  91.4409540  14.8963669  97.4340907  91.3648650
  15.6078362  96.3540923  90.5779125  15.2049683 106.5347876  79.9481975
  14.6896306 107.3052481  80.1870362  14.9326991 105.8613012  80.5715036
  12.7896794 101.3797577  85.0067213  11.9338390 100.9904428  84.8272852
  13.2023745 101.4589538  84.1466999  14.3195940  98.9143920  89.4058773
  13.8160736  98.8774056  88.5926578  14.6126547  99.8236663  89.4655430
  10.5638826  98.9982650  88.4124955  11.4291823  98.8025459  88.0530844
  10.6316335  98.7693002  89.3394311  20.1783957 109.2880231  81.8835148
  19.4013399 108.9491390  81.4390310  20.8575438 109.2932854  81.2090113
  14.9935986 104.4074968  81.7741756  14.6886121 104.7221118  82.6251899
  15.9466428 104.4856388  81.8169089  18.4175264 108.7614212  88.5401756
  17.7598938 109.4513474  88.6281885  19.2215663 109.1510644  88.8835743
   8.1701145 101.2284858  85.7841321   8.7444897 101.0060040  85.0514514
   8.7572128 101.2973553  86.5369923  17.2280722 107.1158585  86.5905698
  17.7412604 107.7488577  87.0927408  17.8781946 106.5159780  86.2249058
   8.4970732 103.2589319  79.8037207   7.6608045 103.5964006  80.1246481
   8.3575502 103.1238299  78.8664344  10.4723813  98.1026107  84.5116391
   9.8188225  97.7875124  83.8873006  10.4304287  97.4801847  85.2376214
  11.5835018 108.3845402  76.4269683  10.6762079 108.1534655  76.6260832
  12.0806050 107.5883021  76.6143664  13.7061553 104.5908040  88.8364038
  12.7884115 104.8122987  88.6785727  14.1221697 104.6654351  87.9775746
  14.4896601 105.9899456  83.9666719  15.2368420 106.5020853  83.6573841
  14.7588191 105.6683509  84.8271112  12.7623251 108.4857997  80.9493673
  11.8534470 108.2017030  81.0466143  12.7918335 108.9057075  80.0896980
  16.9375438 103.0256572  85.9485508  16.1998195 102.5133959  86.2795751
  17.1902212 102.5856954  85.1368785  17.0387065  95.8032824  86.5427277
  17.3445942  94.9430188  86.2553192  17.7639670  96.3950445  86.3426271
  11.3108145 106.0986617  87.0503468  11.3656755 105.1460454  86.9745945
  10.4999347 106.2546057  87.5344767   9.2500505 104.7163677  84.8093847
   8.4368371 105.0157848  85.2159039   9.7459499 104.3219366  85.5268329
  14.8474717 105.1805502  93.6408741  15.2024105 105.4076975  94.5003207
  15.4946848 105.5123878  93.0185996  20.5772454 108.3023938  84.3458070
  20.4390352 108.4925534  83.4179259  20.2208673 109.0643320  84.8026121
   8.7414580 102.2882033  90.4255082   9.3813959 102.1470792  89.7278046
   7.9092110 102.0016546  90.0493684  20.6041833 110.3700465  89.3569342
  21.0378340 110.2775754  90.2052396  21.3173414 110.3457965  88.7189358
   5.8257647 105.7327545  82.6149827   4.8955235 105.6712000  82.8319789
   5.9215119 105.2103498  81.8186469   5.7443196 102.2582358  85.2028069
   6.0050014 103.1727691  85.0937229   6.5660369 101.7906800  85.3524682
  21.4657383 110.4124165  91.8902227  21.6593273 111.3169976  92.1361502
  21.3658001 109.9531584  92.7240812  13.1193694 100.2982056  94.3892554
  12.4721609 100.9972005  94.2957031  13.8894709 100.7318200  94.7568803
  13.2957828 108.1362821  92.4489374  14.2249888 108.2873980  92.2758341
  12.8748858 108.2246842  91.5938021  16.5810567 108.8851122  77.8813809
  15.9639737 108.1597950  77.7846862  16.1127055 109.6460482  77.5380883
   8.3709113 103.1036547  77.0035113   7.4938579 102.9825347  76.6397360
   8.8466866 102.3122625  76.7514002  14.8669689 101.2657466  86.8931839
  15.3638388 100.5127429  86.5732910  14.0956670 101.3021783  86.3275049
  22.7199446 106.9697832  88.5350131  22.7089322 107.8522547  88.1644064
  21.8516826 106.6169383  88.3404668  11.4504657 103.4074849  86.6203524
  11.0802445 102.8545890  87.3084430  11.9463750 102.8032983  86.0678524
  19.3372021 105.8646473  85.0020297  19.8032473 106.6974464  84.9280600
  19.7879521 105.3991454  85.7065555  17.3088683  98.2327060  89.0411198
  16.3951763  98.4631287  89.2093405  17.7381785  98.3165504  89.8925231
  17.0795142 106.4216952  91.5411092  16.4266592 106.6692859  90.8863545
  17.4575522 105.6081090  91.2073570   6.8469991 100.8178840  92.8656630
   6.9111318 101.6793671  92.4534028   6.7837111 100.2052842  92.1328989
   3.0987806 104.6978402  82.4448019   3.3941247 103.7889080  82.3915073
   2.1975842 104.6766141  82.1229021   6.6282053 102.7734398  88.4275568
   5.9068639 103.3870366  88.2883041   7.4175309 103.3092163  88.3492214
   9.4308367 100.1088825  94.7016219   9.9542769 100.3551121  95.4642529
   9.2120700 100.9408860  94.2819357   4.8275648 102.3792499  82.5687344
   4.4988354 101.4989878  82.3862450   5.1815019 102.3240168  83.4563734
   7.9417471 102.6665469  82.9362822   8.2813544 103.1951390  82.2141430
   8.3889592 103.0045875  83.7121388  10.6360912 101.0502520  92.3865890
  10.2957732 100.2510333  92.7886570   9.9299918 101.3504231  91.8142723
  11.2877384  98.1351832  90.8393213  12.1103453  97.6612311  90.7172103
  11.5315447  98.9142316  91.3391899   9.9285618 101.1640091  81.1356115
  10.6493981 101.5421344  80.6319832   9.3050922 101.8828968  81.2391093
  14.0716741 101.8685240  82.0714447  14.2880356 102.7509878  81.7703275
  13.5910808 101.4771453  81.3420089   8.8115963 104.8270953  88.6485192
   8.6660543 105.1411256  89.5409473   8.3341166 105.4455853  88.0956090
  10.6712345 101.8173501  88.6966081  10.6573914 100.9214594  88.3598379
  11.3884774 101.8244165  89.3304367  12.5238476 102.2510841  90.7419209
  12.2656254 103.1727912  90.7403539  11.9923516 101.8541276  91.4319673
  10.0749241 100.6987881  83.9653651  10.1965153  99.7704527  84.1644539
   9.7851284 100.7126567  83.0531967  12.9440432  98.3842792  87.1020371
  12.9662129  98.4482125  86.1472351  13.3608491  97.5447300  87.2960877
  23.3224056 108.1198051  85.1399594  23.7655202 107.3705376  84.7418717
  22.4450566 108.1108188  84.7573326  20.1643042 109.6053468  94.7677450
  20.2141047 109.4403476  95.7092972  20.0556965 108.7380727  94.3775330
  17.4546804 105.5884396  96.0836756  18.3556667 105.4490861  95.7920754
  17.5294779 105.7538851  97.0234934  11.7889609 102.9651251  94.9289943
  10.9192919 103.2584817  94.6572531  12.0249090 103.5491696  95.6497206
  22.8656921 109.5903290  87.5322041  23.7003812 110.0293094  87.6959602
  23.0016050 109.1141943  86.7130287  19.9148427 107.1483024  93.4799529
  20.3902548 107.3410671  92.6718380  18.9913992 107.2042210  93.2342913
  14.4928643  99.1830868  92.4455363  15.0110587  99.9191895  92.1201852
  14.1383776  99.4894861  93.2802122   6.0727581 104.0435549  80.5616769
   5.3796826 104.1179904  79.9056805   5.8279333 103.2795893  81.0838286
  14.7441237  95.6031150  87.9656260  15.0242991  94.9354340  88.5916686
  15.5291844  95.7960246  87.4530923  18.6150096 104.0248784  91.7127835
  19.5667519 104.1246882  91.7340059  18.4453546 103.2327053  92.2225919
  16.6364475 101.1104368  91.8987236  16.0414407 101.3909380  91.2033724
  16.3514172 101.5998269  92.6703977  21.0938173 107.2454904  90.8270134
  21.0614494 106.3070905  91.0129818  21.7038797 107.3238941  90.0935959
  12.9321504 106.1150957  76.8697338  13.8780609 105.9857165  76.9385756
  12.5535749 105.3765619  77.3466767  21.2432662 104.0365948  90.8728418
  20.7271711 103.2524404  90.6858346  22.1272610 103.7084664  91.0374937
  18.9043389  97.7806963  86.8324230  18.7068210  97.4722051  87.7167562
  19.5143094  98.5068602  86.9622160  26.9114723 108.3070911  89.9676171
  27.6418112 108.0456199  90.5283874  26.3021669 107.5699633  90.0078239
  24.9930020 106.4478774  90.5650622  24.2663184 106.3134739  89.9567114
  24.5777307 106.7555602  91.3707340  11.1164421 104.0400934  76.8052224
  10.2095877 103.7434046  76.8814937  11.3940402 103.7430752  75.9386510
  12.7326487  98.5837823  82.9596465  11.9227216  98.2384908  83.3351711
  13.4210904  98.2745367  83.5484076  14.6617035  97.6615870  84.5820762
  15.2148074  98.0811323  85.2410785  14.8987122  96.7351618  84.6243718
   9.8863206 100.8987869  76.9464203  10.7482370 101.2242767  77.2060020
  10.0713550 100.1119365  76.4337269  18.0395843  99.7716395  84.0899426
  17.4594512 100.4301199  83.7077478  17.7731775  98.9493740  83.6786843
  16.4899409  99.1721453  86.2920746  16.9899187  99.2837987  85.4835065
  17.1335017  98.8682506  86.9321555  16.8220721 101.9316486  83.1455774
  15.9346576 102.2166136  82.9275969  17.2374710 101.7710249  82.2983051
  20.1735257 101.9563007  86.8610113  20.9495647 102.4459459  87.1334730
  19.4483391 102.3821061  87.3181983  22.6107815 102.6690626  87.9184054
  23.2052306 102.4286362  87.2077362  22.6834399 101.9497756  88.5457590
  16.7961744 107.4471022  83.3606064  16.7396946 107.9039573  82.5213697
  17.3490087 106.6861706  83.1828907  20.6066550 103.2360753  84.1856184
  20.3503484 102.8357389  85.0164391  19.9819418 103.9504547  84.0606323
  24.9178888 105.9756827  86.6927475  24.3578446 106.0450016  87.4659037
  24.3122391 105.7997811  85.9726971  17.5296524 108.6375803  80.6558593
  17.4745327 108.4720074  79.7147038  16.9042579 109.3451836  80.8120783
  10.8392649  98.1383912  80.2343912  10.8271319  99.0825752  80.3912183
  11.7316071  97.9554057  79.9403373  14.6544769  94.7326688  84.4889849
  13.8877164  94.1785175  84.6346531  15.0655474  94.8048557  85.3504000
  26.0793154 111.8731183  91.4409540  25.7357424 112.7632825  91.3648650
  26.4472117 111.6832841  90.5779125  27.8780820 111.1324742  86.5427277
  28.1839697 110.2722106  86.2553192  28.6033425 111.7242362  86.3426271
  28.1482438 113.5618977  89.0411198  27.2345518 113.7923204  89.2093405
  28.5775539 113.6457422  89.8925231  25.5834992 110.9323068  87.9656260
  25.8636746 110.2646257  88.5916686  26.3685599 111.1252164  87.4530923
  29.7437143 113.1098881  86.8324230  29.5461964 112.8013969  87.7167562
  30.3536849 113.8360520  86.9622160  25.5010790 112.9907788  84.5820762
  26.0541829 113.4103241  85.2410785  25.7380876 112.0643536  84.6243718
  25.4938523 110.0618606  84.4889849  24.7270919 109.5077093  84.6346531
  25.9049228 110.1340475  85.3504000   4.8220801  54.4973588  73.9601233
   4.0684509  53.9280986  73.8045238   4.9568342  54.4636253  74.9071868
   1.6436548  54.4676338  71.8644900   2.0867694  53.7183664  71.4664024
   0.7663059  54.4586475  71.4818632   1.1869413  55.9381577  74.2567348
   2.0216304  56.3771381  74.4204908   1.3228542  55.4620230  73.4375594
   5.2327216  54.6549198  76.6921478   5.9630604  54.3934486  77.2529181
   4.6234161  53.9177920  76.7323546   3.3142513  52.7957061  77.2895929
   2.5875676  52.6613026  76.6812421   2.8989800  53.1033889  78.0952647
   0.9320308  49.0168913  74.6429361   1.5264798  48.7764649  73.9322669
   1.0046891  48.2976044  75.2702897   3.2391380  52.3235114  73.4172782
   2.6790938  52.3928303  74.1904344   2.6334884  52.1476099  72.6972278
   4.8247399  68.9991628  76.1102737   5.4625809  68.8798375  75.4066078
   4.7068242  69.9472472  76.1690690   1.6337105  68.9519056  76.0464262
   1.2955617  68.8360121  75.1584797   2.5026873  68.5510221  76.0265268
   2.1156888  70.1053908  82.0050468   2.1045529  69.7106706  81.1330971
   2.2777528  69.3719980  82.5984239   3.0723480  74.4725500  67.3475618
   2.4211459  75.0579580  66.9609632   3.8667842  75.0031695  67.4070656
   4.3788667  66.7243082  73.1855946   5.1651757  66.3062505  72.8346363
   4.6427372  67.6289174  73.3537594   4.5498745  72.1615932  67.8844602
   3.9144578  72.2350558  68.5965507   4.2196151  72.7509531  67.2063682
   9.7797094  66.6618315  74.0888924  10.5122266  66.0917532  74.3226754
   9.0236450  66.2739915  74.5295430   1.3973214  69.0845556  71.2852266
   1.0331421  68.5576177  71.9965188   2.2540330  68.6944025  71.1118752
   7.3022515  60.3739889  78.5483533   6.9705840  61.2435300  78.3244748
   6.7068128  60.0576173  79.2277563   1.0378701  64.1135456  66.2813615
   1.2053104  64.9815692  66.6484086   0.8475870  64.2762738  65.3574904
   3.7954034  72.5752435  77.9479445   3.4954757  73.4777474  77.8395253
   3.4505094  72.3084618  78.8000598   7.1951178  65.0934975  75.6276883
   6.2868055  65.0250384  75.3335644   7.1438774  65.5706920  76.4558708
   1.2692044  66.5124621  83.5711780   0.4925378  67.0718541  83.5614645
   1.9082607  66.9981404  84.0926650   9.0612825  63.2951414  77.4054757
   8.4187205  63.5883947  76.7594551   8.5567753  63.1804334  78.2107953
   6.7152988  67.0414587  68.0940616   7.6270844  67.2741973  67.9188313
   6.2062635  67.6251631  67.5315694   4.9993756  71.4639215  81.7301908
   5.4077112  71.0221625  80.9856541   4.2771017  70.8891842  81.9836101
   1.3524826  66.4011821  79.1035465   2.1986021  66.8251235  79.2470114
   1.2923464  65.7445446  79.7974029   5.3222570  72.0240405  75.4854197
   4.6931433  72.1886119  74.7830265   4.9348233  72.4382015  76.2565161
   9.2011802  72.9594843  72.8398561   8.5162841  73.3393744  72.2895594
   9.2855652  73.5690170  73.5730509   4.5024271  64.0616190  80.7616639
   4.2585203  64.8158250  80.2250915   4.7784202  64.4401537  81.5963886
   6.4562734  70.6054802  79.4393905   6.6679629  71.2486562  78.7628286
   6.4092482  69.7717119  78.9715835   4.0588963  63.2172623  76.3430477
   3.1973442  63.5153876  76.6347214   4.0851398  63.4343022  75.4111509
   0.8750532  71.7614813  72.7504282   1.3388878  72.0402516  71.9608905
   0.6107330  70.8598258  72.5677373   7.5708562  73.4826757  77.6116262
   8.3926006  73.0806945  77.3298944   7.5670965  73.3794992  78.5632378
   1.3365165  73.0310801  79.7676972   1.4009598  73.4931208  80.6035144
   0.6276089  72.4008166  79.8959282  15.6614555  69.8265506  73.9601233
  14.9078263  69.2572904  73.8045238  15.7962096  69.7928170  74.9071868
   1.0513183  74.6978908  69.6355953   0.9158858  75.5430444  70.0640801
   1.5922996  74.8998186  68.8721887   2.6781659  75.3202475  83.7656295
   2.2345514  74.5338853  83.4477199   3.3398873  75.5081625  83.1000186
   4.7762897  75.6005275  81.7937696   4.7581373  76.4214156  81.3017965
   5.6982818  75.4759350  82.0187837   1.2335952  73.1149404  82.6361205
   1.7664288  72.3537692  82.4060512   0.7050033  72.8223056  83.3785359
   4.4005647  58.2209470  78.1654846   4.0569916  59.1111112  78.0893957
   4.7684609  58.0311128  77.3024431   4.3655929  68.2118081  66.6727281
   3.8502553  68.9822686  66.9115669   4.0933238  67.5383217  67.2960343
   1.9503040  63.0567782  71.7312520   1.0944637  62.6674632  71.5518158
   2.3629992  63.1359743  70.8712305   3.4802187  60.5914125  76.1304080
   2.9766983  60.5544260  75.3171885   3.7732794  61.5006868  76.1900736
   9.3390203  70.9650436  68.6080455   8.5619646  70.6261595  68.1635617
  10.0181684  70.9703059  67.9335420   4.1542232  66.0845173  68.4987063
   3.8492368  66.3991323  69.3497206   5.1072675  66.1626593  68.5414396
   2.5988664  72.2435397  70.1480017   2.0710026  71.5088156  69.8353254
   2.0976167  73.0210073  69.9019985   7.5781510  70.4384417  75.2647063
   6.9205185  71.1283679  75.3527191   8.3821910  70.8280849  75.6081049
   6.3886969  68.7928790  73.3151005   6.9018851  69.4258782  73.8172714
   7.0388193  68.1929985  72.9494365   3.6509343  78.7713114  66.0711676
   2.9771042  79.0744811  66.6796634   4.0375165  79.5742194  65.7217133
   2.8667800  66.2678245  75.5609345   1.9490361  66.4893192  75.4031033
   3.2827944  66.3424556  74.7021052   3.6502848  67.6669661  70.6912025
   4.3974667  68.1791058  70.3819147   3.9194437  67.3453714  71.5516419
   1.9229498  70.1628202  67.6738980   1.0140717  69.8787235  67.7711449
   1.9524582  70.5827280  66.8142287   7.1548765  73.7734791  71.4430147
   6.7011092  72.9325701  71.4995338   6.5242732  74.4096190  71.7804927
   6.0981685  64.7026777  72.6730815   5.3604442  64.1904164  73.0041057
   6.3508458  64.2627159  71.8614092   5.5981705  75.6111288  72.3779965
   5.8904679  76.1716345  71.6592331   6.1080325  75.9039849  73.1333124
   6.1993312  57.4803029  73.2672584   6.5052189  56.6200393  72.9798499
   6.9245917  58.0720650  73.0671578   1.6205586  71.7036945  65.0127058
   1.1825016  70.9872804  64.5532696   2.3616027  71.9313060  64.4512150
   0.5615330  76.3891639  73.4673419   0.5191509  76.6152485  72.5381951
   1.4778029  76.1555014  73.6159220   4.0080964  66.8575707  80.3654048
   4.3630351  67.0847180  81.2248514   4.6553095  67.1894083  79.7431303
   9.7378701  69.9794143  71.0703377   9.5996599  70.1695738  70.1424566
   9.3814919  70.7413525  71.5271428   9.7648080  72.0470670  76.0814648
  10.1984587  71.9545959  76.9297702  10.4779661  72.0228170  75.4434664
   3.4975975  75.6472764  77.6147749   3.5512997  76.2163700  78.3825465
   2.6290756  75.8174649  77.2501786  10.6263630  72.0894370  78.6147534
  10.8199520  72.9940181  78.8606809  10.5264248  71.6301789  79.4486119
   2.2799940  61.9752261  81.1137861   1.6327855  62.6742210  81.0202337
   3.0500956  62.4088405  81.4814109   5.6878738  72.2401113  84.1888414
   5.5364245  72.0111665  83.2718498   5.6783418  73.1971714  84.2019759
   2.4564075  69.8133026  79.1734681   3.3856135  69.9644185  79.0003648
   2.0355105  69.9017046  78.3183327   1.8500559  78.9392787  68.2858755
   2.0252314  78.4680830  69.1004378   1.1633347  79.5658553  68.5140016
   2.8057622  73.2165293  74.3322056   2.4707454  73.1766063  75.2279706
   2.3061567  72.5510009  73.8592466   5.7416813  70.5621327  64.6059116
   5.1245984  69.8368155  64.5092168   5.2733302  71.3230687  64.2626190
   7.3970945  75.2720235  82.2664896   7.3383491  74.5879456  81.5995479
   7.7990463  76.0139225  81.8145522   7.3988352  73.2359819  80.4978876
   6.5115131  72.8985741  80.6205275   7.9686903  72.5042851  80.7347641
   0.9289506  77.8961272  77.4640119   0.8559677  78.7016243  77.9759424
   0.4866899  78.0953238  76.6388140   4.0275935  62.9427671  73.6177146
   4.5244635  62.1897634  73.2978216   3.2562917  62.9791988  73.0520355
  11.8805693  68.6468037  75.2595437  11.8695569  69.5292752  74.8889371
  11.0123072  68.2939588  75.0649975   3.3888189  77.7948106  79.6198278
   4.1016161  78.4295571  79.5474179   2.8978218  77.8911972  78.8038280
   5.1105716  71.6999358  71.1915569   4.1761995  71.8200821  71.0220274
   5.2882385  70.7971825  70.9275579   8.4978267  67.5416678  71.7265604
   8.9638720  68.3744669  71.6525906   8.9485768  67.0761659  72.4310862
   6.5654499  73.8860499  68.7251756   6.8414342  73.7717094  69.6345630
   5.6958997  73.4877984  68.6863929   6.4694930  59.9097265  75.7656505
   5.5558010  60.1401492  75.9338712   6.8988032  59.9935709  76.6170537
   6.2401389  68.0987157  78.2656399   5.5872839  68.3463064  77.6108852
   6.6181769  67.2851295  77.9318876   3.2008563  78.1346850  72.3684569
   3.3830957  77.3168506  72.8312322   4.0241549  78.3514542  71.9309459
   3.5350728  77.0615035  69.6299618   4.0638495  76.5507490  69.0169780
   3.7978948  76.7457565  70.4945151   2.2888962  68.8406968  84.7522436
   1.6129599  68.7401097  85.4224811   3.1116596  68.6846181  85.2158433
   1.0311745  80.1473895  78.9880052   1.5830053  80.3105517  79.7529137
   1.3717938  80.7378333  78.3160077   5.8822619  74.9735153  84.8428706
   6.4262523  75.5865111  84.3483661   5.3009464  75.5314731  85.3595719
   4.1680132  78.0955871  75.9743734   4.0431271  77.2945611  75.4654680
   4.8259223  78.5902064  75.4857704   6.2315040  75.8964891  77.6023284
   5.2845376  75.7770242  77.5301611   6.5797813  75.0087389  77.6849546
   3.2361474  75.6917607  73.8027636   3.0886436  74.7634314  73.9835206
   4.0614967  75.7137698  73.3184712   6.8395595  76.5146166  74.8892509
   7.7642143  76.3089027  74.7516960   6.6710899  76.2662567  75.7981851
   3.2322988  63.5455445  68.7959754   3.4486602  64.4280083  68.4948582
   2.7517055  63.1541658  68.0665396   1.6844723  63.9281046  77.4664515
   1.4262501  64.8498117  77.4648846   1.1529763  63.5311481  78.1564979
   6.6290912  77.0331833  70.2454601   6.8027789  76.4678256  69.4928453
   7.1219803  77.8332728  70.0634091   2.1046678  60.0612997  73.8265678
   2.1268375  60.1252330  72.8717657   2.5214737  59.2217505  74.0206184
  12.4830303  69.7968256  71.8644900  12.9261449  69.0475581  71.4664024
  11.6056813  69.7878393  71.4818632   7.6166084  76.3498598  67.3451499
   8.3116989  76.9705290  67.5638814   7.9589234  75.4993949  67.6203877
   9.5157507  73.7998303  68.8738830  10.0408831  74.1385576  68.1488150
   9.4279860  72.8645318  68.6901964   1.1777556  77.7132377  81.0028706
   1.4864682  77.4681524  81.8751406   1.9753038  77.9179015  80.5147577
   1.1998168  79.8670286  73.2334083   0.7603158  79.3746665  73.9266940
   1.9506285  79.3243254  72.9926158   9.2051413  74.4331207  84.1790028
   8.4146957  74.4155346  83.6394527   8.9684768  74.9719500  84.9339064
   9.3249288  71.2823673  81.4922756   9.3747293  71.1173681  82.4338279
   9.2163212  70.4150932  81.1020637   6.6153051  67.2654601  82.8082063
   7.5162914  67.1261066  82.5166061   6.6901025  67.4309056  83.7480240
  10.8267485  73.7020615  81.7364778  10.5352294  74.0650595  82.5728239
  10.2139616  72.9887623  81.5578110  12.0263168  71.2673494  74.2567348
  12.8610059  71.7063299  74.4204908  12.1622296  70.7912148  73.4375594
   9.0754673  68.8253229  80.2044836   9.5508795  69.0180876  79.3963687
   8.1520239  68.8812415  79.9588219   3.6534890  60.8601073  79.1700670
   4.1716834  61.5962100  78.8447158   3.2990023  61.1665066  80.0047429
   3.9047484  57.2801355  74.6901566   4.1849238  56.6124544  75.3161993
   4.6898091  57.4730451  74.1776230   1.7080953  76.4560349  66.2526593
   1.1354920  77.0750536  65.7997064   2.2813746  77.0059711  66.7866514
   7.7756342  65.7018989  78.4373141   8.7273765  65.8017087  78.4585365
   7.6059793  64.9097258  78.9471226   5.7970722  62.7874573  78.6232542
   5.2020654  63.0679585  77.9279031   5.5120419  63.2768474  79.3949283
   4.9278212  76.7397499  67.3835175   5.8608886  76.6743061  67.5868050
   4.8401425  77.5753766  66.9249707   7.5566229  76.0563370  64.3439122
   7.4779861  75.7223233  65.2374880   8.3775896  76.5485138  64.3430595
  10.2544420  68.9225109  77.5515441  10.2220740  67.9841110  77.7375125
  10.8645044  69.0009146  76.8181266   2.0927751  67.7921162  63.5942645
   3.0386856  67.6627370  63.6631063   1.7141996  67.0535824  64.0712073
  10.4038909  65.7136153  77.5973724   9.8877957  64.9294609  77.4103653
  11.2878857  65.3854869  77.7620244   8.0649636  59.4577168  73.5569537
   7.8674457  59.1492256  74.4412869   8.6749341  60.1838807  73.6867467
  16.0720970  69.9841116  76.6921478  16.8024359  69.7226404  77.2529181
  15.4627916  69.2469838  76.7323546  14.1536267  68.1248979  77.2895929
  13.4269431  67.9904943  76.6812421  13.7383554  68.4325807  78.0952647
   1.9766444  71.8438908  85.0543302   2.8969453  72.0217507  85.2483349
   1.9416027  70.8994954  84.9023001   1.8932734  60.2608028  69.6841772
   1.0833462  59.9155113  70.0597018   2.5817151  59.9515572  70.2729383
   3.8223282  59.3386075  71.3066068   4.3754321  59.7581528  71.9656091
   4.0593369  58.4121823  71.3489024   7.2002089  61.4486600  70.8144732
   6.6200758  62.1071404  70.4322785   6.9338022  60.6263945  70.4032150
   5.6505656  60.8491658  73.0166053   6.1505434  60.9608192  72.2080372
   6.2941264  60.5452711  73.6566861   5.9826967  63.6086691  69.8701081
   5.0952822  63.8936341  69.6521275   6.3980956  63.4480454  69.0228358
   9.3341503  63.6333211  73.5855420  10.1101894  64.1229664  73.8580037
   8.6089638  64.0591266  74.0427289  11.7714062  64.3460831  74.6429361
  12.3658553  64.1056567  73.9322669  11.8440646  63.6267961  75.2702897
   5.1270181  73.3731365  63.9649101   5.8306031  73.5781368  64.5806756
   4.4032830  73.9408127  64.2298184   5.9567991  69.1241226  70.0851371
   5.9003193  69.5809778  69.2459003   6.5096334  68.3631911  69.9074214
   9.7672797  64.9130958  70.9101490   9.5109731  64.5127594  71.7409698
   9.1425665  65.6274752  70.7851630  14.0785135  67.6527032  73.4172782
  13.5184693  67.7220221  74.1904344  13.4728638  67.4768016  72.6972278
   7.0356878  73.8113894  66.0147561   7.8702482  73.3795093  65.8325036
   6.8741221  73.6395908  66.9424455   6.6902770  70.3146008  67.3803900
   6.6351574  70.1490279  66.4392344   6.0648826  71.0222041  67.5366090
   4.0048678  72.6194920  86.7057463   4.8739837  72.7935572  86.3444098
   3.5255429  73.4389336  86.5833192   3.8151015  56.4096893  71.2135155
   3.0483411  55.8555380  71.3591838   4.2261720  56.4818762  72.0749307
  15.6641153  84.3283545  76.1102737  16.3019563  84.2090293  75.4066078
  15.5461996  85.2764389  76.1690690  12.4730860  84.2810974  76.0464262
  12.1349371  84.1652038  75.1584797  13.3420628  83.8802139  76.0265268
   8.3317675  86.1346450  72.0361153   7.7682540  86.0436387  71.2677441
   8.2170070  85.3146354  72.5163646  12.9550643  85.4345825  82.0050468
  12.9439283  85.0398624  81.1330971  13.1171282  84.7011898  82.5984239
   5.8782107  87.6297642  74.8745374   6.6703399  87.2888466  74.4591673
   6.1178757  87.7392617  75.7947527  13.9117234  89.8017418  67.3475618
  13.2605214  90.3871498  66.9609632  14.7061597  90.3323613  67.4070656
   7.8372861  86.8906555  67.7462752   8.6103737  86.3435542  67.6075628
   8.1898260  87.7550804  67.9577214   9.6757904  88.2182937  80.9529652
   9.3847770  89.1228568  80.8376318  10.3114888  88.2599465  81.6673721
  10.6014111  85.5959786  77.5431011  11.1977683  85.3715808  76.8287974
  10.6589082  84.8544531  78.1456459  10.1739139  83.0499221  65.3781202
  10.4264660  82.5280742  64.6164665   9.2363698  82.8865366  65.4807886
  15.2182422  82.0534999  73.1855946  16.0045511  81.6354423  72.8346363
  15.4821126  82.9581092  73.3537594  15.3892499  87.4907850  67.8844602
  14.7538332  87.5642476  68.5965507  15.0589906  88.0801448  67.2063682
  20.6190849  81.9910233  74.0888924  21.3516021  81.4209449  74.3226754
  19.8630205  81.6031833  74.5295430   9.8935428  84.9527327  67.5805577
   9.7771686  84.2772230  68.2486662  10.0037688  84.4659701  66.7637730
  12.2366969  84.4137474  71.2852266  11.8725176  83.8868095  71.9965188
  13.0934085  84.0235943  71.1118752  18.1416269  75.7031807  78.5483533
  17.8099594  76.5727218  78.3244748  17.5461883  75.3868091  79.2277563
  11.8772456  79.4427374  66.2813615  12.0446858  80.3107610  66.6484086
  11.6869625  79.6054655  65.3574904  14.6347789  87.9044353  77.9479445
  14.3348512  88.8069391  77.8395253  14.2898848  87.6376536  78.8000598
   8.0860270  84.3558149  73.9816150   7.1610767  84.2234364  74.1893842
   8.3344684  85.1352369  74.4786092  18.0344933  80.4226893  75.6276883
  17.1261810  80.3542301  75.3335644  17.9832528  80.8998838  76.4558708
  11.8561677  81.8985031  67.2660282  11.7361302  82.3442082  68.1045762
  11.1614265  82.2470349  66.7073820   5.4469081  83.9991423  74.8159939
   5.5761463  84.2525902  75.7299351   4.7666533  84.5919131  74.4964594
   9.6168569  94.6688673  70.9150413   9.5392598  95.6196498  70.9938894
   9.0130212  94.3234545  71.5725339  12.1085798  81.8416538  83.5711780
  11.3319132  82.4010459  83.5614645  12.7476361  82.3273321  84.0926650
  19.9006579  78.6243331  77.4054757  19.2580959  78.9175864  76.7594551
  19.3961508  78.5096252  78.2107953  17.5546743  82.3706504  68.0940616
  18.4664599  82.6033891  67.9188313  17.0456390  82.9543549  67.5315694
  10.3632171  84.6501992  83.1329747  11.1046855  85.1887036  82.8564571
   9.6569156  85.2768281  83.2901299  15.8387510  86.7931132  81.7301908
  16.2470866  86.3513543  80.9856541  15.1164772  86.2183760  81.9836101
  12.1918580  81.7303739  79.1035465  13.0379776  82.1543153  79.2470114
  12.1317218  81.0737363  79.7974029  16.1616325  87.3532323  75.4854197
  15.5325187  87.5178037  74.7830265  15.7741987  87.7673932  76.2565161
  20.0405557  88.2886761  72.8398561  19.3556595  88.6685662  72.2895594
  20.1249406  88.8982087  73.5730509  15.3418026  79.3908107  80.7616639
  15.0978958  80.1450168  80.2250915  15.6177956  79.7693455  81.5963886
  17.2956488  85.9346720  79.4393905  17.5073384  86.5778480  78.7628286
  17.2486237  85.1009036  78.9715835  14.8982717  78.5464540  76.3430477
  14.0367196  78.8445794  76.6347214  14.9245152  78.7634939  75.4111509
  11.7144287  87.0906731  72.7504282  12.1782632  87.3694434  71.9608905
  11.4501085  86.1890176  72.5677373   8.6068368  86.6378212  75.6884046
   9.1769725  87.0665481  75.0501530   9.1976480  86.3560797  76.3868231
  10.6513173  83.2129883  69.5593848  11.3537216  83.6650927  70.0267774
  10.3193801  82.5713702  70.1873741   9.0993534  81.8041640  83.9345057
   8.4692195  82.4857921  84.1680454   8.9929622  81.6924722  82.9898195
   4.3938507  81.4713436  74.8610981   3.6037561  81.7270965  74.3851092
   4.8849754  82.2861774  74.9663022  18.4102316  88.8118675  77.6116262
  19.2319760  88.4098862  77.3298944  18.4064719  88.7086909  78.5632378
   6.3453252  81.8358015  71.8194458   5.5484416  81.9476709  72.3377954
   6.1178844  82.1744667  70.9535348  12.1758920  88.3602718  79.7676972
  12.2403352  88.8223126  80.6035144  11.4669844  87.7300083  79.8959282
   2.6776210  81.7243926  77.2925972   2.9284248  82.6090936  77.5583548
   3.2135758  81.5448528  76.5201064  26.5008309  85.1557424  73.9601233
  25.7472018  84.5864822  73.8045238  26.6355851  85.1220088  74.9071868
  11.8906938  90.0270826  69.6355953  11.7552612  90.8722362  70.0640801
  12.4316750  90.2290104  68.8721887   8.3774277  76.1062406  86.2970308
   7.9841223  75.5528604  86.9717952   9.1940417  76.4172984  86.6876826
   5.3436335  87.5446264  70.2083878   5.8560855  88.3389514  70.3589443
   5.9959048  86.8472554  70.1417479   7.1531220  90.6612020  72.2906631
   7.3297848  91.5829985  72.1027615   7.9488053  90.3470439  72.7201011
  11.2942238  77.5220285  83.8890565  12.0351952  78.1227438  83.8095027
  11.5260161  76.7797923  83.3308607   6.4383576  82.7076652  82.1668794
   6.3237091  81.8061909  82.4675893   5.5828094  82.9540349  81.8153611
  13.5175414  90.6494392  83.7656295  13.0739268  89.8630771  83.4477199
  14.1792627  90.8373543  83.1000186   8.2762535  92.1790194  78.2916973
   8.8269960  92.0507257  77.5193967   7.4374011  92.4785083  77.9411866
  15.6156652  90.9297192  81.7937696  15.5975127  91.7506073  81.3017965
  16.5376572  90.8051268  82.0187837  12.0729706  88.4441322  82.6361205
  12.6058043  87.6829610  82.4060512  11.5443787  88.1514974  83.3785359
  15.2399401  73.5501388  78.1654846  14.8963670  74.4403030  78.0893957
  15.6078364  73.3603045  77.3024431   3.3085252  85.8734918  70.9843448
   4.1460474  86.2831927  70.7677156   3.4863519  84.9334360  70.9543642
  15.2049684  83.5409999  66.6727281  14.6896307  84.3114604  66.9115669
  14.9326992  82.8675135  67.2960343  12.7896795  78.3859700  71.7312520
  11.9338391  77.9966550  71.5518158  13.2023747  78.4651661  70.8712305
  14.3195941  75.9206043  76.1304080  13.8160737  75.8836178  75.3171885
  14.6126548  76.8298786  76.1900736  10.5638827  76.0044773  75.1370261
  11.4291824  75.8087581  74.7776151  10.6316336  75.7755124  76.0639618
  20.1783958  86.2942354  68.6080455  19.4013401  85.9553513  68.1635617
  20.8575439  86.2994977  67.9335420  14.9935987  81.4137091  68.4987063
  14.6886123  81.7283240  69.3497206  15.9466429  81.4918511  68.5414396
  13.4382419  87.5727314  70.1480017  12.9103780  86.8380074  69.8353254
  12.9369922  88.3501991  69.9019985  18.4175265  85.7676335  75.2647063
  17.7598939  86.4575596  75.3527191  19.2215664  86.1572767  75.6081049
   8.1701146  78.2346981  72.5086628   8.7444898  78.0122162  71.7759821
   8.7572129  78.3035675  73.2615229  17.2280724  84.1220708  73.3151005
  17.7412605  84.7550699  73.8172714  17.8781948  83.5221903  72.9494365
   8.4970734  80.2651442  66.5282513   7.6608046  80.6026128  66.8491788
   8.3575503  80.1300421  65.5909650  10.4723814  75.1088230  71.2361697
   9.8188226  74.7937247  70.6118312  10.4304288  74.4863970  71.9621520
  11.5835019  85.3907525  63.1514990  10.6762081  85.1596778  63.3506139
  12.0806051  84.5945144  63.3388971  14.4903098  94.1005032  66.0711676
  13.8164797  94.4036729  66.6796634  14.8768920  94.9034112  65.7217133
  13.7061555  81.5970163  75.5609345  12.7884116  81.8185110  75.4031033
  14.1221698  81.6716474  74.7021052  14.4896602  82.9961579  70.6912025
  15.2368421  83.5082976  70.3819147  14.7588192  82.6745631  71.5516419
  12.7623252  85.4920119  67.6738980  11.8534472  85.2079152  67.7711449
  12.7918336  85.9119198  66.8142287  17.9942520  89.1026709  71.4430147
  17.5404847  88.2617619  71.4995338  17.3636487  89.7388107  71.7804927
  16.9375439  80.0318695  72.6730815  16.1998196  79.5196081  73.0041057
  17.1902213  79.5919077  71.8614092  16.4375459  90.9403206  72.3779965
  16.7298433  91.5008263  71.6592331  16.9474080  91.2331767  73.1333124
  17.0387067  72.8094947  73.2672584  17.3445944  71.9492310  72.9798499
  17.7639672  73.4012567  73.0671578   3.3311423  83.2125634  71.6554182
   3.1335823  82.6194994  70.9305248   2.7758087  82.9077844  72.3730121
  11.3108146  83.1048740  73.7748775  11.3656756  82.1522576  73.6991252
  10.4999349  83.2608179  74.2590073  12.4599340  87.0328863  65.0127058
  12.0218770  86.3164722  64.5532696  13.2009781  87.2604978  64.4512150
   9.2500506  81.7225800  71.5339154   8.4368372  82.0219970  71.9404346
   9.7459501  81.3281489  72.2513636  11.4009084  91.7183557  73.4673419
  11.3585263  91.9444403  72.5381951  12.3171783  91.4846931  73.6159220
  14.8474718  82.1867624  80.3654048  15.2024106  82.4139097  81.2248514
  15.4946849  82.5186001  79.7431303  20.5772455  85.3086060  71.0703377
  20.4390354  85.4987656  70.1424566  20.2208674  86.0705443  71.5271428
   8.7414581  79.2944155  77.1500389   9.3813960  79.1532914  76.4523352
   7.9092112  79.0078669  76.7738991  20.6041835  87.3762587  76.0814648
  21.0378341  87.2837876  76.9297702  21.3173415  87.3520088  75.4434664
   9.5174885  88.5946586  73.2635381  10.3115484  88.0996906  73.0617956
   8.8066577  88.0664449  72.9003087  14.3369730  90.9764681  77.6147749
  14.3906752  91.5455618  78.3825465  13.4684511  91.1466566  77.2501786
   5.8257649  82.7389668  69.3395134   4.8955237  82.6774123  69.5565096
   5.9215121  82.2165620  68.5431775   5.7443198  79.2644480  71.9273376
   6.0050015  80.1789814  71.8182536   6.5660370  78.7968923  72.0769988
   7.2168123  80.6782238  79.0972200   7.8891176  80.4699600  78.4484849
   6.3897909  80.4804324  78.6577432  21.4657384  87.4186288  78.6147534
  21.6593274  88.3232098  78.8606809  21.3658002  86.9593707  79.4486119
  13.1193695  77.3044178  81.1137861  12.4721610  78.0034128  81.0202337
  13.8894710  77.7380322  81.4814109  16.5272493  87.5693031  84.1888414
  16.3757999  87.3403582  83.2718498  16.5177172  88.5263632  84.2019759
  13.2957829  85.1424943  79.1734681  14.2249889  85.2936103  79.0003648
  12.8748859  85.2308964  78.3183327  12.0946161  89.1675608  76.9433218
  11.9557247  88.7994392  77.8159156  11.3060757  89.6823247  76.7717176
  12.6894313  94.2684704  68.2858755  12.8646069  93.7972747  69.1004378
  12.0027101  94.8950470  68.5140016  13.6451376  88.5457210  74.3322056
  13.3101209  88.5057980  75.2279706  13.1455322  87.8801926  73.8592466
   7.6195620  83.9524840  79.8574637   7.4815418  83.2205079  80.4586176
   8.5300544  83.8633741  79.5758825  16.5810568  85.8913245  64.6059116
  15.9639739  85.1660073  64.5092168  16.1127056  86.6522605  64.2626190
  10.2477921  83.6644800  79.3458317  10.9577539  83.0237992  79.3044935
  10.2047229  83.9157695  80.2684498  18.2364700  90.6012153  82.2664896
  18.1777246  89.9171373  81.5995479  18.6384218  91.3431143  81.8145522
   8.9606855  80.6510018  81.1653956   8.4244212  80.2000756  81.8175553
   8.3723563  80.7855927  80.4224421   7.2555398  97.4174067  75.0598615
   7.4951997  98.0492591  75.7377634   6.4124595  97.0662107  75.3463974
   8.3709114  80.1098669  63.7280420   7.4938580  79.9887470  63.3642667
   8.8466867  79.3184747  63.4759309  18.2382107  88.5651737  80.4978876
  17.3508886  88.2277659  80.6205275  18.8080658  87.8334768  80.7347641
   4.6945976  79.7866025  78.2506951   4.6104165  79.1791695  77.5157361
   3.8728682  80.2775044  78.2516447  11.7683260  93.2253189  77.4640119
  11.6953432  94.0308161  77.9759424  11.3260653  93.4245155  76.6388140
  11.5573040  92.4624959  70.9742941  10.7740562  93.0046640  71.0681165
  12.2565785  92.9798939  71.3737182  14.8669690  78.2719589  73.6177146
  15.3638389  77.5189551  73.2978216  14.0956671  78.3083906  73.0520355
  22.7199447  83.9759954  75.2595437  22.7089324  84.8584670  74.8889371
  21.8516827  83.6231505  75.0649975  14.2281944  93.1240023  79.6198278
  14.9409916  93.7587488  79.5474179  13.7371972  93.2203889  78.8038280
  15.9499471  87.0291276  71.1915569  15.0155749  87.1492739  71.0220274
  16.1276139  86.1263743  70.9275579  11.4504659  80.4136972  73.3448831
  11.0802446  79.8608012  74.0329736  11.9463751  79.8095105  72.7923831
  19.3372022  82.8708595  71.7265604  19.8032474  83.7036587  71.6525906
  19.7879522  82.4053577  72.4310862   9.2793857  90.8734467  80.4403849
   9.9803317  91.5070950  80.5933243   8.8088972  91.2149198  79.6799488
  17.4048253  89.2152417  68.7251756  17.6808097  89.1009011  69.6345630
  16.5352752  88.8169902  68.6863929  17.3088685  75.2389182  75.7656505
  16.3951765  75.4693409  75.9338712  17.7381786  75.3227626  76.6170537
  17.0795143  83.4279074  78.2656399  16.4266593  83.6754982  77.6108852
  17.4575523  82.6143213  77.9318876  14.0402317  93.4638768  72.3684569
  14.2224712  92.6460423  72.8312322  14.8635303  93.6806460  71.9309459
  14.3744483  92.3906953  69.6299618  14.9032249  91.8799407  69.0169780
  14.6372702  92.0749483  70.4945151  13.1282716  84.1698885  84.7522436
  12.4523353  84.0693015  85.4224811  13.9510350  84.0138099  85.2158433
   4.8761575  90.4070822  77.3734951   5.4615012  89.6614510  77.5062855
   4.6786414  90.7174779  78.2571615   7.7300231  93.4422069  72.3897394
   7.0610606  93.9268197  71.9061434   7.5913100  93.6891290  73.3040772
  11.8705499  95.4765813  78.9880052  12.4223807  95.6397434  79.7529137
  12.2111693  96.0670251  78.3160077   6.8469992  77.8240963  79.5901937
   6.9111319  78.6855794  79.1779334   6.7837113  77.2114964  78.8574295
   6.3222265  79.8964095  83.2374971   6.9494304  79.5141173  83.8512495
   5.4650184  79.6778297  83.6030663  16.7216373  90.3027070  84.8428706
  17.2656277  90.9157029  84.3483661  16.1403218  90.8606649  85.3595719
   3.0987808  81.7040524  69.1693326   3.3941249  80.7951203  69.1160379
   2.1975843  81.6828264  68.8474328  15.0073886  93.4247788  75.9743734
  14.8825026  92.6237528  75.4654680  15.6652978  93.9193982  75.4857704
   6.6282055  79.7796521  75.1520874   5.9068640  80.3932489  75.0128348
   7.4175310  80.3154286  75.0737520  17.0708795  91.2256808  77.6023284
  16.1239130  91.1062160  77.5301611  17.4191568  90.3379307  77.6849546
   9.4308368  77.1150947  81.4261526   9.9542770  77.3613244  82.1887835
   9.2120701  77.9470982  81.0064663   4.8275649  79.3854622  69.2932651
   4.4988355  78.5052001  69.1107757   5.1815020  79.3302291  70.1809040
  14.0755228  91.0209525  73.8027636  13.9280191  90.0926232  73.9835206
  14.9008722  91.0429615  73.3184712   7.9417472  79.6727592  69.6608129
   8.2813545  80.2013513  68.9386737   8.3889593  80.0107998  70.4366695
  17.6789350  91.8438083  74.8892509  18.6035897  91.6380945  74.7516960
  17.5104653  91.5954485  75.7981851  10.6360913  78.0564643  79.1111197
  10.2957734  77.2572456  79.5131877   9.9299919  78.3566353  78.5388030
  11.2877385  75.1413955  77.5638520  12.1103454  74.6674433  77.4417410
  11.5315449  75.9204439  78.0637206   9.9285620  78.1702213  67.8601421
  10.6493982  78.5483466  67.3565138   9.3050924  78.8891090  67.9636399
  14.0716742  78.8747362  68.7959754  14.2880357  79.7572000  68.4948582
  13.5910810  78.4833576  68.0665396   8.8115964  81.8333076  75.3730498
   8.6660544  82.1473379  76.2654780   8.3341167  82.4517976  74.8201397
  10.6712347  78.8235624  75.4211388  10.6573915  77.9276717  75.0843686
  11.3884775  78.8306287  76.0549674  12.5238477  79.2572964  77.4664515
  12.2656255  80.1790034  77.4648846  11.9923518  78.8603398  78.1564979
  17.4684666  92.3623751  70.2454601  17.6421544  91.7970173  69.4928453
  17.9613557  93.1624646  70.0634091   3.2861626  84.3738420  78.3118159
   2.7415094  85.1498228  78.4438434   4.1640976  84.7209224  78.1537281
  10.0749243  77.7050004  70.6898958  10.1965154  76.7766650  70.8889845
   9.7851285  77.7188690  69.7777273  12.9440433  75.3904914  73.8265678
  12.9662130  75.4544247  72.8717657  13.3608492  74.5509423  74.0206184
  23.3224057  85.1260174  71.8644900  23.7655203  84.3767499  71.4664024
  22.4450568  85.1170310  71.4818632  18.4559839  91.6790515  67.3451499
  19.1510743  92.2997208  67.5638814  18.7982989  90.8285867  67.6203877
   4.0727648  83.5008316  81.2048316   3.3309384  83.6490952  81.7912947
   3.7520392  83.7616582  80.3415066  20.3551262  89.1290221  68.8738830
  20.8802586  89.4677494  68.1488150  20.2673614  88.1937236  68.6901964
  12.0171310  93.0424294  81.0028706  12.3258437  92.7973441  81.8751406
  12.8146792  93.2470933  80.5147577  12.0391922  95.1962204  73.2334083
  11.5996913  94.7038583  73.9266940  12.7900039  94.6535172  72.9926158
   4.5184261  91.3873745  73.2358711   5.3442281  91.0877517  72.8557354
   4.1678313  90.6181367  73.6848500   9.4865795  90.7400213  75.3056385
   8.8645804  90.0770918  75.0058612  10.1570662  90.7661345  74.6230032
   2.7192867  89.3060071  74.1947645   1.8824775  88.8782246  74.0131646
   2.6916512  89.4992515  75.1318436   9.5590322  79.2182001  84.8988891
   9.6078478  80.0944124  84.5166660  10.1012836  78.6759394  84.3260534
  20.0445168  89.7623124  84.1790028  19.2540712  89.7447263  83.6394527
  19.8078522  90.3011418  84.9339064  20.1643043  86.6115591  81.4922756
  20.2141048  86.4465598  82.4338279  20.0556966  85.7442850  81.1020637
   9.0479302  89.2904137  68.7814845   9.1967422  89.9739601  68.1281518
   9.8545745  89.2709227  69.2964301  17.4546805  82.5946519  82.8082063
  18.3556668  82.4552984  82.5166061  17.5294780  82.7600974  83.7480240
  11.7889611  79.9713374  81.6535249  10.9192920  80.2646940  81.3817838
  12.0249091  80.5553819  82.3742513  21.6661240  89.0312532  81.7364778
  21.3746048  89.3942513  82.5728239  21.0533371  88.3179541  81.5578110
  22.8656922  86.5965412  74.2567348  23.7003813  87.0355216  74.4204908
  23.0016051  86.1204065  73.4375594  19.9148428  84.1545147  80.2044836
  20.3902550  84.3472793  79.3963687  18.9913993  84.2104333  79.9588219
   6.8031935  85.3169314  69.7875914   6.5577976  84.4131644  69.9856124
   6.9727849  85.3186465  68.8455392  14.4928644  76.1892991  79.1700670
  15.0110588  76.9254017  78.8447158  14.1383777  76.4956984  80.0047429
   6.0727582  81.0497672  67.2862075   5.3796827  81.1242027  66.6302111
   5.8279334  80.2858015  67.8083592  14.7441239  72.6093273  74.6901566
  15.0242992  71.9416462  75.3161993  15.5291846  72.8022369  74.1776230
  12.5474707  91.7852267  66.2526593  11.9748674  92.4042454  65.7997064
  13.1207501  92.3351629  66.7866514  18.6150097  81.0310907  78.4373141
  19.5667520  81.1309005  78.4585365  18.4453547  80.2389176  78.9471226
  16.6364476  78.1166490  78.6232542  16.0414409  78.3971503  77.9279031
  16.3514173  78.6060391  79.3949283  15.7671967  92.0689417  67.3835175
  16.7002640  92.0034979  67.5868050  15.6795180  92.9045684  66.9249707
  18.3959984  91.3855287  64.3439122  18.3173615  91.0515151  65.2374880
  19.2169650  91.8777055  64.3430595  21.0938175  84.2517027  77.5515441
  21.0614495  83.3133027  77.7375125  21.7038798  84.3301063  76.8181266
  12.9321506  83.1213080  63.5942645  13.8780610  82.9919288  63.6631063
  12.5535751  82.3827742  64.0712073  21.2432663  81.0428070  77.5973724
  20.7271712  80.2586527  77.4103653  22.1272612  80.7146787  77.7620244
  18.9043390  74.7869086  73.5569537  18.7068211  74.4784174  74.4412869
  19.5143096  75.5130725  73.6867467  26.9114725  85.3133034  76.6921478
  27.6418113  85.0518322  77.2529181  26.3021670  84.5761756  76.7323546
  24.9930022  83.4540896  77.2895929  24.2663185  83.3196861  76.6812421
  24.5777309  83.7617725  78.0952647  12.8160198  87.1730826  85.0543302
  13.7363208  87.3509425  85.2483349  12.7809781  86.2286871  84.9023001
  11.1164423  81.0463056  63.5297530  10.2095878  80.7496169  63.6060244
  11.3940404  80.7492874  62.6631816   2.0342363  82.3669420  73.9796577
   1.7145147  81.5134728  73.6870951   1.4875791  82.5817998  74.7354544
   5.8122271  85.0831861  77.6966083   6.0308280  86.0148968  77.7154117
   6.2248044  84.7239835  78.4820887  12.7326488  75.5899946  69.6841772
  11.9227217  75.2447031  70.0597018  13.4210905  75.2807490  70.2729383
  14.6617037  74.6677993  71.3066068  15.2148075  75.0873446  71.9656091
  14.8987123  73.7413741  71.3489024  10.6850136  80.6565066  87.0868832
  10.5846863  81.6059423  87.0180923  10.4671678  80.3283305  86.2144902
   9.8863207  77.9049991  63.6709509  10.7482371  78.2304890  63.9305327
  10.0713552  77.1181487  63.1582575   1.9030623  85.9872331  75.9489698
   1.2094095  85.5726284  75.4359653   2.6503614  86.0292868  75.3523117
  18.0395844  76.7778518  70.8144732  17.4594513  77.4363322  70.4322785
  17.7731777  75.9555862  70.4032150  16.4899410  76.1783576  73.0166053
  16.9899189  76.2900110  72.2080372  17.1335018  75.8744628  73.6566861
  10.5481406  84.0862205  85.9033894  10.0648488  84.8862565  86.1097783
  10.6342345  84.0970150  84.9501338   3.8167366  85.9190585  73.8255713
   3.7938054  86.0178272  72.8737596   4.1268002  86.7655736  74.1472879
   6.4754744  87.9766740  77.9402328   7.4297997  87.9450682  77.8732259
   6.2767267  87.5157364  78.7552553   7.0654126  86.5467856  80.5073125
   7.8847015  87.0411935  80.5307962   7.3390933  85.6299824  80.4790693
  16.8220722  78.9378608  69.8701081  15.9346577  79.2228259  69.6521275
  17.2374711  78.7772372  69.0228358  20.1735258  78.9625129  73.5855420
  20.9495648  79.4521582  73.8580037  19.4483392  79.3883183  74.0427289
  22.6107817  79.6752748  74.6429361  23.2052307  79.4348484  73.9322669
  22.6834400  78.9559879  75.2702897   4.8304972  93.5186359  74.9572525
   4.6959440  92.7586760  74.3910523   4.4137035  94.2427259  74.4901314
  15.9663935  88.7023283  63.9649101  16.6699785  88.9073285  64.5806756
  15.2426584  89.2700045  64.2298184  16.7961746  84.4533144  70.0851371
  16.7396947  84.9101696  69.2459003  17.3490088  83.6923829  69.9074214
  20.6066552  80.2422876  70.9101490  20.3503486  79.8419512  71.7409698
  19.9819420  80.9566670  70.7851630  24.9178889  82.9818949  73.4172782
  24.3578447  83.0512139  74.1904344  24.3122393  82.8059934  72.6972278
   7.9874098  94.4155676  75.1690968   7.8706482  95.3601109  75.0669658
   7.1666544  94.1129238  75.5576767  17.8750633  89.1405812  66.0147561
  18.7096237  88.7087011  65.8325036  17.7134976  88.9687826  66.9424455
  17.5296525  85.6437925  67.3803900  17.4745329  85.4782197  66.4392344
  16.9042580  86.3513958  67.5366090   2.3189040  80.8805990  81.2065322
   2.9647903  80.3704944  81.6952547   2.1106191  81.6174671  81.7808748
  14.8442432  87.9486837  86.7057463  15.7133592  88.1227490  86.3444098
  14.3649184  88.7681254  86.5833192  10.8392650  75.1446034  66.9589218
  10.8271320  76.0887874  67.1157489  11.7316072  74.9616180  66.6648680
   9.0128612  95.0683938  78.3846896   9.9155859  95.1007549  78.7013391
   8.7865982  94.1384389  78.3993232  10.7682214  93.8214925  75.0456975
   9.8177845  93.8216786  74.9321347  11.0714700  93.0747659  74.5293010
  14.6544770  71.7388811  71.2135155  13.8877166  71.1847298  71.3591838
  15.0655475  71.8110680  72.0749307   6.6586531  78.0273607  85.3040336
   7.5217992  77.6710412  85.5143661   6.0851942  77.6887502  85.9915741
  26.5034908  99.6575463  76.1102737  27.1413318  99.5382211  75.4066078
  26.3855751 100.6056307  76.1690690  23.3124614  99.6102891  76.0464262
  22.9743126  99.4943956  75.1584797  24.1814382  99.2094056  76.0265268
  19.1711430 101.4638368  72.0361153  18.6076295 101.3728305  71.2677441
  19.0563825 100.6438272  72.5163646  23.7944397 100.7637743  82.0050468
  23.7833038 100.3690541  81.1330971  23.9565037 100.0303816  82.5984239
  16.7175862 102.9589559  74.8745374  17.5097154 102.6180384  74.4591673
  16.9572512 103.0684534  75.7947527  24.7510989 105.1309335  67.3475618
  24.0998968 105.7163416  66.9609632  25.5455351 105.6615530  67.4070656
  18.6766616 102.2198473  67.7462752  19.4497492 101.6727460  67.6075628
  19.0292015 103.0842722  67.9577214  20.5151658 103.5474855  80.9529652
  20.2241524 104.4520486  80.8376318  21.1508643 103.5891382  81.6673721
  21.4407865 100.9251703  77.5431011  22.0371437 100.7007726  76.8287974
  21.4982837 100.1836449  78.1456459  21.0132893  98.3791139  65.3781202
  21.2658414  97.8572660  64.6164665  20.0757453  98.2157284  65.4807886
  26.0576176  97.3826917  73.1855946  26.8439266  96.9646340  72.8346363
  26.3214881  98.2873009  73.3537594  26.2286254 102.8199767  67.8844602
  25.5932087 102.8934394  68.5965507  25.8983660 103.4093366  67.2063682
  31.4584603  97.3202150  74.0888924  32.1909775  96.7501367  74.3226754
  30.7023959  96.9323751  74.5295430  20.7329182 100.2819245  67.5805577
  20.6165440  99.6064148  68.2486662  20.8431442  99.7951619  66.7637730
  23.0760723  99.7429392  71.2852266  22.7118930  99.2160013  71.9965188
  23.9327839  99.3527861  71.1118752  28.9810024  91.0323724  78.5483533
  28.6493349  91.9019135  78.3244748  28.3855637  90.7160008  79.2277563
  22.7166210  94.7719291  66.2813615  22.8840612  95.6399528  66.6484086
  22.5263379  94.9346573  65.3574904  25.4741543 103.2336270  77.9479445
  25.1742266 104.1361309  77.8395253  25.1292603 102.9668454  78.8000598
  18.9254025  99.6850067  73.9816150  18.0004521  99.5526281  74.1893842
  19.1738438 100.4644286  74.4786092  28.8738687  95.7518811  75.6276883
  27.9655564  95.6834219  75.3335644  28.8226283  96.2290755  76.4558708
  22.6955431  97.2276949  67.2660282  22.5755056  97.6734000  68.1045762
  22.0008019  97.5762267  66.7073820  16.2862836  99.3283341  74.8159939
  16.4155217  99.5817820  75.7299351  15.6060287  99.9211049  74.4964594
  20.4562323 109.9980591  70.9150413  20.3786353 110.9488416  70.9938894
  19.8523967 109.6526463  71.5725339  22.9479553  97.1708456  83.5711780
  22.1712887  97.7302376  83.5614645  23.5870116  97.6565239  84.0926650
  30.7400334  93.9535249  77.4054757  30.0974714  94.2467782  76.7594551
  30.2355262  93.8388169  78.2107953  28.3940497  97.6998422  68.0940616
  29.3058353  97.9325809  67.9188313  27.8850144  98.2835466  67.5315694
  21.2025925  99.9793909  83.1329747  21.9440610 100.5178953  82.8564571
  20.4962911 100.6060198  83.2901299  26.6781265 102.1223050  81.7301908
  27.0864621 101.6805460  80.9856541  25.9558526 101.5475677  81.9836101
  23.0312335  97.0595657  79.1035465  23.8773530  97.4835070  79.2470114
  22.9710973  96.4029281  79.7974029  27.0010079 102.6824241  75.4854197
  26.3718942 102.8469955  74.7830265  26.6135742 103.0965850  76.2565161
  30.8799311 103.6178678  72.8398561  30.1950350 103.9977580  72.2895594
  30.9643161 104.2274005  73.5730509  26.1811780  94.7200025  80.7616639
  25.9372712  95.4742086  80.2250915  26.4571711  95.0985373  81.5963886
  28.1350243 101.2638637  79.4393905  28.3467138 101.9070397  78.7628286
  28.0879991 100.4300954  78.9715835  25.7376472  93.8756458  76.3430477
  24.8760951  94.1737712  76.6347214  25.7638907  94.0926857  75.4111509
  22.5538041 102.4198649  72.7504282  23.0176387 102.6986352  71.9608905
  22.2894839 101.5182093  72.5677373  19.4462122 101.9670130  75.6884046
  20.0163479 102.3957399  75.0501530  20.0370234 101.6852715  76.3868231
  21.4906927  98.5421801  69.5593848  22.1930971  98.9942845  70.0267774
  21.1587556  97.9005620  70.1873741  19.9387289  97.1333558  83.9345057
  19.3085950  97.8149838  84.1680454  19.8323377  97.0216639  82.9898195
  15.2332261  96.8005354  74.8610981  14.4431315  97.0562882  74.3851092
  15.7243509  97.6153692  74.9663022  29.2496071 104.1410593  77.6116262
  30.0713515 103.7390780  77.3298944  29.2458474 104.0378827  78.5632378
  17.1847007  97.1649933  71.8194458  16.3878170  97.2768627  72.3377954
  16.9572599  97.5036585  70.9535348  23.0152674 103.6894636  79.7676972
  23.0797107 104.1515043  80.6035144  22.3063598 103.0592001  79.8959282
  13.5169964  97.0535844  77.2925972  13.7678003  97.9382854  77.5583548
  14.0529513  96.8740446  76.5201064  37.3402064 100.4849341  73.9601233
  36.5865772  99.9156739  73.8045238  37.4749605 100.4512006  74.9071868
  22.7300692 105.3562744  69.6355953  22.5946367 106.2014279  70.0640801
  23.2710505 105.5582021  68.8721887  19.2168032  91.4354323  86.2970308
  18.8234977  90.8820522  86.9717952  20.0334172  91.7464902  86.6876826
  16.1830089 102.8738182  70.2083878  16.6954610 103.6681432  70.3589443
  16.8352802 102.1764472  70.1417479  17.9924974 105.9903938  72.2906631
  18.1691602 106.9121903  72.1027615  18.7881808 105.6762357  72.7201011
  22.1335993  92.8512203  83.8890565  22.8745706  93.4519356  83.8095027
  22.3653915  92.1089840  83.3308607  17.2777331  98.0368570  82.1668794
  17.1630846  97.1353827  82.4675893  16.4221848  98.2832267  81.8153611
  24.3569168 105.9786310  83.7656295  23.9133023 105.1922689  83.4477199
  25.0186382 106.1665461  83.1000186  19.1156290 107.5082112  78.2916973
  19.6663715 107.3799175  77.5193967  18.2767765 107.8077001  77.9411866
  26.4550406 106.2589110  81.7937696  26.4368882 107.0797991  81.3017965
  27.3770327 106.1343185  82.0187837  22.9123461 103.7733240  82.6361205
  23.4451797 103.0121528  82.4060512  22.3837542 103.4806891  83.3785359
  26.0793156  88.8793306  78.1654846  25.7357425  89.7694947  78.0893957
  26.4472118  88.6894963  77.3024431  14.1479006 101.2026836  70.9843448
  14.9854228 101.6123844  70.7677156  14.3257274 100.2626278  70.9543642
  26.0443438  98.8701917  66.6727281  25.5290062  99.6406521  66.9115669
  25.7720747  98.1967053  67.2960343  23.6290549  93.7151617  71.7312520
  22.7732146  93.3258468  71.5518158  24.0417501  93.7943578  70.8712305
  25.1589696  91.2497961  76.1304080  24.6554492  91.2128096  75.3171885
  25.4520303  92.1590703  76.1900736  21.4032582  91.3336690  75.1370261
  22.2685579  91.1379499  74.7776151  21.4710091  91.1047042  76.0639618
  31.0177712 101.6234271  68.6080455  30.2407155 101.2845431  68.1635617
  31.6969193 101.6286894  67.9335420  25.8329741  96.7429009  68.4987063
  25.5279877  97.0575158  69.3497206  26.7860184  96.8210429  68.5414396
  24.2776173 102.9019232  70.1480017  23.7497535 102.1671992  69.8353254
  23.7763676 103.6793908  69.9019985  29.2569019 101.0968253  75.2647063
  28.5992694 101.7867514  75.3527191  30.0609419 101.4864684  75.6081049
  19.0094901  93.5638898  72.5086628  19.5838653  93.3414080  71.7759821
  19.5965883  93.6327593  73.2615229  28.0674478  99.4512625  73.3151005
  28.5806360 100.0842617  73.8172714  28.7175702  98.8513821  72.9494365
  19.3364488  95.5943359  66.5282513  18.5001800  95.9318046  66.8491788
  19.1969258  95.4592339  65.5909650  21.3117569  90.4380147  71.2361697
  20.6581981  90.1229164  70.6118312  21.2698043  89.8155888  71.9621520
  22.4228774 100.7199442  63.1514990  21.5155835 100.4888696  63.3506139
  22.9199805  99.9237062  63.3388971  25.3296852 109.4296949  66.0711676
  24.6558551 109.7328646  66.6796634  25.7162674 110.2326030  65.7217133
  24.5455309  96.9262081  75.5609345  23.6277870  97.1477028  75.4031033
  24.9615453  97.0008391  74.7021052  25.3290357  98.3253496  70.6912025
  26.0762176  98.8374894  70.3819147  25.5981946  98.0037549  71.5516419
  23.6017007 100.8212037  67.6738980  22.6928226 100.5371070  67.7711449
  23.6312091 101.2411116  66.8142287  28.8336274 104.4318627  71.4430147
  28.3798601 103.5909537  71.4995338  28.2030241 105.0680025  71.7804927
  27.7769194  95.3610613  72.6730815  27.0391951  94.8487999  73.0041057
  28.0295967  94.9210994  71.8614092  27.2769214 106.2695123  72.3779965
  27.5692188 106.8300180  71.6592331  27.7867834 106.5623684  73.1333124
  27.8780821  88.1386865  73.2672584  28.1839698  87.2784228  72.9798499
  28.6033426  88.7304485  73.0671578  14.1705177  98.5417551  71.6554182
  13.9729577  97.9486912  70.9305248  13.6151841  98.2369761  72.3730121
  22.1501901  98.4340658  73.7748775  22.2050511  97.4814494  73.6991252
  21.3393103  98.5900097  74.2590073  23.2993095 102.3620781  65.0127058
  22.8612525 101.6456640  64.5532696  24.0403536 102.5896896  64.4512150
  20.0894261  97.0517717  71.5339154  19.2762126  97.3511888  71.9404346
  20.5853255  96.6573406  72.2513636  22.2402839 107.0475474  73.4673419
  22.1979018 107.2736321  72.5381951  23.1565538 106.8138849  73.6159220
  25.6868473  97.5159542  80.3654048  26.0417860  97.7431015  81.2248514
  26.3340604  97.8477919  79.7431303  31.4166210 100.6377978  71.0703377
  31.2784108 100.8279574  70.1424566  31.0602428 101.3997361  71.5271428
  19.5808336  94.6236073  77.1500389  20.2207715  94.4824832  76.4523352
  18.7485866  94.3370586  76.7738991  31.4435589 102.7054505  76.0814648
  31.8772096 102.6129794  76.9297702  32.1567170 102.6812005  75.4434664
  20.3568640 103.9238503  73.2635381  21.1509238 103.4288824  73.0617956
  19.6460332 103.3956367  72.9003087  25.1763484 106.3056599  77.6147749
  25.2300506 106.8747535  78.3825465  24.3078265 106.4758484  77.2501786
  16.6651403  98.0681585  69.3395134  15.7348991  98.0066041  69.5565096
  16.7608875  97.5457538  68.5431775  16.5836952  94.5936398  71.9273376
  16.8443769  95.5081731  71.8182536  17.4054124  94.1260841  72.0769988
  18.0561877  96.0074155  79.0972200  18.7284931  95.7991517  78.4484849
  17.2291664  95.8096241  78.6577432  32.3051139 102.7478206  78.6147534
  32.4987029 103.6524016  78.8606809  32.2051757 102.2885625  79.4486119
  23.9587449  92.6336096  81.1137861  23.3115364  93.3326046  81.0202337
  24.7288465  93.0672240  81.4814109  27.3666247 102.8984948  84.1888414
  27.2151754 102.6695500  83.2718498  27.3570927 103.8555550  84.2019759
  24.1351584 100.4716861  79.1734681  25.0643644 100.6228021  79.0003648
  23.7142614 100.5600882  78.3183327  22.9339916 104.4967525  76.9433218
  22.7951001 104.1286310  77.8159156  22.1454512 105.0115165  76.7717176
  23.5288068 109.5976622  68.2858755  23.7039823 109.1264665  69.1004378
  22.8420856 110.2242388  68.5140016  24.4845131 103.8749128  74.3322056
  24.1494963 103.8349898  75.2279706  23.9849076 103.2093844  73.8592466
  18.4589375  99.2816758  79.8574637  18.3209173  98.5496997  80.4586176
  19.3694298  99.1925658  79.5758825  27.4204322 101.2205162  64.6059116
  26.8033493 100.4951991  64.5092168  26.9520811 101.9814523  64.2626190
  21.0871675  98.9936717  79.3458317  21.7971294  98.3529910  79.3044935
  21.0440983  99.2449612  80.2684498  29.0758454 105.9304071  82.2664896
  29.0171000 105.2463291  81.5995479  29.4777972 106.6723061  81.8145522
  19.8000609  95.9801935  81.1653956  19.2637966  95.5292674  81.8175553
  19.2117318  96.1147844  80.4224421  19.2102868  95.4390587  63.7280420
  18.3332335  95.3179388  63.3642667  19.6860621  94.6476665  63.4759309
  29.0775861 103.8943655  80.4978876  28.1902640 103.5569577  80.6205275
  29.6474412 103.1626686  80.7347641  10.7305008 100.2267746  73.8221927
  11.4176048  99.9129477  73.2342943  10.5753137 101.1309111  73.5489179
  15.5339731  95.1157943  78.2506951  15.4497919  94.5083613  77.5157361
  14.7122437  95.6066961  78.2516447  22.6077015 108.5545107  77.4640119
  22.5347186 109.3600079  77.9759424  22.1654408 108.7537073  76.6388140
  22.3966794 107.7916877  70.9742941  21.6134316 108.3338557  71.0681165
  23.0959539 108.3090857  71.3737182  25.7063444  93.6011507  73.6177146
  26.2032144  92.8481469  73.2978216  24.9350426  93.6375823  73.0520355
  33.5593202  99.3051872  75.2595437  33.5483078 100.1876588  74.8889371
  32.6910581  98.9523423  75.0649975  25.0675698 108.4531941  79.6198278
  25.7803670 109.0879406  79.5474179  24.5765727 108.5495807  78.8038280
  26.7893225 102.3583194  71.1915569  25.8549504 102.4784656  71.0220274
  26.9669894 101.4555661  70.9275579  22.2898413  95.7428890  73.3448831
  21.9196201  95.1899930  74.0329736  22.7857506  95.1387023  72.7923831
  30.1765776  98.2000513  71.7265604  30.6426229  99.0328505  71.6525906
  30.6273277  97.7345495  72.4310862  20.1187612 106.2026385  80.4403849
  20.8197071 106.8362868  80.5933243  19.6482727 106.5441116  79.6799488
  28.2442008 104.5444334  68.7251756  28.5201851 104.4300929  69.6345630
  27.3746506 104.1461819  68.6863929  28.1482439  90.5681100  75.7656505
  27.2345519  90.7985327  75.9338712  28.5775541  90.6519544  76.6170537
  27.9188898  98.7570992  78.2656399  27.2660348  99.0046899  77.6108852
  28.2969278  97.9435130  77.9318876  24.8796072 108.7930685  72.3684569
  25.0618466 107.9752341  72.8312322  25.7029058 109.0098377  71.9309459
  25.2138237 107.7198870  69.6299618  25.7426004 107.2091325  69.0169780
  25.4766457 107.4041401  70.4945151  23.9676471  99.4990803  84.7522436
  23.2917108  99.3984932  85.4224811  24.7904105  99.3430017  85.2158433
  15.7155330 105.7362740  77.3734951  16.3008767 104.9906428  77.5062855
  15.5180168 106.0466696  78.2571615  18.5693985 108.7713987  72.3897394
  17.9004360 109.2560115  71.9061434  18.4306855 109.0183207  73.3040772
  10.3072985  98.3068340  76.0939394  10.3457084  97.7731931  76.8876512
   9.8013277  97.7803545  75.4750372  22.7099254 110.8057731  78.9880052
  23.2617562 110.9689352  79.7529137  23.0505447 111.3962168  78.3160077
  17.6863747  93.1532880  79.5901937  17.7505073  94.0147711  79.1779334
  17.6230867  92.5406882  78.8574295  17.1616019  95.2256013  83.2374971
  17.7888058  94.8433090  83.8512495  16.3043938  95.0070215  83.6030663
  27.5610128 105.6318988  84.8428706  28.1050032 106.2448946  84.3483661
  26.9796973 106.1898566  85.3595719  13.9381562  97.0332442  69.1693326
  14.2335003  96.1243120  69.1160379  13.0369598  97.0120181  68.8474328
  25.8467641 108.7539706  75.9743734  25.7218780 107.9529446  75.4654680
  26.5046732 109.2485899  75.4857704  17.4675809  95.1088439  75.1520874
  16.7462395  95.7224406  75.0128348  18.2569065  95.6446203  75.0737520
  27.9102549 106.5548726  77.6023284  26.9632885 106.4354077  77.5301611
  28.2585322 105.6671224  77.6849546  20.2702123  92.4442865  81.4261526
  20.7936524  92.6905162  82.1887835  20.0514456  93.2762900  81.0064663
  15.6669404  94.7146540  69.2932651  15.3382110  93.8343919  69.1107757
  16.0208774  94.6594208  70.1809040  24.9148983 106.3501442  73.8027636
  24.7673945 105.4218150  73.9835206  25.7402476 106.3721533  73.3184712
  18.7811227  95.0019509  69.6608129  19.1207299  95.5305431  68.9386737
  19.2283347  95.3399916  70.4366695  28.5183104 107.1730001  74.8892509
  29.4429652 106.9672862  74.7516960  28.3498408 106.9246402  75.7981851
  21.4754668  93.3856560  79.1111197  21.1351488  92.5864373  79.5131877
  20.7693674  93.6858271  78.5388030  22.1271139  90.4705873  77.5638520
  22.9497209  89.9966351  77.4417410  22.3709203  91.2496356  78.0637206
  20.7679374  93.4994131  67.8601421  21.4887736  93.8775384  67.3565138
  20.1444678  94.2183008  67.9636399  24.9110497  94.2039280  68.7959754
  25.1274111  95.0863918  68.4948582  24.4304564  93.8125493  68.0665396
  19.6509718  97.1624993  75.3730498  19.5054299  97.4765296  76.2654780
  19.1734922  97.7809894  74.8201397  21.5106101  94.1527541  75.4211388
  21.4967670  93.2568635  75.0843686  22.2278529  94.1598205  76.0549674
  23.3632232  94.5864881  77.4664515  23.1050010  95.5081952  77.4648846
  22.8317272  94.1895316  78.1564979  28.3078421 107.6915669  70.2454601
  28.4815298 107.1262091  69.4928453  28.8007312 108.4916563  70.0634091
  14.1255380  99.7030338  78.3118159  13.5808848 100.4790146  78.4438434
  15.0034730 100.0501142  78.1537281  20.9142997  93.0341922  70.6898958
  21.0358908  92.1058568  70.8889845  20.6245039  93.0480607  69.7777273
  23.7834187  90.7196832  73.8265678  23.8055884  90.7836165  72.8717657
  24.2002246  89.8801341  74.0206184  34.1617812 100.4552092  71.8644900
  34.6048958  99.7059417  71.4664024  33.2844322 100.4462228  71.4818632
  29.2953593 107.0082433  67.3451499  29.9904498 107.6289126  67.5638814
  29.6376743 106.1577784  67.6203877  14.9121402  98.8300234  81.2048316
  14.1703138  98.9782869  81.7912947  14.5914147  99.0908500  80.3415066
  31.1945016 104.4582139  68.8738830  31.7196340 104.7969411  68.1488150
  31.1067369 103.5229154  68.6901964  22.8565065 108.3716212  81.0028706
  23.1652191 108.1265359  81.8751406  23.6540547 108.5762851  80.5147577
  22.8785677 110.5254122  73.2334083  22.4390667 110.0330500  73.9266940
  23.6293794 109.9827089  72.9926158  15.3578016 106.7165663  73.2358711
  16.1836036 106.4169435  72.8557354  15.0072068 105.9473285  73.6848500
  20.3259549 106.0692131  75.3056385  19.7039558 105.4062836  75.0058612
  20.9964416 106.0953263  74.6230032  13.5586621 104.6351989  74.1947645
  12.7218529 104.2074163  74.0131646  13.5310266 104.8284432  75.1318436
  20.3984077  94.5473919  84.8988891  20.4472232  95.4236042  84.5166660
  20.9406591  94.0051312  84.3260534  30.8838922 105.0915042  84.1790028
  30.0934466 105.0739181  83.6394527  30.6472277 105.6303336  84.9339064
  31.0036797 101.9407509  81.4922756  31.0534802 101.7757516  82.4338279
  30.8950721 101.0734768  81.1020637  19.8873056 104.6196054  68.7814845
  20.0361176 105.3031519  68.1281518  20.6939499 104.6001144  69.2964301
  28.2940560  97.9238437  82.8082063  29.1950422  97.7844901  82.5166061
  28.3688534  98.0892891  83.7480240  22.6283365  95.3005291  81.6535249
  21.7586674  95.5938857  81.3817838  22.8642845  95.8845736  82.3742513
  32.5054994 104.3604450  81.7364778  32.2139802 104.7234431  82.5728239
  31.8927125 103.6471458  81.5578110  33.7050676 101.9257330  74.2567348
  34.5397568 102.3647134  74.4204908  33.8409805 101.4495983  73.4375594
  30.7542182  99.4837065  80.2044836  31.2296304  99.6764711  79.3963687
  29.8307748  99.5396250  79.9588219  17.6425689 100.6461232  69.7875914
  17.3971731  99.7423562  69.9856124  17.8121604 100.6478382  68.8455392
  25.3322399  91.5184908  79.1700670  25.8504343  92.2545935  78.8447158
  24.9777532  91.8248902  80.0047429  16.9121337  96.3789589  67.2862075
  16.2190581  96.4533944  66.6302111  16.6673088  95.6149933  67.8083592
  25.5834993  87.9385191  74.6901566  25.8636747  87.2708380  75.3161993
  26.3685600  88.1314286  74.1776230  23.3868462 107.1144185  66.2526593
  22.8142429 107.7334372  65.7997064  23.9601255 107.6643546  66.7866514
  29.4543851  96.3602825  78.4373141  30.4061274  96.4600922  78.4585365
  29.2847302  95.5681093  78.9471226  27.4758231  93.4458408  78.6232542
  26.8808163  93.7263421  77.9279031  27.1907928  93.9352309  79.3949283
  26.6065721 107.3981335  67.3835175  27.5396395 107.3326896  67.5868050
  26.5188934 108.2337602  66.9249707  29.2353738 106.7147205  64.3439122
  29.1567370 106.3807069  65.2374880  30.0563405 107.2068973  64.3430595
  31.9331929  99.5808944  77.5515441  31.9008249  98.6424945  77.7375125
  32.5432553  99.6592981  76.8181266  23.7715260  98.4504997  63.5942645
  24.7174365  98.3211206  63.6631063  23.3929505  97.7119659  64.0712073
  32.0826418  96.3719988  77.5973724  31.5665466  95.5878445  77.4103653
  32.9666366  96.0438704  77.7620244  29.7437145  90.1161003  73.5569537
  29.5461966  89.8076092  74.4412869  30.3536850  90.8422642  73.6867467
  37.7508479 100.6424951  76.6921478  38.4811868 100.3810239  77.2529181
  37.1415425  99.9053673  76.7323546  35.8323776  98.7832814  77.2895929
  35.1056940  98.6488779  76.6812421  35.4171063  99.0909642  78.0952647
  23.6553953 102.5022744  85.0543302  24.5756962 102.6801343  85.2483349
  23.6203536 101.5578789  84.9023001  21.9558177  96.3754974  63.5297530
  21.0489633  96.0788087  63.6060244  22.2334158  96.0784792  62.6631816
  12.8736118  97.6961337  73.9796577  12.5538902  96.8426645  73.6870951
  12.3269546  97.9109915  74.7354544  16.6516025 100.4123778  77.6966083
  16.8702035 101.3440886  77.7154117  17.0641799 100.0531753  78.4820887
  23.5720243  90.9191864  69.6841772  22.7620971  90.5738948  70.0597018
  24.2604660  90.6099407  70.2729383  25.5010791  89.9969910  71.3066068
  26.0541830  90.4165364  71.9656091  25.7380878  89.0705658  71.3489024
  21.5243890  95.9856984  87.0868832  21.4240617  96.9351341  87.0180923
  21.3065433  95.6575223  86.2144902  20.7256962  93.2341909  63.6709509
  21.5876126  93.5596807  63.9305327  20.9107306  92.4473405  63.1582575
  12.7424378 101.3164249  75.9489698  12.0487849 100.9018201  75.4359653
  13.4897369 101.3584785  75.3523117  28.8789598  92.1070435  70.8144732
  28.2988267  92.7655240  70.4322785  28.6125531  91.2847780  70.4032150
  27.3293165  91.5075493  73.0166053  27.8292943  91.6192028  72.2080372
  27.9728773  91.2036546  73.6566861  21.3875161  99.4154123  85.9033894
  20.9042242 100.2154483  86.1097783  21.4736100  99.4262068  84.9501338
  14.6561120 101.2482502  73.8255713  14.6331808 101.3470190  72.8737596
  14.9661757 102.0947653  74.1472879  17.3148498 103.3058658  77.9402328
  18.2691752 103.2742600  77.8732259  17.1161022 102.8449281  78.7552553
  17.9047880 101.8759774  80.5073125  18.7240769 102.3703852  80.5307962
  18.1784688 100.9591742  80.4790693  27.6614476  94.2670526  69.8701081
  26.7740331  94.5520176  69.6521275  28.0768465  94.1064289  69.0228358
  31.0129012  94.2917047  73.5855420  31.7889403  94.7813499  73.8580037
  30.2877147  94.7175101  74.0427289  33.4501571  95.0044666  74.6429361
  34.0446062  94.7640402  73.9322669  33.5228155  94.2851797  75.2702897
  15.6698727 108.8478277  74.9572525  15.5353195 108.0878678  74.3910523
  15.2530789 109.5719177  74.4901314  26.8057690 104.0315201  63.9649101
  27.5093540 104.2365203  64.5806756  26.0820339 104.5991962  64.2298184
  27.6355500  99.7825062  70.0851371  27.5790701 100.2393613  69.2459003
  28.1883843  99.0215746  69.9074214  31.4460306  95.5714794  70.9101490
  31.1897240  95.1711429  71.7409698  30.8213174  96.2858588  70.7851630
  35.7572644  98.3110867  73.4172782  35.1972202  98.3804056  74.1904344
  35.1516147  98.1351852  72.6972278  18.8267853 109.7447594  75.1690968
  18.7100237 110.6893027  75.0669658  18.0060299 109.4421156  75.5576767
  28.7144387 104.4697730  66.0147561  29.5489991 104.0378928  65.8325036
  28.5528730 104.2979743  66.9424455  28.3690279 100.9729843  67.3803900
  28.3139083 100.8074114  66.4392344  27.7436335 101.6805876  67.5366090
  13.1582794  96.2097907  81.2065322  13.8041658  95.6996861  81.6952547
  12.9499945  96.9466589  81.7808748  25.6836187 103.2778755  86.7057463
  26.5527346 103.4519407  86.3444098  25.2042938 104.0973172  86.5833192
  21.6786405  90.4737952  66.9589218  21.6665075  91.4179792  67.1157489
  22.5709827  90.2908097  66.6648680  19.8522367 110.3975856  78.3846896
  20.7549614 110.4299466  78.7013391  19.6259737 109.4676307  78.3993232
  21.6075969 109.1506842  75.0456975  20.6571600 109.1508704  74.9321347
  21.9108455 108.4039577  74.5293010  25.4938524  87.0680729  71.2135155
  24.7270920  86.5139215  71.3591838  25.9049229  87.1402597  72.0749307
  17.4980285  93.3565524  85.3040336  18.3611747  93.0002329  85.5143661
  16.9245696  93.0179419  85.9915741  37.3428662 114.9867381  76.1102737
  37.9807072 114.8674128  75.4066078  37.2249505 115.9348225  76.1690690
  34.1518369 114.9394809  76.0464262  33.8136880 114.8235874  75.1584797
  35.0208137 114.5385974  76.0265268  34.6338152 116.0929661  82.0050468
  34.6226792 115.6982459  81.1330971  34.7958791 115.3595733  82.5984239
  31.8526648 113.7083056  65.3781202  32.1052169 113.1864578  64.6164665
  30.9151207 113.5449202  65.4807886  36.8969931 112.7118835  73.1855946
  37.6833020 112.2938258  72.8346363  37.1608635 113.6164927  73.3537594
  42.2978358 112.6494068  74.0888924  43.0303530 112.0793285  74.3226754
  41.5417714 112.2615668  74.5295430  33.9154478 115.0721309  71.2852266
  33.5512685 114.5451930  71.9965188  34.7721594 114.6819778  71.1118752
  39.8203778 106.3615642  78.5483533  39.4887103 107.2311053  78.3244748
  39.2249392 106.0451926  79.2277563  33.5559965 110.1011209  66.2813615
  33.7234367 110.9691445  66.6484086  33.3657134 110.2638491  65.3574904
  39.7132442 111.0810728  75.6276883  38.8049319 111.0126137  75.3335644
  39.6620037 111.5582673  76.4558708  33.5349185 112.5568867  67.2660282
  33.4148811 113.0025917  68.1045762  32.8401774 112.9054184  66.7073820
  33.7873307 112.5000374  83.5711780  33.0106641 113.0594294  83.5614645
  34.4263870 112.9857157  84.0926650  41.5794088 109.2827167  77.4054757
  40.9368468 109.5759700  76.7594551  41.0749017 109.1680087  78.2107953
  39.2334252 113.0290340  68.0940616  40.1452108 113.2617727  67.9188313
  38.7243899 113.6127384  67.5315694  37.5175019 117.4514968  81.7301908
  37.9258375 117.0097378  80.9856541  36.7952281 116.8767595  81.9836101
  33.8706089 112.3887574  79.1035465  34.7167285 112.8126988  79.2470114
  33.8104727 111.7321199  79.7974029  37.0205535 110.0491943  80.7616639
  36.7766467 110.8034003  80.2250915  37.2965465 110.4277290  81.5963886
  38.9743997 116.5930555  79.4393905  39.1860893 117.2362315  78.7628286
  38.9273746 115.7592872  78.9715835  36.5770226 109.2048376  76.3430477
  35.7154705 109.5029629  76.6347214  36.6032661 109.4218775  75.4111509
  32.3300682 113.8713719  69.5593848  33.0324725 114.3234762  70.0267774
  31.9981310 113.2297538  70.1873741  30.7781043 112.4625475  83.9345057
  30.1479704 113.1441756  84.1680454  30.6717131 112.3508557  82.9898195
  26.0726016 112.1297271  74.8610981  25.2825070 112.3854800  74.3851092
  26.5637263 112.9445609  74.9663022  28.0240761 112.4941851  71.8194458
  27.2271925 112.6060545  72.3377954  27.7966353 112.8328503  70.9535348
  48.1795818 115.8141259  73.9601233  47.4259527 115.2448657  73.8045238
  48.3143360 115.7803923  74.9071868  30.0561786 106.7646241  86.2970308
  29.6628732 106.2112440  86.9717952  30.8727926 107.0756820  86.6876826
  32.9729747 108.1804120  83.8890565  33.7139461 108.7811273  83.8095027
  33.2047670 107.4381758  83.3308607  28.1171085 113.3660488  82.1668794
  28.0024600 112.4645745  82.4675893  27.2615603 113.6124184  81.8153611
  36.9186910 104.2085223  78.1654846  36.5751179 105.0986865  78.0893957
  37.2865873 104.0186881  77.3024431  36.8837193 114.1993834  66.6727281
  36.3683816 114.9698439  66.9115669  36.6114501 113.5258970  67.2960343
  34.4684304 109.0443535  71.7312520  33.6125900 108.6550385  71.5518158
  34.8811256 109.1235496  70.8712305  35.9983450 106.5789878  76.1304080
  35.4948246 106.5420013  75.3171885  36.2914057 107.4882621  76.1900736
  32.2426336 106.6628608  75.1370261  33.1079333 106.4671417  74.7776151
  32.3103845 106.4338960  76.0639618  41.8571467 116.9526189  68.6080455
  41.0800910 116.6137348  68.1635617  42.5362948 116.9578812  67.9335420
  36.6723496 112.0720926  68.4987063  36.3673632 112.3867076  69.3497206
  37.6253938 112.1502346  68.5414396  40.0962774 116.4260170  75.2647063
  39.4386448 117.1159432  75.3527191  40.9003173 116.8156602  75.6081049
  29.8488655 108.8930816  72.5086628  30.4232407 108.6705997  71.7759821
  30.4359638 108.9619510  73.2615229  38.9068233 114.7804543  73.3151005
  39.4200114 115.4134535  73.8172714  39.5569457 114.1805738  72.9494365
  30.1758243 110.9235277  66.5282513  29.3395555 111.2609964  66.8491788
  30.0363012 110.7884257  65.5909650  32.1511323 105.7672065  71.2361697
  31.4975735 105.4521082  70.6118312  32.1091797 105.1447805  71.9621520
  33.2622528 116.0491360  63.1514990  32.3549590 115.8180613  63.3506139
  33.7593560 115.2528979  63.3388971  35.3849063 112.2553998  75.5609345
  34.4671625 112.4768945  75.4031033  35.8009207 112.3300309  74.7021052
  36.1684111 113.6545414  70.6912025  36.9155930 114.1666811  70.3819147
  36.4375701 113.3329467  71.5516419  34.4410761 116.1503955  67.6738980
  33.5321981 115.8662988  67.7711449  34.4705845 116.5703033  66.8142287
  38.6162948 110.6902530  72.6730815  37.8785705 110.1779917  73.0041057
  38.8689722 110.2502912  71.8614092  38.7174576 103.4678782  73.2672584
  39.0233453 102.6076146  72.9798499  39.4427181 104.0596403  73.0671578
  32.9895655 113.7632575  73.7748775  33.0444265 112.8106412  73.6991252
  32.1786858 113.9192015  74.2590073  30.9288015 112.3809635  71.5339154
  30.1155881 112.6803806  71.9404346  31.4247010 111.9865324  72.2513636
  36.5262227 112.8451460  80.3654048  36.8811615 113.0722933  81.2248514
  37.1734358 113.1769836  79.7431303  42.2559964 115.9669896  71.0703377
  42.1177863 116.1571492  70.1424566  41.8996183 116.7289278  71.5271428
  30.4202090 109.9527991  77.1500389  31.0601469 109.8116750  76.4523352
  29.5879621 109.6662504  76.7738991  42.2829344 118.0346423  76.0814648
  42.7165850 117.9421712  76.9297702  42.9960924 118.0103923  75.4434664
  27.5045158 113.3973503  69.3395134  26.5742746 113.3357958  69.5565096
  27.6002630 112.8749456  68.5431775  27.4230707 109.9228316  71.9273376
  27.6837524 110.8373649  71.8182536  28.2447879 109.4552758  72.0769988
  28.8955632 111.3366073  79.0972200  29.5678685 111.1283435  78.4484849
  28.0685418 111.1388159  78.6577432  43.1444893 118.0770123  78.6147534
  43.3380783 118.9815934  78.8606809  43.0445511 117.6177542  79.4486119
  34.7981204 107.9628014  81.1137861  34.1509119 108.6617963  81.0202337
  35.5682219 108.3964158  81.4814109  34.9745338 115.8008779  79.1734681
  35.9037398 115.9519938  79.0003648  34.5536368 115.8892799  78.3183327
  29.2983129 114.6108676  79.8574637  29.1602927 113.8788915  80.4586176
  30.2088053 114.5217576  79.5758825  38.2598077 116.5497080  64.6059116
  37.6427247 115.8243908  64.5092168  37.7914565 117.3106440  64.2626190
  31.9265430 114.3228635  79.3458317  32.6365048 113.6821827  79.3044935
  31.8834738 114.5741530  80.2684498  30.6394364 111.3093853  81.1653956
  30.1031721 110.8584591  81.8175553  30.0511072 111.4439762  80.4224421
  30.0496623 110.7682504  63.7280420  29.1726089 110.6471305  63.3642667
  30.5254376 109.9768583  63.4759309  26.3733485 110.4449861  78.2506951
  26.2891674 109.8375530  77.5157361  25.5516191 110.9358879  78.2516447
  36.5457199 108.9303424  73.6177146  37.0425898 108.1773387  73.2978216
  35.7744180 108.9667741  73.0520355  44.3986956 114.6343790  75.2595437
  44.3876833 115.5168505  74.8889371  43.5304336 114.2815341  75.0649975
  33.1292168 111.0720807  73.3448831  32.7589955 110.5191848  74.0329736
  33.6251260 110.4678941  72.7923831  41.0159531 113.5292431  71.7265604
  41.4819983 114.3620422  71.6525906  41.4667031 113.0637412  72.4310862
  38.9876194 105.8973018  75.7656505  38.0739273 106.1277245  75.9338712
  39.4169295 105.9811462  76.6170537  38.7582652 114.0862910  78.2656399
  38.1054102 114.3338817  77.6108852  39.1363032 113.2727048  77.9318876
  34.8070225 114.8282721  84.7522436  34.1310862 114.7276850  85.4224811
  35.6297859 114.6721935  85.2158433  28.5257501 108.4824798  79.5901937
  28.5898828 109.3439629  79.1779334  28.4624622 107.8698800  78.8574295
  28.0009774 110.5547931  83.2374971  28.6281813 110.1725008  83.8512495
  27.1437693 110.3362133  83.6030663  24.7775317 112.3624360  69.1693326
  25.0728758 111.4535038  69.1160379  23.8763352 112.3412099  68.8474328
  28.3069564 110.4380356  75.1520874  27.5856149 111.0516324  75.0128348
  29.0962819 110.9738121  75.0737520  31.1095877 107.7734783  81.4261526
  31.6330279 108.0197079  82.1887835  30.8908210 108.6054818  81.0064663
  26.5063158 110.0438457  69.2932651  26.1775864 109.1635836  69.1107757
  26.8602529 109.9886126  70.1809040  29.6204981 110.3311427  69.6608129
  29.9601054 110.8597348  68.9386737  30.0677102 110.6691833  70.4366695
  32.3148422 108.7148478  79.1111197  31.9745243 107.9156291  79.5131877
  31.6087428 109.0150189  78.5388030  32.9664894 105.7997790  77.5638520
  33.7890963 105.3258268  77.4417410  33.2102958 106.5788274  78.0637206
  31.6073128 108.8286049  67.8601421  32.3281491 109.2067302  67.3565138
  30.9838433 109.5474926  67.9636399  35.7504251 109.5331198  68.7959754
  35.9667866 110.4155836  68.4948582  35.2698319 109.1417411  68.0665396
  30.4903473 112.4916911  75.3730498  30.3448053 112.8057214  76.2654780
  30.0128676 113.1101811  74.8201397  32.3499856 109.4819459  75.4211388
  32.3361424 108.5860552  75.0843686  33.0672284 109.4890123  76.0549674
  34.2025986 109.9156799  77.4664515  33.9443764 110.8373870  77.4648846
  33.6711027 109.5187234  78.1564979  31.7536752 108.3633839  70.6898958
  31.8752663 107.4350485  70.8889845  31.4638794 108.3772525  69.7777273
  34.6227942 106.0488750  73.8265678  34.6449639 106.1128083  72.8717657
  35.0396001 105.2093258  74.0206184  45.0011566 115.7844009  71.8644900
  45.4442712 115.0351334  71.4664024  44.1238077 115.7754146  71.4818632
  31.2377831 109.8765837  84.8988891  31.2865987 110.7527959  84.5166660
  31.7800345 109.3343230  84.3260534  41.8430552 117.2699426  81.4922756
  41.8928557 117.1049434  82.4338279  41.7344475 116.4026685  81.1020637
  39.1334314 113.2530354  82.8082063  40.0344177 113.1136819  82.5166061
  39.2082289 113.4184809  83.7480240  33.4677120 110.6297209  81.6535249
  32.5980429 110.9230775  81.3817838  33.7036600 111.2137654  82.3742513
  44.5444431 117.2549247  74.2567348  45.3791322 117.6939052  74.4204908
  44.6803560 116.7787901  73.4375594  41.5935937 114.8128982  80.2044836
  42.0690058 115.0056629  79.3963687  40.6701502 114.8688168  79.9588219
  36.1716153 106.8476826  79.1700670  36.6898097 107.5837853  78.8447158
  35.8171286 107.1540819  80.0047429  27.7515091 111.7081507  67.2862075
  27.0584336 111.7825862  66.6302111  27.5066843 110.9441851  67.8083592
  36.4228748 103.2677108  74.6901566  36.7030501 102.6000297  75.3161993
  37.2079354 103.4606204  74.1776230  40.2937606 111.6894742  78.4373141
  41.2455029 111.7892840  78.4585365  40.1241056 110.8973011  78.9471226
  38.3151985 108.7750326  78.6232542  37.7201917 109.0555338  77.9279031
  38.0301682 109.2644227  79.3949283  42.7725684 114.9100862  77.5515441
  42.7402004 113.9716863  77.7375125  43.3826307 114.9884899  76.8181266
  34.6109015 113.7796915  63.5942645  35.5568119 113.6503123  63.6631063
  34.2323260 113.0411577  64.0712073  42.9220172 111.7011906  77.5973724
  42.4059221 110.9170362  77.4103653  43.8060121 111.3730622  77.7620244
  40.5830899 105.4452921  73.5569537  40.3855720 105.1368009  74.4412869
  41.1930605 106.1714560  73.6867467  48.5902234 115.9716869  76.6921478
  49.3205622 115.7102157  77.2529181  47.9809179 115.2345591  76.7323546
  46.6717531 114.1124732  77.2895929  45.9450694 113.9780696  76.6812421
  46.2564818 114.4201560  78.0952647  32.7951932 111.7046891  63.5297530
  31.8883387 111.4080004  63.6060244  33.0727913 111.4076710  62.6631816
  34.4113997 106.2483781  69.6841772  33.6014726 105.9030866  70.0597018
  35.0998414 105.9391325  70.2729383  36.3404546 105.3261828  71.3066068
  36.8935584 105.7457281  71.9656091  36.5774632 104.3997576  71.3489024
  32.3637645 111.3148902  87.0868832  32.2634372 112.2643259  87.0180923
  32.1459187 110.9867141  86.2144902  31.5650716 108.5633827  63.6709509
  32.4269880 108.8888725  63.9305327  31.7501060 107.7765323  63.1582575
  39.7183353 107.4362353  70.8144732  39.1382022 108.0947157  70.4322785
  39.4519285 106.6139698  70.4032150  38.1686919 106.8367411  73.0166053
  38.6686698 106.9483945  72.2080372  38.8122527 106.5328464  73.6566861
  32.2268915 114.7446040  85.9033894  31.7435997 115.5446401  86.1097783
  32.3129854 114.7553985  84.9501338  38.5008231 109.5962444  69.8701081
  37.6134086 109.8812094  69.6521275  38.9162220 109.4356207  69.0228358
  41.8522767 109.6208965  73.5855420  42.6283157 110.1105417  73.8580037
  41.1270901 110.0467019  74.0427289  44.2895326 110.3336584  74.6429361
  44.8839816 110.0932320  73.9322669  44.3621909 109.6143714  75.2702897
  38.4749255 115.1116979  70.0851371  38.4184456 115.5685531  69.2459003
  39.0277597 114.3507664  69.9074214  42.2854060 110.9006711  70.9101490
  42.0290995 110.5003347  71.7409698  41.6606929 111.6150505  70.7851630
  46.5966398 113.6402785  73.4172782  46.0365956 113.7095974  74.1904344
  45.9909902 113.4643769  72.6972278  39.2084034 116.3021761  67.3803900
  39.1532838 116.1366032  66.4392344  38.5830089 117.0097794  67.5366090
  23.9976549 111.5389825  81.2065322  24.6435412 111.0288779  81.6952547
  23.7893700 112.2758507  81.7808748  32.5180159 105.8029870  66.9589218
  32.5058829 106.7471710  67.1157489  33.4103581 105.6200015  66.6648680
  36.3332279 102.3972646  71.2135155  35.5664675 101.8431133  71.3591838
  36.7442984 102.4694515  72.0749307  28.3374040 108.6857442  85.3040336
  29.2005501 108.3294247  85.5143661  27.7639451 108.3471337  85.9915741
  47.7580665 119.5377141  78.1654846  47.4144934 120.4278783  78.0893957
  48.1259627 119.3478798  77.3024431  49.5568330 118.7970700  73.2672584
  49.8627207 117.9368063  72.9798499  50.2820935 119.3888320  73.0671578
  49.8269948 121.2264935  75.7656505  48.9133028 121.4569162  75.9338712
  50.2563050 121.3103380  76.6170537  47.2622502 118.5969026  74.6901566
  47.5424256 117.9292215  75.3161993  48.0473109 118.7898122  74.1776230
  51.4224654 120.7744839  73.5569537  51.2249475 120.4659927  74.4412869
  52.0324359 121.5006478  73.6867467  47.1798300 120.6553746  71.3066068
  47.7329339 121.0749199  71.9656091  47.4168387 119.7289494  71.3489024
  47.1726033 117.7264564  71.2135155  46.4058429 117.1723051  71.3591838
  47.5836738 117.7986433  72.0749307   4.8220802  31.5035711  60.6846540
   4.0684510  30.9343109  60.5290545   4.9568343  31.4698375  61.6317175
   1.6436550  31.4738461  58.5890207   2.0867696  30.7245786  58.1909330
   0.7663060  31.4648597  58.2063939   1.1869414  32.9443699  60.9812655
   2.0216306  33.3833503  61.1450215   1.3228543  32.4682353  60.1620900
   5.2327217  31.6611321  63.4166784   5.9630605  31.3996609  63.9774488
   4.6234162  30.9240043  63.4568852   3.3142514  29.8019183  64.0141236
   2.5875678  29.6675148  63.4057727   2.8989801  30.1096012  64.8197954
   0.9320309  26.0231036  61.3674667   1.5264800  25.7826772  60.6567975
   1.0046893  25.3038166  61.9948203   3.2391382  29.3297236  60.1418088
   2.6790940  29.3990426  60.9149650   2.6334885  29.1538221  59.4217585
   4.8247400  46.0053750  62.8348044   5.4625810  45.8860498  62.1311384
   4.7068243  46.9534594  62.8935996   1.6337106  45.9581179  62.7709569
   1.2955618  45.8422243  61.8830104   2.5026875  45.5572344  62.7510575
   2.1156889  47.1116030  68.7295774   2.1045530  46.7168829  67.8576278
   2.2777529  46.3782103  69.3229546   3.0723481  51.4787623  54.0720925
   2.4211461  52.0641703  53.6854938   3.8667844  52.0093818  54.1315962
   4.3788669  43.7305204  59.9101252   5.1651758  43.3124627  59.5591669
   4.6427373  44.6351296  60.0782901   4.5498746  49.1678055  54.6089909
   3.9144579  49.2412681  55.3210814   4.2196152  49.7571653  53.9308988
   9.7797096  43.6680437  60.8134231  10.5122268  43.0979654  61.0472060
   9.0236451  43.2802038  61.2540736   1.3973215  46.0907679  58.0097573
   1.0331423  45.5638300  58.7210495   2.2540331  45.7006148  57.8364059
   7.3022516  37.3802012  65.2728839   6.9705841  38.2497423  65.0490054
   6.7068129  37.0638296  65.9522870   1.0378702  41.1197579  53.0058922
   1.2053105  41.9877815  53.3729393   0.8475871  41.2824860  52.0820211
   3.7954036  49.5814558  64.6724752   3.4954759  50.4839596  64.5640559
   3.4505095  49.3146741  65.5245905   7.1951179  42.0997098  62.3522189
   6.2868057  42.0312506  62.0580950   7.1438775  42.5769043  63.1804015
   1.2692045  43.5186743  70.2957087   0.4925379  44.0780663  70.2859951
   1.9082608  44.0043526  70.8171957   9.0612826  40.3013536  64.1300063
   8.4187206  40.5946069  63.4839858   8.5567754  40.1866456  64.9353260
   6.7152989  44.0476709  54.8185923   7.6270846  44.2804096  54.6433620
   6.2062637  44.6313754  54.2561001   4.9993757  48.4701337  68.4547215
   5.4077113  48.0283748  67.7101847   4.2771019  47.8953965  68.7081408
   1.3524827  43.4073944  65.8280772   2.1986022  43.8313357  65.9715421
   1.2923465  42.7507568  66.5219335   5.3222572  49.0302528  62.2099504
   4.6931434  49.1948242  61.5075572   4.9348234  49.4444137  62.9810468
   9.2011804  49.9656966  59.5643868   8.5162842  50.3455867  59.0140901
   9.2855653  50.5752292  60.2975815   4.5024272  41.0678312  67.4861946
   4.2585204  41.8220373  66.9496221   4.7784203  41.4463660  68.3209193
   6.4562735  47.6116925  66.1639211   6.6679630  48.2548685  65.4873592
   6.4092484  46.7779241  65.6961141   4.0588964  40.2234745  63.0675783
   3.1973443  40.5215999  63.3592521   4.0851399  40.4405144  62.1356816
   0.8750534  48.7676936  59.4749589   1.3388879  49.0464639  58.6854212
   0.6107332  47.8660380  59.2922680   7.5708563  50.4888880  64.3361569
   8.3926007  50.0869067  64.0544250   7.5670966  50.3857114  65.2877684
   1.3365167  50.0372923  66.4922279   1.4009599  50.4993331  67.3280451
   0.6276091  49.4070288  66.6204589  15.6614556  46.8327629  60.6846540
  14.9078265  46.2635027  60.5290545  15.7962097  46.7990293  61.6317175
   1.0513184  51.7041031  56.3601259   0.9158859  52.5492567  56.7886107
   1.5922997  51.9060309  55.5967193   2.6781661  52.3264597  70.4901602
   2.2345515  51.5400976  70.1722506   3.3398874  52.5143748  69.8245492
   4.7762899  52.6067397  68.5183003   4.7581374  53.4276278  68.0263272
   5.6982819  52.4821473  68.7433144   1.2335953  50.1211527  69.3606511
   1.7664290  49.3599815  69.1305819   0.7050034  49.8285179  70.1030666
   4.4005648  35.2271593  64.8900153   4.0569917  36.1173234  64.8139263
   4.7684610  35.0373250  64.0269738   4.3655931  45.2180204  53.3972588
   3.8502554  45.9884808  53.6360975   4.0933239  44.5445340  54.0205649
   1.9503042  40.0629905  58.4557826   1.0944638  39.6736755  58.2763465
   2.3629993  40.1421865  57.5957612   3.4802188  37.5976248  62.8549386
   2.9766984  37.5606383  62.0417191   3.7732795  38.5068991  62.9146043
   9.3390205  47.9712559  55.3325761   8.5619647  47.6323718  54.8880924
  10.0181686  47.9765182  54.6580727   4.1542234  43.0907296  55.2232369
   3.8492369  43.4053445  56.0742512   5.1072676  43.1688716  55.2659702
   2.5988666  49.2497519  56.8725323   2.0710027  48.5150279  56.5598561
   2.0976168  50.0272196  56.6265291   7.5781512  47.4446540  61.9892369
   6.9205186  48.1345801  62.0772498   8.3821911  47.8342972  62.3326356
   6.3886970  45.7990912  60.0396311   6.9018852  46.4320904  60.5418021
   7.0388194  45.1992108  59.6739671   3.6509345  55.7775237  52.7956982
   2.9771043  56.0806933  53.4041940   4.0375167  56.5804317  52.4462439
   2.8667801  43.2740368  62.2854652   1.9490363  43.4955315  62.1276340
   3.2827945  43.3486678  61.4266359   3.6502849  44.6731784  57.4157332
   4.3974668  45.1853181  57.1064454   3.9194439  44.3515836  58.2761726
   1.9229499  47.1690324  54.3984286   1.0140718  46.8849357  54.4956756
   1.9524583  47.5889403  53.5387593   7.1548767  50.7796914  58.1675454
   6.7011094  49.9387824  58.2240644   6.5242733  51.4158312  58.5050234
   6.0981686  41.7088900  59.3976121   5.3604443  41.1966286  59.7286364
   6.3508460  41.2689282  58.5859398   5.5981706  52.6173411  59.1025272
   5.8904680  53.1778468  58.3837638   6.1080326  52.9101972  59.8578431
   6.1993314  34.4865152  59.9917891   6.5052190  33.6262515  59.7043806
   6.9245918  35.0782772  59.7916884   1.6205587  48.7099068  51.7372365
   1.1825017  47.9934927  51.2778002   2.3616028  48.9375183  51.1757456
   0.5615331  53.3953762  60.1918725   0.5191510  53.6214608  59.2627257
   1.4778030  53.1617136  60.3404526   4.0080965  43.8637829  67.0899354
   4.3630353  44.0909302  67.9493820   4.6553096  44.1956206  66.4676610
   9.7378702  46.9856265  57.7948683   9.5996600  47.1757861  56.8669873
   9.3814921  47.7475648  58.2516735   9.7648081  49.0532792  62.8059955
  10.1984588  48.9608081  63.6543009  10.4779662  49.0290293  62.1679971
   3.4975976  52.6534886  64.3393056   3.5512999  53.2225823  65.1070771
   2.6290758  52.8236771  63.9747093  10.6263631  49.0956493  65.3392840
  10.8199521  50.0002303  65.5852115  10.5264249  48.6363912  66.1731425
   2.2799942  38.9814383  67.8383168   1.6327857  39.6804333  67.7447644
   3.0500957  39.4150527  68.2059416   5.6878740  49.2463236  70.9133721
   5.5364246  49.0173787  69.9963805   5.6783419  50.2033837  70.9265066
   2.4564076  46.8195148  65.8979987   3.3856136  46.9706308  65.7248955
   2.0355106  46.9079169  65.0428634   1.8500560  55.9454909  55.0104062
   2.0252316  55.4742952  55.8249684   1.1633348  56.5720675  55.2385322
   2.8057623  50.2227415  61.0567363   2.4707456  50.1828185  61.9525013
   2.3061569  49.5572131  60.5837773   5.7416815  47.5683450  51.3304422
   5.1245985  46.8430278  51.2337475   5.2733303  48.3292810  50.9871497
   7.3970946  52.2782358  68.9910203   7.3383492  51.5941578  68.3240786
   7.7990465  53.0201348  68.5390829   7.3988354  50.2421942  67.2224182
   6.5115132  49.9047864  67.3450581   7.9686905  49.5104973  67.4592948
   0.9289507  54.9023394  64.1885426   0.8559678  55.7078366  64.7004730
   0.4866900  55.1015360  63.3633447   4.0275937  39.9489794  60.3422453
   4.5244636  39.1959756  60.0223523   3.2562918  39.9854110  59.7765662
  11.8805694  45.6530159  61.9840744  11.8695570  46.5354875  61.6134677
  11.0123074  45.3001710  61.7895281   3.3888190  54.8010228  66.3443584
   4.1016163  55.4357693  66.2719486   2.8978219  54.8974094  65.5283586
   5.1105717  48.7061481  57.9160876   4.1761996  48.8262944  57.7465580
   5.2882386  47.8033948  57.6520886   8.4978269  44.5478800  58.4510910
   8.9638721  45.3806792  58.3771213   8.9485769  44.0823782  59.1556169
   6.5654500  50.8922622  55.4497062   6.8414344  50.7779216  56.3590936
   5.6958999  50.4940106  55.4109235   6.4694931  36.9159387  62.4901811
   5.5558011  37.1463614  62.6584018   6.8988033  36.9997831  63.3415844
   6.2401390  45.1049279  64.9901706   5.5872840  45.3525187  64.3354158
   6.6181770  44.2913417  64.6564183   3.2008564  55.1408972  59.0929876
   3.3830958  54.3230628  59.5557628   4.0241550  55.3576665  58.6554766
   3.5350729  54.0677158  56.3544924   4.0638496  53.5569612  55.7415086
   3.7978949  53.7519688  57.2190457   2.2888963  45.8469090  71.4767743
   1.6129600  45.7463220  72.1470118   3.1116597  45.6908304  71.9403740
   1.0311746  57.1536018  65.7125359   1.5830054  57.3167639  66.4774444
   1.3717939  57.7440456  65.0405383   5.8822620  51.9797275  71.5674013
   6.4262524  52.5927234  71.0728968   5.3009465  52.5376854  72.0841026
   4.1680133  55.1017993  62.6989041   4.0431273  54.3007733  62.1899986
   4.8259224  55.5964187  62.2103011   6.2315042  52.9027013  64.3268591
   5.2845377  52.7832365  64.2546918   6.5797815  52.0149511  64.4094852
   3.2361475  52.6979730  60.5272943   3.0886437  51.7696437  60.7080513
   4.0614968  52.7199820  60.0430018   6.8395597  53.5208288  61.6137816
   7.7642144  53.3151150  61.4762267   6.6710900  53.2724690  62.5227157
   3.2322989  40.5517567  55.5205060   3.4486604  41.4342205  55.2193888
   2.7517056  40.1603781  54.7910702   1.6844724  40.9343169  64.1909822
   1.4262502  41.8560239  64.1894152   1.1529765  40.5373603  64.8810286
   6.6290913  54.0393956  56.9699907   6.8027790  53.4740378  56.2173760
   7.1219804  54.8394851  56.7879397   2.1046680  37.0675119  60.5510984
   2.1268377  37.1314452  59.5962964   2.5214739  36.2279628  60.7451491
  12.4830304  46.8030379  58.5890207  12.9261450  46.0537704  58.1909330
  11.6056814  46.7940515  58.2063939   7.6166085  53.3560720  54.0696806
   8.3116990  53.9767413  54.2884120   7.9589236  52.5056071  54.3449183
   9.5157509  50.8060426  55.5984136  10.0408833  51.1447699  54.8733456
   9.4279861  49.8707441  55.4147271   1.1777557  54.7194499  67.7274013
   1.4864684  54.4743646  68.5996713   1.9753039  54.9241138  67.2392883
   1.1998169  56.8732409  59.9579390   0.7603160  56.3808788  60.6512246
   1.9506286  56.3305377  59.7171465   9.2051415  51.4393329  70.9035334
   8.4146958  51.4217468  70.3639834   8.9684769  51.9781623  71.6584371
   9.3249290  48.2885796  68.2168063   9.3747295  48.1235803  69.1583586
   9.2163213  47.4213055  67.8265944   6.6153052  44.2716724  69.5327370
   7.5162915  44.1323189  69.2411367   6.6901027  44.4371179  70.4725547
  10.8267486  50.7082737  68.4610084  10.5352295  51.0712718  69.2973545
  10.2139618  49.9949746  68.2823416  12.0263169  48.2735617  60.9812655
  12.8610060  48.7125421  61.1450215  12.1622298  47.7974270  60.1620900
   9.0754675  45.8315352  66.9290142   9.5508796  46.0242998  66.1208994
   8.1520240  45.8874538  66.6833526   3.6534891  37.8663195  65.8945976
   4.1716835  38.6024222  65.5692465   3.2990024  38.1727189  66.7292735
   3.9047485  34.2863478  61.4146873   4.1849239  33.6186667  62.0407299
   4.6898092  34.4792574  60.9021537   1.7080954  53.4622472  52.9771899
   1.1354921  54.0812659  52.5242371   2.2813748  54.0121834  53.5111821
   7.7756344  42.7081112  65.1618448   8.7273767  42.8079210  65.1830672
   7.6059794  41.9159381  65.6716532   5.7970723  39.7936695  65.3477849
   5.2020655  40.0741708  64.6524337   5.5120420  40.2830596  66.1194590
   4.9278214  53.7459622  54.1080481   5.8608887  53.6805184  54.3113357
   4.8401426  54.5815889  53.6495014   7.5566230  53.0625492  51.0684429
   7.4779862  52.7285356  51.9620187   8.3775897  53.5547260  51.0675901
  10.2544421  45.9287232  64.2760748  10.2220742  44.9903232  64.4620431
  10.8645045  46.0071268  63.5426572   2.0927752  44.7983285  50.3187952
   3.0386857  44.6689493  50.3876370   1.7141997  44.0597947  50.7957380
  10.4038910  42.7198275  64.3219031   9.8877959  41.9356732  64.1348960
  11.2878858  42.3916992  64.4865550   8.0649637  36.4639291  60.2814843
   7.8674458  36.1554379  61.1658175   8.6749342  37.1900930  60.4112773
  16.0720971  46.9903239  63.4166784  16.8024360  46.7288527  63.9774488
  15.4627917  46.2531960  63.4568852  14.1536268  45.1311101  64.0141236
  13.4269432  44.9967066  63.4057727  13.7383555  45.4387930  64.8197954
   1.9766445  48.8501031  71.7788609   2.8969454  49.0279630  71.9728655
   1.9416028  47.9057076  71.6268308   1.8932735  37.2670151  56.4087078
   1.0833464  36.9217236  56.7842324   2.5817152  36.9577694  56.9974690
   3.8223284  36.3448198  58.0311375   4.3754322  36.7643651  58.6901398
   4.0593370  35.4183946  58.0734331   7.2002091  38.4548723  57.5390039
   6.6200760  39.1133527  57.1568091   6.9338023  37.6326067  57.1277457
   5.6505657  37.8553780  59.7411359   6.1505435  37.9670315  58.9325678
   6.2941265  37.5514833  60.3812168   5.9826969  40.6148813  56.5946387
   5.0952824  40.8998464  56.3766582   6.3980958  40.4542576  55.7473664
   9.3341505  40.6395334  60.3100727  10.1101895  41.1291787  60.5825343
   8.6089639  41.0653388  60.7672596  11.7714063  41.3522953  61.3674667
  12.3658554  41.1118689  60.6567975  11.8440647  40.6330084  61.9948203
   5.1270182  50.3793488  50.6894407   5.8306032  50.5843490  51.3052063
   4.4032831  50.9470250  50.9543491   5.9567992  46.1303349  56.8096677
   5.9003194  46.5871900  55.9704310   6.5096335  45.3694034  56.6319520
   9.7672798  41.9193081  57.6346797   9.5109733  41.5189717  58.4655005
   9.1425666  42.6336875  57.5096936  14.0785136  44.6589154  60.1418088
  13.5184694  44.7282343  60.9149650  13.4728639  44.4830139  59.4217585
   7.0356879  50.8176017  52.7392867   7.8702483  50.3857215  52.5570342
   6.8741222  50.6458031  53.6669762   6.6902772  47.3208130  54.1049207
   6.6351575  47.1552402  53.1637651   6.0648827  48.0284163  54.2611396
   4.0048679  49.6257042  73.4302769   4.8739838  49.7997694  73.0689404
   3.5255430  50.4451459  73.3078499   3.8151017  33.4159016  57.9380462
   3.0483412  32.8617503  58.0837144   4.2261722  33.4880885  58.7994613
  15.6641155  61.3345668  62.8348044  16.3019565  61.2152415  62.1311384
  15.5461997  62.2826512  62.8935996  12.4730861  61.2873096  62.7709569
  12.1349372  61.1714161  61.8830104  13.3420629  60.8864261  62.7510575
   8.3317677  63.1408573  58.7606460   7.7682542  63.0498510  57.9922748
   8.2170072  62.3208477  59.2408952  12.9550644  62.4407948  68.7295774
  12.9439285  62.0460746  67.8576278  13.1171283  61.7074021  69.3229546
   5.8782108  64.6359764  61.5990680   6.6703400  64.2950589  61.1836980
   6.1178759  64.7454739  62.5192834  13.9117235  66.8079540  54.0720925
  13.2605215  67.3933621  53.6854938  14.7061598  67.3385735  54.1315962
   7.8372862  63.8968677  54.4708059   8.6103738  63.3497665  54.3320935
   8.1898261  64.7612927  54.6822520   9.6757905  65.2245060  67.6774958
   9.3847771  66.1290691  67.5621625  10.3114889  65.2661587  68.3919028
  10.6014112  62.6021908  64.2676318  11.1977684  62.3777931  63.5533281
  10.6589083  61.8606654  64.8701766  10.1739140  60.0561344  52.1026509
  10.4264661  59.5342865  51.3409972   9.2363699  59.8927489  52.2053193
  15.2182423  59.0597122  59.9101252  16.0045512  58.6416545  59.5591669
  15.4821127  59.9643214  60.0782901  15.3892500  64.4969972  54.6089909
  14.7538333  64.5704599  55.3210814  15.0589907  65.0863571  53.9308988
  20.6190850  58.9972355  60.8134231  21.3516022  58.4271572  61.0472060
  19.8630206  58.6093956  61.2540736   9.8935429  61.9589450  54.3050884
   9.7771687  61.2834353  54.9731968  10.0037689  61.4721823  53.4883037
  12.2366970  61.4199597  58.0097573  11.8725177  60.8930218  58.7210495
  13.0934086  61.0298066  57.8364059  18.1416271  52.7093929  65.2728839
  17.8099595  53.5789340  65.0490054  17.5461884  52.3930213  65.9522870
  11.8772457  56.4489496  53.0058922  12.0446859  57.3169733  53.3729393
  11.6869626  56.6116778  52.0820211  14.6347790  64.9106475  64.6724752
  14.3348513  65.8131514  64.5640559  14.2898850  64.6438658  65.5245905
   8.0860272  61.3620272  60.7061456   7.1610768  61.2296486  60.9139148
   8.3344685  62.1414491  61.2031399  18.0344934  57.4289015  62.3522189
  17.1261811  57.3604424  62.0580950  17.9832530  57.9060960  63.1804015
  11.8561678  58.9047154  53.9905588  11.7361303  59.3504205  54.8291069
  11.1614266  59.2532472  53.4319127   5.4469083  61.0053546  61.5405246
   5.5761464  61.2588025  62.4544657   4.7666534  61.5981254  61.2209901
   9.6168570  71.6750796  57.6395720   9.5392600  72.6258621  57.7184200
   9.0130213  71.3296668  58.2970646  12.1085800  58.8478661  70.2957087
  11.3319134  59.4072581  70.2859951  12.7476363  59.3335444  70.8171957
  19.9006580  55.6305454  64.1300063  19.2580961  55.9237987  63.4839858
  19.3961509  55.5158374  64.9353260  17.5546744  59.3768627  54.8185923
  18.4664600  59.6096014  54.6433620  17.0456391  59.9605671  54.2561001
  10.3632172  61.6564114  69.8575054  11.1046856  62.1949158  69.5809877
   9.6569157  62.2830403  70.0146605  15.8387512  63.7993255  68.4547215
  16.2470868  63.3575665  67.7101847  15.1164773  63.2245882  68.7081408
  12.1918582  58.7365862  65.8280772  13.0379777  59.1605275  65.9715421
  12.1317219  58.0799486  66.5219335  16.1616326  64.3594445  62.2099504
  15.5325189  64.5240160  61.5075572  15.7741988  64.7736055  62.9810468
  20.0405558  65.2948883  59.5643868  19.3556596  65.6747785  59.0140901
  20.1249407  65.9044210  60.2975815  15.3418027  56.3970230  67.4861946
  15.0978959  57.1512290  66.9496221  15.6177957  56.7755578  68.3209193
  17.2956490  62.9408842  66.1639211  17.5073385  63.5840602  65.4873592
  17.2486238  62.1071159  65.6961141  14.8982719  55.5526663  63.0675783
  14.0367198  55.8507917  63.3592521  14.9245153  55.7697062  62.1356816
  11.7144288  64.0968854  59.4749589  12.1782634  64.3756557  58.6854212
  11.4501086  63.1952298  59.2922680   8.6068369  63.6440335  62.4129352
   9.1769726  64.0727603  61.7746837   9.1976481  63.3622920  63.1113538
  10.6513174  60.2192006  56.2839154  11.3537218  60.6713050  56.7513081
  10.3193803  59.5775825  56.9119047   9.0993536  58.8103763  70.6590364
   8.4692196  59.4920043  70.8925760   8.9929624  58.6986844  69.7143502
   4.3938508  58.4775559  61.5856288   3.6037562  58.7333087  61.1096398
   4.8849756  59.2923896  61.6908328  18.4102318  65.8180798  64.3361569
  19.2319761  65.4160985  64.0544250  18.4064721  65.7149032  65.2877684
   6.3453254  58.8420138  58.5439764   5.5484417  58.9538832  59.0623260
   6.1178846  59.1806790  57.6780655  12.1758921  65.3664841  66.4922279
  12.2403354  65.8285248  67.3280451  11.4669845  64.7362206  66.6204589
   2.6776211  58.7306049  64.0171279   2.9284250  59.6153059  64.2828855
   3.2135760  58.5510651  63.2446370  26.5008311  62.1619546  60.6846540
  25.7472019  61.5926944  60.5290545  26.6355852  62.1282211  61.6317175
  11.8906939  67.0332949  56.3601259  11.7552614  67.8784484  56.7886107
  12.4316751  67.2352226  55.5967193   8.3774278  53.1124528  73.0215615
   7.9841224  52.5590727  73.6963259   9.1940419  53.4235107  73.4122132
   5.3436336  64.5508387  56.9329185   5.8560857  65.3451637  57.0834749
   5.9959049  63.8534677  56.8662786   7.1531221  67.6674143  59.0151938
   7.3297849  68.5892108  58.8272922   7.9488054  67.3532562  59.4446317
  11.2942239  54.5282407  70.6135871  12.0351953  55.1289561  70.5340334
  11.5260162  53.7860045  70.0553914   6.4383577  59.7138775  68.8914101
   6.3237093  58.8124032  69.1921200   5.5828095  59.9602472  68.5398917
  13.5175415  67.6556515  70.4901602  13.0739269  66.8692894  70.1722506
  14.1792629  67.8435666  69.8245492   8.2762536  69.1852317  65.0162280
   8.8269961  69.0569380  64.2439274   7.4374012  69.4847206  64.6657173
  15.6156653  67.9359315  68.5183003  15.5975129  68.7568196  68.0263272
  16.5376573  67.8113390  68.7433144  12.0729707  65.4503444  69.3606511
  12.6058044  64.6891733  69.1305819  11.5443788  65.1577096  70.1030666
  15.2399402  50.5563510  64.8900153  14.8963672  51.4465152  64.8139263
  15.6078365  50.3665168  64.0269738   3.3085253  62.8797041  57.7088755
   4.1460475  63.2894049  57.4922463   3.4863521  61.9396483  57.6788949
  15.2049685  60.5472122  53.3972588  14.6896309  61.3176726  53.6360975
  14.9326994  59.8737258  54.0205649  12.7896796  55.3921822  58.4557826
  11.9338392  55.0028673  58.2763465  13.2023748  55.4713783  57.5957612
  14.3195943  52.9268166  62.8549386  13.8160738  52.8898301  62.0417191
  14.6126550  53.8360908  62.9146043  10.5638829  53.0106895  61.8615568
  11.4291825  52.8149704  61.5021457  10.6316338  52.7817247  62.7884925
  20.1783959  63.3004476  55.3325761  19.4013402  62.9615636  54.8880924
  20.8575440  63.3057099  54.6580727  14.9935988  58.4199214  55.2232369
  14.6886124  58.7345363  56.0742512  15.9466430  58.4980634  55.2659702
  13.4382420  64.5789437  56.8725323  12.9103782  63.8442197  56.5598561
  12.9369923  65.3564113  56.6265291  18.4175266  62.7738457  61.9892369
  17.7598941  63.4637719  62.0772498  19.2215665  63.1634889  62.3326356
   8.1701148  55.2409103  59.2331935   8.7444900  55.0184285  58.5005128
   8.7572130  55.3097798  59.9860536  17.2280725  61.1282830  60.0396311
  17.7412607  61.7612822  60.5418021  17.8781949  60.5284026  59.6739671
   8.4970735  57.2713564  53.2527820   7.6608047  57.6088251  53.5737095
   8.3575504  57.1362544  52.3154957  10.4723815  52.1150352  57.9607004
   9.8188228  51.7999369  57.3363619  10.4304290  51.4926093  58.6866827
  11.5835020  62.3969647  49.8760296  10.6762082  62.1658901  50.0751445
  12.0806052  61.6007266  50.0634278  14.4903099  71.1067154  52.7956982
  13.8164798  71.4098851  53.4041940  14.8768921  71.9096235  52.4462439
  13.7061556  58.6032286  62.2854652  12.7884117  58.8247233  62.1276340
  14.1221699  58.6778596  61.4266359  14.4896604  60.0023701  57.4157332
  15.2368422  60.5145099  57.1064454  14.7588193  59.6807754  58.2761726
  12.7623254  62.4982242  54.3984286  11.8534473  62.2141275  54.4956756
  12.7918338  62.9181321  53.5387593  17.9942521  66.1088832  58.1675454
  17.5404848  65.2679741  58.2240644  17.3636488  66.7450230  58.5050234
  16.9375441  57.0380818  59.3976121  16.1998197  56.5258204  59.7286364
  17.1902214  56.5981199  58.5859398  16.4375460  67.9465328  59.1025272
  16.7298435  68.5070385  58.3837638  16.9474081  68.2393889  59.8578431
  17.0387068  49.8157070  59.9917891  17.3445945  48.9554433  59.7043806
  17.7639673  50.4074690  59.7916884   3.3311424  60.2187756  58.3799488
   3.1335824  59.6257117  57.6550555   2.7758088  59.9139966  59.0975427
  11.3108148  60.1110863  60.4994082  11.3656758  59.1584699  60.4236558
  10.4999350  60.2670302  60.9835380  12.4599342  64.0390986  51.7372365
  12.0218771  63.3226845  51.2778002  13.2009782  64.2667101  51.1757456
   9.2500508  58.7287922  58.2584461   8.4368373  59.0282093  58.6649653
   9.7459502  58.3343611  58.9758943  11.4009086  68.7245679  60.1918725
  11.3585264  68.9506526  59.2627257  12.3171784  68.4909054  60.3404526
  14.8474719  59.1929747  67.0899354  15.2024107  59.4201220  67.9493820
  15.4946851  59.5248124  66.4676610  20.5772456  62.3148183  57.7948683
  20.4390355  62.5049779  56.8669873  20.2208675  63.0767566  58.2516735
   8.7414582  56.3006278  63.8745695   9.3813962  56.1595037  63.1768659
   7.9092113  56.0140791  63.4984297  20.6041836  64.3824710  62.8059955
  21.0378343  64.2899999  63.6543009  21.3173417  64.3582210  62.1679971
   9.5174886  65.6008708  59.9880688  10.3115485  65.1059029  59.7863263
   8.8066579  65.0726571  59.6248393  14.3369731  67.9826804  64.3393056
  14.3906753  68.5517740  65.1070771  13.4684512  68.1528689  63.9747093
   5.8257650  59.7451790  56.0640441   4.8955238  59.6836246  56.2810403
   5.9215122  59.2227743  55.2677082   5.7443199  56.2706603  58.6518682
   6.0050016  57.1851936  58.5427843   6.5660371  55.8031045  58.8015295
   7.2168124  57.6844360  65.8217507   7.8891178  57.4761722  65.1730156
   6.3897911  57.4866446  65.3822739  21.4657385  64.4248410  65.3392840
  21.6593276  65.3294221  65.5852115  21.3658004  63.9655830  66.1731425
  13.1193696  54.3106301  67.8383168  12.4721611  55.0096251  67.7447644
  13.8894712  54.7442445  68.2059416  16.5272494  64.5755153  70.9133721
  16.3758001  64.3465705  69.9963805  16.5177174  65.5325755  70.9265066
  13.2957831  62.1487066  65.8979987  14.2249891  62.2998226  65.7248955
  12.8748861  62.2371087  65.0428634  12.0946162  66.1737730  63.6678525
  11.9557248  65.8056515  64.5404463  11.3060759  66.6885370  63.4962483
  12.6894314  71.2746827  55.0104062  12.8646070  70.8034870  55.8249684
  12.0027102  71.9012593  55.2385322  13.6451377  65.5519333  61.0567363
  13.3101210  65.5120103  61.9525013  13.1455323  64.8864049  60.5837773
   7.6195621  60.9586963  66.5819944   7.4815419  60.2267202  67.1831483
   8.5300545  60.8695863  66.3004132  16.5810569  62.8975367  51.3304422
  15.9639740  62.1722196  51.2337475  16.1127058  63.6584728  50.9871497
  10.2477922  60.6706922  66.0703624  10.9577541  60.0300115  66.0290242
  10.2047230  60.9219817  66.9929804  18.2364701  67.6074276  68.9910203
  18.1777247  66.9233496  68.3240786  18.6384219  68.3493266  68.5390829
   8.9606856  57.6572140  67.8899263   8.4244213  57.2062879  68.5420859
   8.3723565  57.7918049  67.1469727   7.2555400  74.4236190  61.7843922
   7.4951998  75.0554714  62.4622940   6.4124596  74.0724230  62.0709281
   8.3709115  57.1160792  50.4525727   7.4938581  56.9949592  50.0887973
   8.8466868  56.3246870  50.2004615  18.2382108  65.5713860  67.2224182
  17.3508887  65.2339781  67.3450581  18.8080659  64.8396891  67.4592948
   4.6945977  56.7928148  64.9752258   4.6104166  56.1853818  64.2402668
   3.8728684  57.2837166  64.9761754  11.7683261  70.2315312  64.1885426
  11.6953433  71.0370284  64.7004730  11.3260655  70.4307278  63.3633447
  11.5573041  69.4687082  57.6988247  10.7740563  70.0108762  57.7926472
  12.2565786  69.9861062  58.0982488  14.8669691  55.2781712  60.3422453
  15.3638391  54.5251674  60.0223523  14.0956673  55.3146028  59.7765662
  22.7199449  60.9822077  61.9840744  22.7089325  61.8646792  61.6134677
  21.8516828  60.6293628  61.7895281  14.2281945  70.1302146  66.3443584
  14.9409917  70.7649611  66.2719486  13.7371974  70.2266012  65.5283586
  15.9499472  64.0353399  57.9160876  15.0155751  64.1554861  57.7465580
  16.1276140  63.1325866  57.6520886  11.4504660  57.4199095  60.0694137
  11.0802447  56.8670135  60.7575043  11.9463752  56.8157228  59.5169137
  19.3372023  59.8770718  58.4510910  19.8032475  60.7098710  58.3771213
  19.7879524  59.4115700  59.1556169   9.2793859  67.8796590  67.1649155
   9.9803318  68.5133072  67.3178549   8.8088974  68.2211321  66.4044794
  17.4048254  66.2214539  55.4497062  17.6808098  66.1071134  56.3590936
  16.5352753  65.8232024  55.4109235  17.3088686  52.2451305  62.4901811
  16.3951766  52.4755532  62.6584018  17.7381787  52.3289749  63.3415844
  17.0795144  60.4341197  64.9901706  16.4266595  60.6817104  64.3354158
  17.4575524  59.6205335  64.6564183  14.0402318  70.4700890  59.0929876
  14.2224713  69.6522546  59.5557628  14.8635304  70.6868582  58.6554766
  14.3744484  69.3969075  56.3544924  14.9032250  68.8861530  55.7415086
  14.6372703  69.0811605  57.2190457  13.1282717  61.1761008  71.4767743
  12.4523355  61.0755137  72.1470118  13.9510351  61.0200222  71.9403740
   4.8761577  67.4132945  64.0980258   5.4615013  66.6676632  64.2308162
   4.6786415  67.7236901  64.9816922   7.7300232  70.4484192  59.1142700
   7.0610607  70.9330320  58.6306740   7.5913101  70.6953412  60.0286079
  11.8705500  72.4827935  65.7125359  12.4223808  72.6459557  66.4774444
  12.2111694  73.0732373  65.0405383   6.8469994  54.8303085  66.3147243
   6.9111320  55.6917916  65.9024641   6.7837114  54.2177087  65.5819602
   6.3222266  56.9026218  69.9620278   6.9494305  56.5203295  70.5757802
   5.4650185  56.6840420  70.3275970  16.7216375  67.3089193  71.5674013
  17.2656279  67.9219151  71.0728968  16.1403220  67.8668771  72.0841026
   3.0987809  58.7102647  55.8938632   3.3941250  57.8013325  55.8405686
   2.1975845  58.6890386  55.5719635  15.0073888  70.4309911  62.6989041
  14.8825027  69.6299651  62.1899986  15.6652979  70.9256104  62.2103011
   6.6282056  56.7858644  61.8766181   5.9068642  57.3994611  61.7373654
   7.4175312  57.3216408  61.7982827  17.0708796  68.2318931  64.3268591
  16.1239132  68.1124282  64.2546918  17.4191569  67.3441429  64.4094852
   9.4308369  54.1213070  68.1506833   9.9542771  54.3675367  68.9133142
   9.2120703  54.9533105  67.7309970   4.8275650  56.3916745  56.0177958
   4.4988357  55.5114124  55.8353063   5.1815021  56.3364413  56.9054347
  14.0755229  68.0271647  60.5272943  13.9280192  67.0988355  60.7080513
  14.9008723  68.0491738  60.0430018   7.9417474  56.6789714  56.3853435
   8.2813546  57.2075636  55.6632044   8.3889594  57.0170121  57.1612002
  17.6789351  68.8500206  61.6137816  18.6035899  68.6443067  61.4762267
  17.5104655  68.6016607  62.5227157  10.6360914  55.0626765  65.8356503
  10.2957735  54.2634578  66.2377183   9.9299921  55.3628476  65.2633336
  11.2877386  52.1476078  64.2883826  12.1103456  51.6736556  64.1662717
  11.5315450  52.9266561  64.7882513   9.9285621  55.1764336  54.5846728
  10.6493983  55.5545589  54.0810445   9.3050925  55.8953213  54.6881706
  14.0716744  55.8809485  55.5205060  14.2880358  56.7634123  55.2193888
  13.5910811  55.4895698  54.7910702   8.8115965  58.8395198  62.0975805
   8.6660546  59.1535501  62.9900086   8.3341169  59.4580099  61.5446704
  10.6712348  55.8297746  62.1456694  10.6573917  54.9338839  61.8088992
  11.3884776  55.8368410  62.7794981  12.5238479  56.2635086  64.1909822
  12.2656256  57.1852157  64.1894152  11.9923519  55.8665521  64.8810286
  17.4684667  69.3685873  56.9699907  17.6421545  68.8032296  56.2173760
  17.9613559  70.1686768  56.7879397   3.2861627  61.3800543  65.0363466
   2.7415095  62.1560351  65.1683740   4.1640977  61.7271347  64.8782588
  10.0749244  54.7112126  57.4144265  10.1965155  53.7828773  57.6135152
   9.7851286  54.7250812  56.5022580  12.9440434  52.3967037  60.5510984
  12.9662131  52.4606370  59.5962964  13.3608493  51.5571546  60.7451491
  23.3224059  62.1322296  58.5890207  23.7655205  61.3829622  58.1909330
  22.4450569  62.1232433  58.2063939  18.4559840  68.6852638  54.0696806
  19.1510745  69.3059331  54.2884120  18.7982990  67.8347989  54.3449183
   4.0727649  60.5070439  67.9293623   3.3309385  60.6553074  68.5158253
   3.7520393  60.7678704  67.0660372  20.3551263  66.1352343  55.5984136
  20.8802587  66.4739616  54.8733456  20.2673616  65.1999359  55.4147271
  12.0171312  70.0486417  67.7274013  12.3258438  69.8035564  68.5996713
  12.8146794  70.2533056  67.2392883  12.0391924  72.2024327  59.9579390
  11.5996914  71.7100705  60.6512246  12.7900041  71.6597294  59.7171465
   4.5184263  68.3935868  59.9604018   5.3442283  68.0939639  59.5802661
   4.1678315  67.6243490  60.4093806   9.4865796  67.7462336  62.0301691
   8.8645805  67.0833041  61.7303919  10.1570663  67.7723468  61.3475339
   2.7192868  66.3122194  60.9192951   1.8824776  65.8844368  60.7376952
   2.6916513  66.5054637  61.8563742   9.5590323  56.2244124  71.6234197
   9.6078479  57.1006247  71.2411967  10.1012838  55.6821517  71.0505840
  20.0445169  66.7685247  70.9035334  19.2540713  66.7509386  70.3639834
  19.8078524  67.3073541  71.6584371  20.1643044  63.6177713  68.2168063
  20.2141049  63.4527721  69.1583586  20.0556967  62.7504972  67.8265944
   9.0479303  66.2966259  55.5060152   9.1967423  66.9801724  54.8526824
   9.8545746  66.2771349  56.0209607  17.4546807  59.6008641  69.5327370
  18.3556669  59.4615106  69.2411367  17.5294781  59.7663096  70.4725547
  11.7889612  56.9775496  68.3780556  10.9192921  57.2709062  68.1063144
  12.0249092  57.5615941  69.0987819  21.6661241  66.0374655  68.4610084
  21.3746049  66.4004636  69.2973545  21.0533372  65.3241663  68.2823416
  22.8656923  63.6027535  60.9812655  23.7003815  64.0417339  61.1450215
  23.0016052  63.1266188  60.1620900  19.9148429  61.1607270  66.9290142
  20.3902551  61.3534916  66.1208994  18.9913995  61.2166455  66.6833526
   6.8031936  62.3231437  56.5121221   6.5577978  61.4193767  56.7101431
   6.9727850  62.3248587  55.5700699  14.4928646  53.1955113  65.8945976
  15.0110590  53.9316140  65.5692465  14.1383778  53.5019106  66.7292735
   6.0727583  58.0559794  54.0107382   5.3796828  58.1304149  53.3547418
   5.8279335  57.2920138  54.5328899  14.7441240  49.6155396  61.4146873
  15.0242994  48.9478585  62.0407299  15.5291847  49.8084491  60.9021537
  12.5474708  68.7914390  52.9771899  11.9748675  69.4104577  52.5242371
  13.1207502  69.3413751  53.5111821  18.6150098  58.0373030  65.1618448
  19.5667521  58.1371127  65.1830672  18.4453549  57.2451298  65.6716532
  16.6364478  55.1228613  65.3477849  16.0414410  55.4033626  64.6524337
  16.3514174  55.6122514  66.1194590  15.7671968  69.0751540  54.1080481
  16.7002641  69.0097101  54.3113357  15.6795181  69.9107807  53.6495014
  18.3959985  68.3917410  51.0684429  18.3173616  68.0577274  51.9620187
  19.2169652  68.8839178  51.0675901  21.0938176  61.2579149  64.2760748
  21.0614496  60.3195150  64.4620431  21.7038800  61.3363186  63.5426572
  12.9321507  60.1275202  50.3187952  13.8780612  59.9981410  50.3876370
  12.5535752  59.3889864  50.7957380  21.2432664  58.0490193  64.3219031
  20.7271713  57.2648649  64.1348960  22.1272613  57.7208909  64.4865550
  18.9043391  51.7931208  60.2814843  18.7068213  51.4846297  61.1658175
  19.5143097  52.5192847  60.4112773  26.9114726  62.3195156  63.4166784
  27.6418114  62.0580444  63.9774488  26.3021671  61.5823878  63.4568852
  24.9930023  60.4603019  64.0141236  24.2663187  60.3258984  63.4057727
  24.5777310  60.7679847  64.8197954  12.8160199  64.1792948  71.7788609
  13.7363209  64.3571547  71.9728655  12.7809782  63.2348994  71.6268308
  11.1164424  58.0525179  50.2542837  10.2095879  57.7558291  50.3305550
  11.3940405  57.7554997  49.3877123   2.0342364  59.3731542  60.7041883
   1.7145149  58.5196850  60.4116257   1.4875793  59.5880120  61.4599851
   5.8122272  62.0893983  64.4211390   6.0308282  63.0211091  64.4399424
   6.2248046  61.7301958  65.2066194  12.7326490  52.5962068  56.4087078
  11.9227218  52.2509153  56.7842324  13.4210907  52.2869612  56.9974690
  14.6617038  51.6740115  58.0311375  15.2148077  52.0935569  58.6901398
  14.8987124  50.7475863  58.0734331  10.6850137  57.6627189  73.8114139
  10.5846864  58.6121546  73.7426230  10.4671679  57.3345428  72.9390209
   9.8863209  54.9112114  50.3954816  10.7482373  55.2367012  50.6550633
  10.0713553  54.1243610  49.8827882   1.9030624  62.9934454  62.6735005
   1.2094096  62.5788406  62.1604959   2.6503615  63.0354990  62.0768424
  18.0395845  53.7840640  57.5390039  17.4594514  54.4425444  57.1568091
  17.7731778  52.9617985  57.1277457  16.4899411  53.1845698  59.7411359
  16.9899190  53.2962233  58.9325678  17.1335019  52.8806751  60.3812168
  10.5481407  61.0924328  72.6279200  10.0648489  61.8924688  72.8343089
  10.6342346  61.1032273  71.6746644   3.8167367  62.9252707  60.5501020
   3.7938055  63.0240395  59.5982903   4.1268003  63.7717858  60.8718186
   6.4754745  64.9828862  64.6647634   7.4297998  64.9512805  64.5977566
   6.2767268  64.5219486  65.4797860   7.0654127  63.5529978  67.2318432
   7.8847016  64.0474057  67.2553269   7.3390935  62.6361947  67.2035999
  16.8220723  55.9440731  56.5946387  15.9346578  56.2290381  56.3766582
  17.2374712  55.7834494  55.7473664  20.1735259  55.9687252  60.3100727
  20.9495649  56.4583704  60.5825343  19.4483393  56.3945306  60.7672596
  22.6107818  56.6814871  61.3674667  23.2052309  56.4410607  60.6567975
  22.6834402  55.9622002  61.9948203   4.8304974  70.5248482  61.6817832
   4.6959441  69.7648883  61.1155830   4.4137036  71.2489382  61.2146621
  15.9663937  65.7085405  50.6894407  16.6699787  65.9135408  51.3052063
  15.2426585  66.2762167  50.9543491  16.7961747  61.4595267  56.8096677
  16.7396948  61.9163818  55.9704310  17.3490089  60.6985951  56.6319520
  20.6066553  57.2484999  57.6346797  20.3503487  56.8481634  58.4655005
  19.9819421  57.9628793  57.5096936  24.9178891  59.9881072  60.1418088
  24.3578449  60.0574261  60.9149650  24.3122394  59.8122056  59.4217585
   7.9874099  71.4217799  61.8936275   7.8706484  72.3663231  61.7914965
   7.1666546  71.1191360  62.2822074  17.8750634  66.1467935  52.7392867
  18.7096238  65.7149133  52.5570342  17.7134977  65.9749948  53.6669762
  17.5296526  62.6500048  54.1049207  17.4745330  62.4844319  53.1637651
  16.9042581  63.3576081  54.2611396   2.3189041  57.8868112  67.9310629
   2.9647905  57.3767066  68.4197854   2.1106192  58.6236794  68.5054054
  14.8442433  64.9548960  73.4302769  15.7133593  65.1289612  73.0689404
  14.3649185  65.7743377  73.3078499  10.8392652  52.1508157  53.6834525
  10.8271321  53.0949997  53.8402796  11.7316073  51.9678302  53.3893986
   9.0128614  72.0746061  65.1092203   9.9155860  72.1069671  65.4258698
   8.7865984  71.1446512  65.1238539  10.7682216  70.8277047  61.7702282
   9.8177847  70.8278909  61.6566654  11.0714702  70.0809782  61.2538316
  14.6544771  48.7450934  57.9380462  13.8877167  48.1909420  58.0837144
  15.0655476  48.8172802  58.7994613   6.6586532  55.0335729  72.0285643
   7.5217994  54.6772534  72.2388968   6.0851943  54.6949624  72.7161047
  23.3124615  76.6165014  62.7709569  22.9743127  76.5006079  61.8830104
  24.1814384  76.2156179  62.7510575  19.1711431  78.4700490  58.7606460
  18.6076296  78.3790427  57.9922748  19.0563826  77.6500395  59.2408952
  23.7944398  77.7699866  68.7295774  23.7833039  77.3752664  67.8576278
  23.9565038  77.0365938  69.3229546  16.7175863  79.9651682  61.5990680
  17.5097155  79.6242507  61.1836980  16.9572513  80.0746657  62.5192834
  24.7510990  82.1371458  54.0720925  24.0998970  82.7225538  53.6854938
  25.5455353  82.6677653  54.1315962  18.6766617  79.2260595  54.4708059
  19.4497493  78.6789582  54.3320935  19.0292016  80.0904844  54.6822520
  20.5151659  80.5536977  67.6774958  20.2241525  81.4582608  67.5621625
  21.1508644  80.5953505  68.3919028  21.4407866  77.9313826  64.2676318
  22.0371439  77.7069848  63.5533281  21.4982838  77.1898571  64.8701766
  21.0132895  75.3853261  52.1026509  21.2658415  74.8634783  51.3409972
  20.0757454  75.2219407  52.2053193  26.0576178  74.3889040  59.9101252
  26.8439267  73.9708463  59.5591669  26.3214882  75.2935132  60.0782901
  26.2286255  79.8261890  54.6089909  25.5932088  79.8996516  55.3210814
  25.8983661  80.4155489  53.9308988  20.7329183  77.2881367  54.3050884
  20.6165442  76.6126271  54.9731968  20.8431443  76.8013741  53.4883037
  23.0760724  76.7491514  58.0097573  22.7118932  76.2222135  58.7210495
  23.9327840  76.3589983  57.8364059  28.9810025  68.0385847  65.2728839
  28.6493350  68.9081258  65.0490054  28.3855638  67.7222131  65.9522870
  22.7166211  71.7781414  53.0058922  22.8840614  72.6461650  53.3729393
  22.5263380  71.9408696  52.0820211  18.9254026  76.6912190  60.7061456
  18.0004523  76.5588404  60.9139148  19.1738439  77.4706409  61.2031399
  28.8738688  72.7580933  62.3522189  27.9655566  72.6896342  62.0580950
  28.8226284  73.2352878  63.1804015  22.6955432  74.2339072  53.9905588
  22.5755057  74.6796122  54.8291069  22.0008021  74.5824389  53.4319127
  16.2862837  76.3345463  61.5405246  16.4155218  76.5879942  62.4544657
  15.6060288  76.9273171  61.2209901  20.4562324  87.0042713  57.6395720
  20.3786354  87.9550538  57.7184200  19.8523968  86.6588586  58.2970646
  22.9479554  74.1770579  70.2957087  22.1712888  74.7364499  70.2859951
  23.5870117  74.6627362  70.8171957  28.3940498  74.7060545  54.8185923
  29.3058355  74.9387931  54.6433620  27.8850145  75.2897589  54.2561001
  21.2025926  76.9856032  69.8575054  21.9440611  77.5241076  69.5809877
  20.4962912  77.6122321  70.0146605  23.0312336  74.0657779  65.8280772
  23.8773531  74.4897193  65.9715421  22.9710974  73.4091404  66.5219335
  26.1811781  71.7262148  67.4861946  25.9372713  72.4804208  66.9496221
  26.4571712  72.1047495  68.3209193  25.7376473  70.8818581  63.0675783
  24.8760952  71.1799834  63.3592521  25.7638908  71.0988980  62.1356816
  22.5538043  79.4260771  59.4749589  23.0176388  79.7048474  58.6854212
  22.2894841  78.5244216  59.2922680  19.4462124  78.9732253  62.4129352
  20.0163481  79.4019521  61.7746837  20.0370236  78.6914837  63.1113538
  21.4906929  75.5483924  56.2839154  22.1930972  76.0004967  56.7513081
  21.1587557  74.9067742  56.9119047  19.9387290  74.1395680  70.6590364
  19.3085951  74.8211961  70.8925760  19.8323378  74.0278762  69.7143502
  15.2332263  73.8067476  61.5856288  14.4431317  74.0625005  61.1096398
  15.7243510  74.6215814  61.6908328  17.1847008  74.1712056  58.5439764
  16.3878171  74.2830750  59.0623260  16.9572600  74.5098708  57.6780655
  23.0152676  80.6956759  66.4922279  23.0797108  81.1577166  67.3280451
  22.3063600  80.0654124  66.6204589  13.5169966  74.0597967  64.0171279
  13.7678004  74.9444977  64.2828855  14.0529514  73.8802568  63.2446370
  22.7300693  82.3624866  56.3601259  22.5946368  83.2076402  56.7886107
  23.2710506  82.5644144  55.5967193  19.2168033  68.4416446  73.0215615
  18.8234978  67.8882645  73.6963259  20.0334173  68.7527025  73.4122132
  16.1830091  79.8800304  56.9329185  16.6954611  80.6743555  57.0834749
  16.8352803  79.1826595  56.8662786  17.9924975  82.9966061  59.0151938
  18.1691604  83.9184025  58.8272922  18.7881809  82.6824480  59.4446317
  22.1335994  69.8574325  70.6135871  22.8745707  70.4581478  70.5340334
  22.3653917  69.1151963  70.0553914  17.2777332  75.0430692  68.8914101
  17.1630847  74.1415950  69.1921200  16.4221850  75.2894389  68.5398917
  24.3569170  82.9848433  70.4901602  23.9133024  82.1984811  70.1722506
  25.0186383  83.1727583  69.8245492  19.1156291  84.5144234  65.0162280
  19.6663716  84.3861298  64.2439274  18.2767767  84.8139123  64.6657173
  26.4550408  83.2651233  68.5183003  26.4368883  84.0860114  68.0263272
  27.3770328  83.1405308  68.7433144  22.9123462  80.7795362  69.3606511
  23.4451799  80.0183650  69.1305819  22.3837543  80.4869014  70.1030666
  26.0793157  65.8855428  64.8900153  25.7357426  66.7757070  64.8139263
  26.4472119  65.6957086  64.0269738  14.1479007  78.2088959  57.7088755
  14.9854229  78.6185967  57.4922463  14.3257275  77.2688401  57.6788949
  26.0443440  75.8764039  53.3972588  25.5290063  76.6468644  53.6360975
  25.7720748  75.2029175  54.0205649  23.6290551  70.7213740  58.4557826
  22.7732147  70.3320590  58.2763465  24.0417502  70.8005701  57.5957612
  25.1589697  68.2560083  62.8549386  24.6554493  68.2190218  62.0417191
  25.4520304  69.1652826  62.9146043  21.4032583  68.3398813  61.8615568
  22.2685580  68.1441622  61.5021457  21.4710092  68.1109165  62.7884925
  25.8329743  73.7491131  55.2232369  25.5279878  74.0637280  56.0742512
  26.7860185  73.8272551  55.2659702  24.2776175  79.9081355  56.8725323
  23.7497536  79.1734114  56.5598561  23.7763677  80.6856031  56.6265291
  19.0094902  70.5701021  59.2331935  19.5838654  70.3476202  58.5005128
  19.5965885  70.6389715  59.9860536  19.3364489  72.6005482  53.2527820
  18.5001802  72.9380168  53.5737095  19.1969259  72.4654462  52.3154957
  21.3117570  67.4442270  57.9607004  20.6581982  67.1291287  57.3363619
  21.2698044  66.8218010  58.6866827  22.4228775  77.7261565  49.8760296
  21.5155837  77.4950818  50.0751445  22.9199807  76.9299184  50.0634278
  25.3296854  86.4359072  52.7956982  24.6558552  86.7390769  53.4041940
  25.7162676  87.2388152  52.4462439  24.5455310  73.9324203  62.2854652
  23.6277872  74.1539150  62.1276340  24.9615454  74.0070514  61.4266359
  25.3290358  75.3315619  57.4157332  26.0762177  75.8437016  57.1064454
  25.5981948  75.0099672  58.2761726  23.6017008  77.8274160  54.3984286
  22.6928227  77.5433193  54.4956756  23.6312092  78.2473238  53.5387593
  27.7769195  72.3672735  59.3976121  27.0391952  71.8550121  59.7286364
  28.0295969  71.9273117  58.5859398  27.2769215  83.2757246  59.1025272
  27.5692189  83.8362303  58.3837638  27.7867835  83.5685807  59.8578431
  27.8780822  65.1448987  59.9917891  28.1839699  64.2846351  59.7043806
  28.6033427  65.7366607  59.7916884  14.1705179  75.5479674  58.3799488
  13.9729578  74.9549035  57.6550555  13.6151843  75.2431884  59.0975427
  22.1501902  75.4402780  60.4994082  22.2050512  74.4876617  60.4236558
  21.3393104  75.5962219  60.9835380  23.2993096  79.3682903  51.7372365
  22.8612526  78.6518762  51.2778002  24.0403537  79.5959018  51.1757456
  20.0894262  74.0579840  58.2584461  19.2762128  74.3574011  58.6649653
  20.5853256  73.6635529  58.9758943  22.2402840  84.0537597  60.1918725
  22.1979019  84.2798443  59.2627257  23.1565539  83.8200972  60.3404526
  19.5808337  71.6298196  63.8745695  20.2207716  71.4886955  63.1768659
  18.7485867  71.3432709  63.4984297  20.3568641  80.9300626  59.9880688
  21.1509239  80.4350946  59.7863263  19.6460333  80.4018489  59.6248393
  25.1763485  83.3118722  64.3393056  25.2300508  83.8809658  65.1070771
  24.3078267  83.4820607  63.9747093  16.6651404  75.0743708  56.0640441
  15.7348992  75.0128163  56.2810403  16.7608876  74.5519661  55.2677082
  16.5836953  71.5998521  58.6518682  16.8443771  72.5143854  58.5427843
  17.4054126  71.1322963  58.8015295  18.0561879  73.0136278  65.8217507
  18.7284932  72.8053640  65.1730156  17.2291665  72.8158364  65.3822739
  23.9587451  69.6398219  67.8383168  23.3115366  70.3388168  67.7447644
  24.7288466  70.0734363  68.2059416  24.1351585  77.4778984  65.8979987
  25.0643645  77.6290143  65.7248955  23.7142615  77.5663004  65.0428634
  22.9339917  81.5029648  63.6678525  22.7951003  81.1348432  64.5404463
  22.1454513  82.0177287  63.4962483  23.5288069  86.6038744  55.0104062
  23.7039824  86.1326788  55.8249684  22.8420857  87.2304511  55.2385322
  24.4845132  80.8811251  61.0567363  24.1494965  80.8412021  61.9525013
  23.9849078  80.2155967  60.5837773  18.4589376  76.2878881  66.5819944
  18.3209174  75.5559120  67.1831483  19.3694299  76.1987781  66.3004132
  27.4204324  78.2267285  51.3304422  26.8033494  77.5014113  51.2337475
  26.9520812  78.9876645  50.9871497  21.0871677  75.9998840  66.0703624
  21.7971295  75.3592032  66.0290242  21.0440985  76.2511735  66.9929804
  19.8000611  72.9864058  67.8899263  19.2637968  72.5354796  68.5420859
  19.2117319  73.1209967  67.1469727  18.0949154  89.7528107  61.7843922
  18.3345752  90.3846631  62.4622940  17.2518351  89.4016147  62.0709281
  19.2102870  72.4452709  50.4525727  18.3332336  72.3241510  50.0887973
  19.6860623  71.6538788  50.2004615  10.7305010  77.2329869  60.5467234
  11.4176050  76.9191599  59.9588249  10.5753138  78.1371234  60.2734485
  15.5339732  72.1220066  64.9752258  15.4497921  71.5145735  64.2402668
  14.7122438  72.6129084  64.9761754  22.6077016  85.5607230  64.1885426
  22.5347187  86.3662201  64.7004730  22.1654409  85.7599196  63.3633447
  22.3966796  84.7979000  57.6988247  21.6134317  85.3400680  57.7926472
  23.0959541  85.3152979  58.0982488  25.7063446  70.6073629  60.3422453
  26.2032145  69.8543592  60.0223523  24.9350427  70.6437946  59.7765662
  25.0675699  85.4594064  66.3443584  25.7803672  86.0941529  66.2719486
  24.5765728  85.5557930  65.5283586  22.2898414  72.7491012  60.0694137
  21.9196202  72.1962053  60.7575043  22.7857507  72.1449146  59.5169137
  20.1187613  83.2088507  67.1649155  20.8197072  83.8424990  67.3178549
  19.6482728  83.5503239  66.4044794  28.2442009  81.5506457  55.4497062
  28.5201853  81.4363052  56.3590936  27.3746508  81.1523942  55.4109235
  28.1482440  67.5743223  62.4901811  27.2345520  67.8047450  62.6584018
  28.5775542  67.6581667  63.3415844  24.8796073  85.7992808  59.0929876
  25.0618467  84.9814464  59.5557628  25.7029059  86.0160500  58.6554766
  25.2138238  84.7260993  56.3544924  25.7426005  84.2153448  55.7415086
  25.4766458  84.4103523  57.2190457  23.9676472  76.5052926  71.4767743
  23.2917109  76.4047055  72.1470118  24.7904106  76.3492139  71.9403740
  15.7155331  82.7424862  64.0980258  16.3008768  81.9968550  64.2308162
  15.5180170  83.0528819  64.9816922  18.5693986  85.7776110  59.1142700
  17.9004362  86.2622237  58.6306740  18.4306856  86.0245330  60.0286079
  10.3072986  75.3130462  62.8184701  10.3457085  74.7794053  63.6121819
   9.8013279  74.7865668  62.1995678  22.7099255  87.8119853  65.7125359
  23.2617563  87.9751475  66.4774444  23.0505448  88.4024291  65.0405383
  17.6863748  70.1595003  66.3147243  17.7505075  71.0209834  65.9024641
  17.6230868  69.5469005  65.5819602  17.1616021  72.2318136  69.9620278
  17.7888059  71.8495213  70.5757802  16.3043939  72.0132337  70.3275970
  13.9381563  74.0394565  55.8938632  14.2335004  73.1305243  55.8405686
  13.0369599  74.0182304  55.5719635  25.8467642  85.7601829  62.6989041
  25.7218782  84.9591569  62.1899986  26.5046733  86.2548022  62.2103011
  17.4675810  72.1150561  61.8766181  16.7462396  72.7286529  61.7373654
  18.2569066  72.6508326  61.7982827  27.9102551  83.5610849  64.3268591
  26.9632886  83.4416200  64.2546918  28.2585324  82.6733347  64.4094852
  20.2702124  69.4504988  68.1506833  20.7936526  69.6967284  68.9133142
  20.0514457  70.2825022  67.7309970  15.6669405  71.7208662  56.0177958
  15.3382111  70.8406041  55.8353063  16.0208776  71.6656331  56.9054347
  24.9148984  83.3563565  60.5272943  24.7673946  82.4280272  60.7080513
  25.7402477  83.3783656  60.0430018  18.7811228  72.0081632  56.3853435
  19.1207301  72.5367553  55.6632044  19.2283349  72.3462038  57.1612002
  28.5183106  84.1792124  61.6137816  29.4429653  83.9734985  61.4762267
  28.3498409  83.9308525  62.5227157  21.4754669  70.3918683  65.8356503
  21.1351489  69.5926496  66.2377183  20.7693675  70.6920394  65.2633336
  22.1271141  67.4767995  64.2883826  22.9497210  67.0028473  64.1662717
  22.3709204  68.2558479  64.7882513  20.7679375  70.5056254  54.5846728
  21.4887738  70.8837506  54.0810445  20.1444679  71.2245130  54.6881706
  24.9110498  71.2101403  55.5205060  25.1274113  72.0926041  55.2193888
  24.4304565  70.8187616  54.7910702  19.6509720  74.1687116  62.0975805
  19.5054300  74.4827419  62.9900086  19.1734923  74.7872016  61.5446704
  21.5106102  71.1589664  62.1456694  21.4967671  70.2630757  61.8088992
  22.2278531  71.1660328  62.7794981  23.3632233  71.5927004  64.1909822
  23.1050011  72.5144075  64.1894152  22.8317273  71.1957439  64.8810286
  28.3078422  84.6977791  56.9699907  28.4815299  84.1324214  56.2173760
  28.8007313  85.4978686  56.7879397  14.1255382  76.7092460  65.0363466
  13.5808850  77.4852268  65.1683740  15.0034732  77.0563265  64.8782588
  20.9142998  70.0404044  57.4144265  21.0358910  69.1120690  57.6135152
  20.6245041  70.0542730  56.5022580  23.7834189  67.7258955  60.5510984
  23.8055886  67.7898288  59.5962964  24.2002248  66.8863463  60.7451491
  29.2953594  84.0144556  54.0696806  29.9904499  84.6351248  54.2884120
  29.6376745  83.1639907  54.3449183  14.9121404  75.8362357  67.9293623
  14.1703140  75.9844992  68.5158253  14.5914148  76.0970622  67.0660372
  31.1945017  81.4644261  55.5984136  31.7196342  81.8031534  54.8733456
  31.1067370  80.5291276  55.4147271  22.8565066  85.3778335  67.7274013
  23.1652193  85.1327482  68.5996713  23.6540548  85.5824973  67.2392883
  22.8785678  87.5316244  59.9579390  22.4390669  87.0392623  60.6512246
  23.6293795  86.9889212  59.7171465  15.3578017  83.7227785  59.9604018
  16.1836037  83.4231557  59.5802661  15.0072069  82.9535408  60.4093806
  20.3259550  83.0754253  62.0301691  19.7039560  82.4124958  61.7303919
  20.9964417  83.1015385  61.3475339  13.5586622  81.6414112  60.9192951
  12.7218531  81.2136286  60.7376952  13.5310268  81.8346555  61.8563742
  20.3984078  71.5536041  71.6234197  20.4472233  72.4298164  71.2411967
  20.9406592  71.0113435  71.0505840  19.8873057  81.6258177  55.5060152
  20.0361178  82.3093641  54.8526824  20.6939501  81.6063267  56.0209607
  22.6283366  72.3067414  68.3780556  21.7586676  72.6000980  68.1063144
  22.8642847  72.8907859  69.0987819  17.6425690  77.6523354  56.5121221
  17.3971732  76.7485684  56.7101431  17.8121605  77.6540505  55.5700699
  25.3322400  68.5247031  65.8945976  25.8504344  69.2608058  65.5692465
  24.9777533  68.8311024  66.7292735  16.9121338  73.3851712  54.0107382
  16.2190583  73.4596067  53.3547418  16.6673090  72.6212056  54.5328899
  25.5834994  64.9447313  61.4146873  25.8636748  64.2770502  62.0407299
  26.3685601  65.1376409  60.9021537  23.3868463  84.1206307  52.9771899
  22.8142430  84.7396494  52.5242371  23.9601256  84.6705669  53.5111821
  27.4758232  70.4520531  65.3477849  26.8808164  70.7325543  64.6524337
  27.1907929  70.9414431  66.1194590  26.6065723  84.4043457  54.1080481
  27.5396396  84.3389019  54.3113357  26.5188935  85.2399724  53.6495014
  29.2353739  83.7209328  51.0684429  29.1567371  83.3869191  51.9620187
  30.0563406  84.2131096  51.0675901  23.7715261  75.4567120  50.3187952
  24.7174366  75.3273328  50.3876370  23.3929506  74.7181782  50.7957380
  29.7437146  67.1223126  60.2814843  29.5461967  66.8138214  61.1658175
  30.3536851  67.8484765  60.4112773  23.6553954  79.5084866  71.7788609
  24.5756963  79.6863465  71.9728655  23.6203537  78.5640911  71.6268308
  21.9558178  73.3817096  50.2542837  21.0489634  73.0850209  50.3305550
  22.2334159  73.0846914  49.3877123  12.8736119  74.7023460  60.7041883
  12.5538903  73.8488768  60.4116257  12.3269547  74.9172038  61.4599851
  16.6516026  77.4185901  64.4211390  16.8702036  78.3503009  64.4399424
  17.0641800  77.0593875  65.2066194  23.5720244  67.9253986  56.4087078
  22.7620973  67.5801071  56.7842324  24.2604661  67.6161530  56.9974690
  25.5010792  67.0032033  58.0311375  26.0541831  67.4227486  58.6901398
  25.7380879  66.0767781  58.0734331  21.5243892  72.9919107  73.8114139
  21.4240619  73.9413464  73.7426230  21.3065434  72.6637345  72.9390209
  20.7256963  70.2404032  50.3954816  21.5876127  70.5658930  50.6550633
  20.9107307  69.4535528  49.8827882  12.7424379  78.3226371  62.6735005
  12.0487850  77.9080324  62.1604959  13.4897370  78.3646908  62.0768424
  28.8789600  69.1132558  57.5390039  28.2988269  69.7717362  57.1568091
  28.6125532  68.2909903  57.1277457  27.3293166  68.5137616  59.7411359
  27.8292944  68.6254150  58.9325678  27.9728774  68.2098669  60.3812168
  21.3875162  76.4216245  72.6279200  20.9042243  77.2216606  72.8343089
  21.4736101  76.4324190  71.6746644  14.6561121  78.2544625  60.5501020
  14.6331809  78.3532312  59.5982903  14.9661758  79.1009776  60.8718186
  17.3148499  80.3120780  64.6647634  18.2691753  80.2804722  64.5977566
  17.1161023  79.8511404  65.4797860  17.9047881  78.8821896  67.2318432
  18.7240770  79.3765975  67.2553269  18.1784689  77.9653864  67.2035999
  27.6614478  71.2732648  56.5946387  26.7740333  71.5582299  56.3766582
  28.0768467  71.1126412  55.7473664  31.0129014  71.2979169  60.3100727
  31.7889404  71.7875622  60.5825343  30.2877148  71.7237224  60.7672596
  15.6698728  85.8540400  61.6817832  15.5353196  85.0940800  61.1155830
  15.2530790  86.5781299  61.2146621  26.8057691  81.0377323  50.6894407
  27.5093541  81.2427326  51.3052063  26.0820340  81.6054085  50.9543491
  18.8267854  86.7509717  61.8936275  18.7100238  87.6955149  61.7914965
  18.0060300  86.4483278  62.2822074  28.7144388  81.4759852  52.7392867
  29.5489992  81.0441051  52.5570342  28.5528731  81.3041866  53.6669762
  28.3690281  77.9791966  54.1049207  28.3139084  77.8136237  53.1637651
  27.7436336  78.6867999  54.2611396  13.1582796  73.2160030  67.9310629
  13.8041659  72.7058984  68.4197854  12.9499947  73.9528712  68.5054054
  25.6836188  80.2840877  73.4302769  26.5527347  80.4581530  73.0689404
  25.2042939  81.1035294  73.3078499  21.6786406  67.4800075  53.6834525
  21.6665076  68.4241915  53.8402796  22.5709828  67.2970220  53.3893986
  19.8522368  87.4037979  65.1092203  20.7549615  87.4361589  65.4258698
  19.6259738  86.4738429  65.1238539  21.6075970  86.1568965  61.7702282
  20.6571601  86.1570827  61.6566654  21.9108456  85.4101700  61.2538316
  25.4938526  64.0742851  57.9380462  24.7270921  63.5201338  58.0837144
  25.9049231  64.1464720  58.7994613  17.4980287  70.3627647  72.0285643
  18.3611748  70.0064452  72.2388968  16.9245697  70.0241542  72.7161047
  37.3428664  91.9929503  62.8348044  37.9807074  91.8736251  62.1311384
  37.2249506  92.9410347  62.8935996  34.1518370  91.9456932  62.7709569
  33.8136881  91.8297996  61.8830104  35.0208138  91.5448097  62.7510575
  30.0105186  93.7992408  58.7606460  29.4470051  93.7082345  57.9922748
  29.8957581  92.9792312  59.2408952  34.6338153  93.0991783  68.7295774
  34.6226794  92.7044582  67.8576278  34.7958792  92.3657856  69.3229546
  27.5569617  95.2943600  61.5990680  28.3490909  94.9534424  61.1836980
  27.7966268  95.4038575  62.5192834  35.5904744  97.4663376  54.0720925
  34.9392724  98.0517456  53.6854938  36.3849107  97.9969571  54.1315962
  29.5160371  94.5552513  54.4708059  30.2891247  94.0081500  54.3320935
  29.8685770  95.4196762  54.6822520  31.3545414  95.8828895  67.6774958
  31.0635280  96.7874526  67.5621625  31.9902398  95.9245423  68.3919028
  32.2801621  93.2605744  64.2676318  32.8765193  93.0361766  63.5533281
  32.3376592  92.5190489  64.8701766  31.8526649  90.7145179  52.1026509
  32.1052170  90.1926700  51.3409972  30.9151208  90.5511324  52.2053193
  36.8969932  89.7180957  59.9101252  37.6833021  89.3000380  59.5591669
  37.1608636  90.6227049  60.0782901  37.0680009  95.1553808  54.6089909
  36.4325842  95.2288434  55.3210814  36.7377416  95.7447406  53.9308988
  42.2978359  89.6556190  60.8134231  43.0303531  89.0855407  61.0472060
  41.5417715  89.2677791  61.2540736  31.5722938  92.6173285  54.3050884
  31.4559196  91.9418188  54.9731968  31.6825198  92.1305659  53.4883037
  33.9154479  92.0783432  58.0097573  33.5512686  91.5514053  58.7210495
  34.7721595  91.6881901  57.8364059  33.5559966  87.1073332  53.0058922
  33.7234368  87.9753568  53.3729393  33.3657135  87.2700613  52.0820211
  36.3135299  95.5690311  64.6724752  36.0136022  96.4715349  64.5640559
  35.9686359  95.3022494  65.5245905  29.7647781  92.0204107  60.7061456
  28.8398277  91.8880322  60.9139148  30.0132194  92.7998327  61.2031399
  39.7132443  88.0872851  62.3522189  38.8049320  88.0188259  62.0580950
  39.6620039  88.5644796  63.1804015  33.5349187  89.5630989  53.9905588
  33.4148812  90.0088040  54.8291069  32.8401775  89.9116307  53.4319127
  27.1256592  91.6637381  61.5405246  27.2548973  91.9171860  62.4544657
  26.4454043  92.2565089  61.2209901  31.2956079 102.3334631  57.6395720
  31.2180109 103.2842456  57.7184200  30.6917722 101.9880503  58.2970646
  33.7873309  89.5062496  70.2957087  33.0106643  90.0656417  70.2859951
  34.4263872  89.9919279  70.8171957  41.5794089  86.2889289  64.1300063
  40.9368469  86.5821822  63.4839858  41.0749018  86.1742210  64.9353260
  39.2334253  90.0352462  54.8185923  40.1452109  90.2679849  54.6433620
  38.7243900  90.6189507  54.2561001  32.0419681  92.3147950  69.8575054
  32.7834365  92.8532994  69.5809877  31.3356666  92.9414238  70.0146605
  37.5175021  94.4577090  68.4547215  37.9258377  94.0159501  67.7101847
  36.7952282  93.8829718  68.7081408  33.8706091  89.3949697  65.8280772
  34.7167286  89.8189111  65.9715421  33.8104728  88.7383321  66.5219335
  37.8403835  95.0178281  62.2099504  37.2112698  95.1823995  61.5075572
  37.4529497  95.4319890  62.9810468  41.7193067  95.9532719  59.5643868
  41.0344105  96.3331620  59.0140901  41.8036916  96.5628045  60.2975815
  37.0205536  87.0554065  67.4861946  36.7766468  87.8096126  66.9496221
  37.2965466  87.4339413  68.3209193  38.9743999  93.5992678  66.1639211
  39.1860894  94.2424438  65.4873592  38.9273747  92.7654994  65.6961141
  36.5770228  86.2110498  63.0675783  35.7154707  86.5091752  63.3592521
  36.6032662  86.4280897  62.1356816  33.3931797  94.7552689  59.4749589
  33.8570143  95.0340392  58.6854212  33.1288595  93.8536133  59.2922680
  30.2855878  94.3024170  62.4129352  30.8557235  94.7311439  61.7746837
  30.8763990  94.0206755  63.1113538  32.3300683  90.8775841  56.2839154
  33.0324726  91.3296885  56.7513081  31.9981312  90.2359660  56.9119047
  30.7781045  89.4687598  70.6590364  30.1479705  90.1503879  70.8925760
  30.6717133  89.3570680  69.7143502  26.0726017  89.1359394  61.5856288
  25.2825071  89.3916922  61.1096398  26.5637264  89.9507732  61.6908328
  40.0889827  96.4764633  64.3361569  40.9107270  96.0744820  64.0544250
  40.0852230  96.3732867  65.2877684  28.0240762  89.5003973  58.5439764
  27.2271926  89.6122667  59.0623260  27.7966355  89.8390625  57.6780655
  33.8546430  96.0248676  66.4922279  33.9190863  96.4869084  67.3280451
  33.1457354  95.3946041  66.6204589  24.3563720  89.3889884  64.0171279
  24.6071759  90.2736894  64.2828855  24.8923268  89.2094486  63.2446370
  48.1795820  92.8203382  60.6846540  47.4259528  92.2510780  60.5290545
  48.3143361  92.7866046  61.6317175  33.5694448  97.6916784  56.3601259
  33.4340123  98.5368320  56.7886107  34.1104260  97.8936062  55.5967193
  27.0223845  95.2092222  56.9329185  27.5348366  96.0035472  57.0834749
  27.6746558  94.5118512  56.8662786  28.8318730  98.3257978  59.0151938
  29.0085358  99.2475943  58.8272922  29.6275563  98.0116397  59.4446317
  32.9729748  85.1866243  70.6135871  33.7139462  85.7873396  70.5340334
  33.2047671  84.4443881  70.0553914  28.1171086  90.3722610  68.8914101
  28.0024602  89.4707867  69.1921200  27.2615604  90.6186307  68.5398917
  35.1962924  98.3140350  70.4901602  34.7526778  97.5276729  70.1722506
  35.8580138  98.5019501  69.8245492  29.9550045  99.8436152  65.0162280
  30.5057470  99.7153215  64.2439274  29.1161521 100.1431041  64.6657173
  37.2944162  98.5943150  68.5183003  37.2762638  99.4152031  68.0263272
  38.2164082  98.4697226  68.7433144  33.7517216  96.1087280  69.3606511
  34.2845553  95.3475568  69.1305819  33.2231297  95.8160932  70.1030666
  24.9872762  93.5380876  57.7088755  25.8247984  93.9477885  57.4922463
  25.1651030  92.5980318  57.6788949  36.8837194  91.2055957  53.3972588
  36.3683817  91.9760562  53.6360975  36.6114503  90.5321093  54.0205649
  34.4684305  86.0505658  58.4557826  33.6125901  85.6612508  58.2763465
  34.8811257  86.1297618  57.5957612  32.2426338  83.6690731  61.8615568
  33.1079334  83.4733539  61.5021457  32.3103847  83.4401082  62.7884925
  41.8571468  93.9588312  55.3325761  41.0800911  93.6199471  54.8880924
  42.5362949  93.9640935  54.6580727  36.6723497  89.0783049  55.2232369
  36.3673633  89.3929198  56.0742512  37.6253939  89.1564469  55.2659702
  35.1169929  95.2373272  56.8725323  34.5891291  94.5026032  56.5598561
  34.6157432  96.0147949  56.6265291  40.0962775  93.4322293  61.9892369
  39.4386450  94.1221554  62.0772498  40.9003174  93.8218725  62.3326356
  29.8488657  85.8992939  59.2331935  30.4232409  85.6768120  58.5005128
  30.4359639  85.9681633  59.9860536  38.9068234  91.7866665  60.0396311
  39.4200116  92.4196657  60.5418021  39.5569458  91.1867861  59.6739671
  30.1758244  87.9297400  53.2527820  29.3395556  88.2672086  53.5737095
  30.0363013  87.7946379  52.3154957  32.1511324  82.7734187  57.9607004
  31.4975737  82.4583205  57.3363619  32.1091799  82.1509928  58.6866827
  33.2622529  93.0553483  49.8760296  32.3549591  92.8242736  50.0751445
  33.7593561  92.2591102  50.0634278  36.1690608 101.7650990  52.7956982
  35.4952307 102.0682687  53.4041940  36.5556430 102.5680070  52.4462439
  35.3849065  89.2616121  62.2854652  34.4671626  89.4831068  62.1276340
  35.8009208  89.3362431  61.4266359  36.1684113  90.6607537  57.4157332
  36.9155931  91.1728934  57.1064454  36.4375702  90.3391589  58.2761726
  34.4410763  93.1566077  54.3984286  33.5321982  92.8725110  54.4956756
  34.4705846  93.5765156  53.5387593  39.6730030  96.7672667  58.1675454
  39.2192357  95.9263577  58.2240644  39.0423997  97.4034065  58.5050234
  38.6162950  87.6964653  59.3976121  37.8785706  87.1842039  59.7286364
  38.8689723  87.2565035  58.5859398  38.1162969  98.6049164  59.1025272
  38.4085944  99.1654221  58.3837638  38.6261590  98.8977725  59.8578431
  38.7174577  80.4740905  59.9917891  39.0233454  79.6138268  59.7043806
  39.4427182  81.0658525  59.7916884  25.0098933  90.8771592  58.3799488
  24.8123333  90.2840952  57.6550555  24.4545597  90.5723802  59.0975427
  32.9895657  90.7694698  60.4994082  33.0444267  89.8168534  60.4236558
  32.1786859  90.9254137  60.9835380  34.1386850  94.6974821  51.7372365
  33.7006280  93.9810680  51.2778002  34.8797291  94.9250936  51.1757456
  30.9288017  89.3871758  58.2584461  30.1155882  89.6865928  58.6649653
  31.4247011  88.9927447  58.9758943  33.0796595  99.3829515  60.1918725
  33.0372773  99.6090361  59.2627257  33.9959293  99.1492889  60.3404526
  36.5262228  89.8513582  67.0899354  36.8811616  90.0785055  67.9493820
  37.1734360  90.1831959  66.4676610  42.2559965  92.9732018  57.7948683
  42.1177864  93.1633614  56.8669873  41.8996184  93.7351401  58.2516735
  30.4202091  86.9590113  63.8745695  31.0601471  86.8178872  63.1768659
  29.5879622  86.6724627  63.4984297  42.2829345  95.0408545  62.8059955
  42.7165852  94.9483834  63.6543009  42.9960926  95.0166046  62.1679971
  31.1962395  96.2592544  59.9880688  31.9902994  95.7642864  59.7863263
  30.4854088  95.7310407  59.6248393  36.0157240  98.6410639  64.3393056
  36.0694262  99.2101576  65.1070771  35.1472021  98.8112524  63.9747093
  27.5045159  90.4035625  56.0640441  26.5742747  90.3420081  56.2810403
  27.6002631  89.8811578  55.2677082  27.4230708  86.9290438  58.6518682
  27.6837525  87.8435772  58.5427843  28.2447880  86.4614881  58.8015295
  28.8955633  88.3428195  65.8217507  29.5678687  88.1345558  65.1730156
  28.0685420  88.1450281  65.3822739  43.1444894  95.0832246  65.3392840
  43.3380785  95.9878056  65.5852115  43.0445513  94.6239665  66.1731425
  34.7981205  84.9690136  67.8383168  34.1509120  85.6680086  67.7447644
  35.5682221  85.4026280  68.2059416  38.2060003  95.2338989  70.9133721
  38.0545510  95.0049540  69.9963805  38.1964683  96.1909590  70.9265066
  34.9745340  92.8070901  65.8979987  35.9037400  92.9582061  65.7248955
  34.5536370  92.8954922  65.0428634  33.7733671  96.8321566  63.6678525
  33.6344757  96.4640350  64.5404463  32.9848268  97.3469205  63.4962483
  34.3681823 101.9330662  55.0104062  34.5433579 101.4618705  55.8249684
  33.6814611 102.5596428  55.2385322  35.3238886  96.2103168  61.0567363
  34.9888719  96.1703938  61.9525013  34.8242832  95.5447884  60.5837773
  29.2983130  91.6170798  66.5819944  29.1602928  90.8851037  67.1831483
  30.2088054  91.5279699  66.3004132  38.2598078  93.5559203  51.3304422
  37.6427249  92.8306031  51.2337475  37.7914567  94.3168563  50.9871497
  31.9265431  91.3290758  66.0703624  32.6365050  90.6883950  66.0290242
  31.8834739  91.5803653  66.9929804  39.9152210  98.2658111  68.9910203
  39.8564756  97.5817331  68.3240786  40.3171728  99.0077101  68.5390829
  30.6394365  88.3155976  67.8899263  30.1031722  87.8646714  68.5420859
  30.0511074  88.4501884  67.1469727  28.9342909 105.0820025  61.7843922
  29.1739507 105.7138549  62.4622940  28.0912105 104.7308065  62.0709281
  30.0496624  87.7744627  50.4525727  29.1726090  87.6533428  50.0887973
  30.5254377  86.9830705  50.2004615  39.9169617  96.2297695  67.2224182
  39.0296396  95.8923617  67.3450581  40.4868168  95.4980726  67.4592948
  21.5698764  92.5621787  60.5467234  22.2569804  92.2483517  59.9588249
  21.4146893  93.4663151  60.2734485  26.3733486  87.4511983  64.9752258
  26.2891675  86.8437653  64.2402668  25.5516193  87.9421002  64.9761754
  33.4470770 100.8899147  64.1885426  33.3740942 101.6954119  64.7004730
  33.0048164 101.0891113  63.3633447  33.2360550 100.1270917  57.6988247
  32.4528072 100.6692598  57.7926472  33.9353295 100.6444897  58.0982488
  36.5457200  85.9365547  60.3422453  37.0425900  85.1835509  60.0223523
  35.7744182  85.9729864  59.7765662  44.3986958  91.6405912  61.9840744
  44.3876834  92.5230628  61.6134677  43.5304337  91.2877463  61.7895281
  35.9069454 100.7885981  66.3443584  36.6197426 101.4233446  66.2719486
  35.4159483 100.8849847  65.5283586  37.6286981  94.6937234  57.9160876
  36.6943260  94.8138697  57.7465580  37.8063649  93.7909701  57.6520886
  33.1292169  88.0782930  60.0694137  32.7589956  87.5253970  60.7575043
  33.6251261  87.4741063  59.5169137  41.0159532  90.5354553  58.4510910
  41.4819984  91.3682545  58.3771213  41.4667033  90.0699535  59.1556169
  30.9581367  98.5380425  67.1649155  31.6590827  99.1716908  67.3178549
  30.4876482  98.8795156  66.4044794  39.0835763  96.8798375  55.4497062
  39.3595607  96.7654969  56.3590936  38.2140262  96.4815860  55.4109235
  38.7582653  91.0925032  64.9901706  38.1054104  91.3400940  64.3354158
  39.1363033  90.2789171  64.6564183  35.7189827 101.1284726  59.0929876
  35.9012222 100.3106381  59.5557628  36.5422813 101.3452418  58.6554766
  36.0531993 100.0552911  56.3544924  36.5819759  99.5445365  55.7415086
  36.3160212  99.7395441  57.2190457  34.8070226  91.8344843  71.4767743
  34.1310863  91.7338973  72.1470118  35.6297860  91.6784057  71.9403740
  26.5549086  98.0716780  64.0980258  27.1402522  97.3260468  64.2308162
  26.3573924  98.3820737  64.9816922  29.4087741 101.1068027  59.1142700
  28.7398116 101.5914155  58.6306740  29.2700610 101.3537248  60.0286079
  21.1466740  90.6422380  62.8184701  21.1850840  90.1085971  63.6121819
  20.6407033  90.1157586  62.1995678  33.5493009 103.1411771  65.7125359
  34.1011317 103.3043392  66.4774444  33.8899203 103.7316209  65.0405383
  28.5257503  85.4886921  66.3147243  28.5898829  86.3501752  65.9024641
  28.4624623  84.8760922  65.5819602  28.0009775  87.5610053  69.9620278
  28.6281814  87.1787130  70.5757802  27.1437694  87.3424255  70.3275970
  38.4003884  97.9673028  71.5674013  38.9443788  98.5802987  71.0728968
  37.8190729  98.5252607  72.0841026  24.7775318  89.3686482  55.8938632
  25.0728759  88.4597161  55.8405686  23.8763354  89.3474222  55.5719635
  36.6861397 101.0893746  62.6989041  36.5612536 100.2883486  62.1899986
  37.3440488 101.5839940  62.2103011  28.3069565  87.4442479  61.8766181
  27.5856151  88.0578447  61.7373654  29.0962821  87.9800244  61.7982827
  38.7496305  98.8902766  64.3268591  37.8026641  98.7708118  64.2546918
  39.0979078  98.0025264  64.4094852  31.1095878  84.7796905  68.1506833
  31.6330280  85.0259202  68.9133142  30.8908212  85.6116940  67.7309970
  26.5063159  87.0500580  56.0177958  26.1775866  86.1697959  55.8353063
  26.8602530  86.9948249  56.9054347  35.7542738  98.6855483  60.5272943
  35.6067701  97.7572190  60.7080513  36.5796232  98.7075573  60.0430018
  29.6204983  87.3373550  56.3853435  29.9601055  87.8659471  55.6632044
  30.0677103  87.6753956  57.1612002  39.3576860  99.5084041  61.6137816
  40.2823408  99.3026903  61.4762267  39.1892164  99.2600443  62.5227157
  32.3148423  85.7210600  65.8356503  31.9745244  84.9218414  66.2377183
  31.6087430  86.0212311  65.2633336  31.6073130  85.8348171  54.5846728
  32.3281492  86.2129424  54.0810445  30.9838434  86.5537048  54.6881706
  35.7504253  86.5393320  55.5205060  35.9667867  87.4217958  55.2193888
  35.2698320  86.1479534  54.7910702  30.4903474  89.4979034  62.0975805
  30.3448055  89.8119337  62.9900086  30.0128678  90.1163934  61.5446704
  32.3499857  86.4881582  62.1456694  32.3361426  85.5922675  61.8088992
  33.0672285  86.4952245  62.7794981  34.2025988  86.9218922  64.1909822
  33.9443765  87.8435992  64.1894152  33.6711028  86.5249356  64.8810286
  39.1472176 100.0269709  56.9699907  39.3209054  99.4616131  56.2173760
  39.6401068 100.8270604  56.7879397  24.9649136  92.0384378  65.0363466
  24.4202604  92.8144186  65.1683740  25.8428486  92.3855182  64.8782588
  31.7536753  85.3695962  57.4144265  31.8752664  84.4412608  57.6135152
  31.4638795  85.3834648  56.5022580  45.0011568  92.7906132  58.5890207
  45.4442714  92.0413457  58.1909330  44.1238078  92.7816268  58.2063939
  40.1347349  99.3436473  54.0696806  40.8298253  99.9643166  54.2884120
  40.4770499  98.4931824  54.3449183  25.7515158  91.1654274  67.9293623
  25.0096894  91.3136910  68.5158253  25.4307902  91.4262540  67.0660372
  42.0338772  96.7936179  55.5984136  42.5590096  97.1323452  54.8733456
  41.9461125  95.8583194  55.4147271  33.6958821 100.7070252  67.7274013
  34.0045947 100.4619399  68.5996713  34.4934303 100.9116891  67.2392883
  33.7179433 102.8608162  59.9579390  33.2784423 102.3684541  60.6512246
  34.4687550 102.3181130  59.7171465  26.1971772  99.0519703  59.9604018
  27.0229792  98.7523475  59.5802661  25.8465824  98.2827325  60.4093806
  31.1653305  98.4046171  62.0301691  30.5433314  97.7416876  61.7303919
  31.8358172  98.4307303  61.3475339  24.3980377  96.9706029  60.9192951
  23.5612285  96.5428204  60.7376952  24.3704022  97.1638473  61.8563742
  31.2377832  86.8827959  71.6234197  31.2865988  87.7590082  71.2411967
  31.7800347  86.3405352  71.0505840  41.7232678  97.4269082  70.9035334
  40.9328222  97.4093221  70.3639834  41.4866033  97.9657376  71.6584371
  41.8430553  94.2761549  68.2168063  41.8928558  94.1111556  69.1583586
  41.7344476  93.4088808  67.8265944  30.7266812  96.9550094  55.5060152
  30.8754932  97.6385559  54.8526824  31.5333255  96.9355185  56.0209607
  39.1334315  90.2592477  69.5327370  40.0344178  90.1198942  69.2411367
  39.2082290  90.4246932  70.4725547  33.4677121  87.6359332  68.3780556
  32.5980430  87.9292898  68.1063144  33.7036601  88.2199777  69.0987819
  43.3448750  96.6958490  68.4610084  43.0533558  97.0588471  69.2973545
  42.7320881  95.9825499  68.2823416  44.5444432  94.2611370  60.9812655
  45.3791324  94.7001174  61.1450215  44.6803561  93.7850023  60.1620900
  41.5935938  91.8191105  66.9290142  42.0690060  92.0118751  66.1208994
  40.6701504  91.8750291  66.6833526  28.4819445  92.9815272  56.5121221
  28.2365487  92.0777602  56.7101431  28.6515359  92.9832423  55.5700699
  27.7515092  88.7143630  54.0107382  27.0584337  88.7887985  53.3547418
  27.5066844  87.9503973  54.5328899  34.2262217  99.4498225  52.9771899
  33.6536184 100.0688412  52.5242371  34.7995011  99.9997587  53.5111821
  40.2937607  88.6956865  65.1618448  41.2455030  88.7954963  65.1830672
  40.1241058  87.9035134  65.6716532  38.3151987  85.7812448  65.3477849
  37.7201919  86.0617461  64.6524337  38.0301683  86.2706349  66.1194590
  37.4459477  99.7335375  54.1080481  38.3790150  99.6680937  54.3113357
  37.3582690 100.5691642  53.6495014  40.0747494  99.0501245  51.0684429
  39.9961125  98.7161109  51.9620187  40.8957161  99.5423013  51.0675901
  42.7725685  91.9162985  64.2760748  42.7402005  90.9778985  64.4620431
  43.3826309  91.9947021  63.5426572  34.6109016  90.7859038  50.3187952
  35.5568121  90.6565246  50.3876370  34.2323261  90.0473700  50.7957380
  42.9220173  88.7074028  64.3219031  42.4059222  87.9232485  64.1348960
  43.8060122  88.3792745  64.4865550  40.5830900  82.4515044  60.2814843
  40.3855721  82.1430132  61.1658175  41.1930606  83.1776683  60.4112773
  48.5902235  92.9778992  63.4166784  49.3205623  92.7164280  63.9774488
  47.9809180  92.2407713  63.4568852  46.6717532  91.1186854  64.0141236
  45.9450696  90.9842819  63.4057727  46.2564819  91.4263683  64.8197954
  34.4947708  94.8376784  71.7788609  35.4150718  95.0155383  71.9728655
  34.4597291  93.8932829  71.6268308  32.7951933  88.7109014  50.2542837
  31.8883388  88.4142127  50.3305550  33.0727914  88.4138832  49.3877123
  23.7129873  90.0315377  60.7041883  23.3932658  89.1780686  60.4116257
  23.1663302  90.2463956  61.4599851  27.4909781  92.7477818  64.4211390
  27.7095791  93.6794926  64.4399424  27.9035555  92.3885793  65.2066194
  34.4113999  83.2545904  56.4087078  33.6014727  82.9092989  56.7842324
  35.0998416  82.9453448  56.9974690  36.3404547  82.3323951  58.0311375
  36.8935586  82.7519404  58.6901398  36.5774633  81.4059699  58.0734331
  32.3637646  88.3211024  73.8114139  32.2634373  89.2705381  73.7426230
  32.1459188  87.9929263  72.9390209  31.5650718  85.5695949  50.3954816
  32.4269882  85.8950848  50.6550633  31.7501062  84.7827445  49.8827882
  23.5818133  93.6518289  62.6735005  22.8881605  93.2372242  62.1604959
  24.3291124  93.6938825  62.0768424  39.7183354  84.4424476  57.5390039
  39.1382023  85.1009280  57.1568091  39.4519287  83.6201820  57.1277457
  38.1686920  83.8429533  59.7411359  38.6686699  83.9546068  58.9325678
  38.8122528  83.5390586  60.3812168  32.2268916  91.7508163  72.6279200
  31.7435998  92.5508523  72.8343089  32.3129855  91.7616108  71.6746644
  25.4954876  93.5836543  60.5501020  25.4725564  93.6824230  59.5982903
  25.8055512  94.4301694  60.8718186  28.1542254  95.6412698  64.6647634
  29.1085507  95.6096640  64.5977566  27.9554777  95.1803322  65.4797860
  28.7441636  94.2113814  67.2318432  29.5634525  94.7057892  67.2553269
  29.0178444  93.2945782  67.2035999  38.5008232  86.6024566  56.5946387
  37.6134087  86.8874217  56.3766582  38.9162221  86.4418330  55.7473664
  41.8522768  86.6271087  60.3100727  42.6283158  87.1167540  60.5825343
  41.1270902  87.0529141  60.7672596  44.2895327  87.3398706  61.3674667
  44.8839818  87.0994442  60.6567975  44.3621911  86.6205837  61.9948203
  26.5092483 101.1832317  61.6817832  26.3746950 100.4232718  61.1155830
  26.0924545 101.9073217  61.2146621  37.6451446  96.3669241  50.6894407
  38.3487296  96.5719243  51.3052063  36.9214094  96.9346003  50.9543491
  38.4749256  92.1179102  56.8096677  38.4184457  92.5747653  55.9704310
  39.0277598  91.3569787  56.6319520  42.2854062  87.9068834  57.6346797
  42.0290996  87.5065470  58.4655005  41.6606930  88.6212628  57.5096936
  46.5966400  90.6464907  60.1418088  46.0365958  90.7158096  60.9149650
  45.9909903  90.4705892  59.4217585  29.6661608 102.0801634  61.8936275
  29.5493993 103.0247067  61.7914965  28.8454055 101.7775196  62.2822074
  39.5538143  96.8051770  52.7392867  40.3883747  96.3732968  52.5570342
  39.3922486  96.6333784  53.6669762  39.2084035  93.3083883  54.1049207
  39.1532839  93.1428155  53.1637651  38.5830090  94.0159916  54.2611396
  23.9976550  88.5451948  67.9310629  24.6435414  88.0350902  68.4197854
  23.7893701  89.2820629  68.5054054  36.5229942  95.6132795  73.4302769
  37.3921102  95.7873447  73.0689404  36.0436694  96.4327212  73.3078499
  32.5180161  82.8091992  53.6834525  32.5058830  83.7533832  53.8402796
  33.4103582  82.6262138  53.3893986  30.6916123 102.7329896  65.1092203
  31.5943369 102.7653506  65.4258698  30.4653493 101.8030347  65.1238539
  32.4469725 101.4860883  61.7702282  31.4965356 101.4862744  61.6566654
  32.7502211 100.7393617  61.2538316  28.3374041  85.6919565  72.0285643
  29.2005503  85.3356370  72.2388968  27.7639452  85.3533460  72.7161047
  48.1822418 107.3221421  62.8348044  48.8200828 107.2028168  62.1311384
  48.0643261 108.2702265  62.8935996  44.9912124 107.2748849  62.7709569
  44.6530636 107.1589914  61.8830104  45.8601893 106.8740014  62.7510575
  40.8498940 109.1284326  58.7606460  40.2863805 109.0374263  57.9922748
  40.7351335 108.3084230  59.2408952  45.4731907 108.4283701  68.7295774
  45.4620548 108.0336499  67.8576278  45.6352547 107.6949774  69.3229546
  38.3963372 110.6235517  61.5990680  39.1884664 110.2826342  61.1836980
  38.6360022 110.7330492  62.5192834  46.4298499 112.7955293  54.0720925
  45.7786478 113.3809374  53.6854938  47.2242862 113.3261488  54.1315962
  40.3554126 109.8844430  54.4708059  41.1285002 109.3373418  54.3320935
  40.7079525 110.7488680  54.6822520  42.1939168 111.2120813  67.6774958
  41.9029034 112.1166444  67.5621625  42.8296153 111.2537340  68.3919028
  43.1195375 108.5897661  64.2676318  43.7158948 108.3653684  63.5533281
  43.1770347 107.8482407  64.8701766  42.6920404 106.0437097  52.1026509
  42.9445924 105.5218618  51.3409972  41.7544963 105.8803242  52.2053193
  47.7363687 105.0472875  59.9101252  48.5226776 104.6292298  59.5591669
  48.0002391 105.9518967  60.0782901  47.9073764 110.4845725  54.6089909
  47.2719597 110.5580352  55.3210814  47.5771170 111.0739324  53.9308988
  53.1372114 104.9848108  60.8134231  53.8697286 104.4147325  61.0472060
  52.3811469 104.5969709  61.2540736  42.4116692 107.9465203  54.3050884
  42.2952951 107.2710106  54.9731968  42.5218952 107.4597576  53.4883037
  44.7548233 107.4075350  58.0097573  44.3906441 106.8805971  58.7210495
  45.6115349 107.0173819  57.8364059  50.6597534  98.6969682  65.2728839
  50.3280859  99.5665093  65.0490054  50.0643147  98.3805966  65.9522870
  44.3953720 102.4365249  53.0058922  44.5628123 103.3045486  53.3729393
  44.2050889 102.5992531  52.0820211  47.1529054 110.8982228  64.6724752
  46.8529777 111.8007267  64.5640559  46.8080113 110.6314411  65.5245905
  40.6041535 107.3496025  60.7061456  39.6792031 107.2172239  60.9139148
  40.8525948 108.1290244  61.2031399  50.5526197 103.4164768  62.3522189
  49.6443075 103.3480177  62.0580950  50.5013793 103.8936713  63.1804015
  44.3742941 104.8922907  53.9905588  44.2542566 105.3379958  54.8291069
  43.6795530 105.2408225  53.4319127  37.9650346 106.9929299  61.5405246
  38.0942727 107.2463778  62.4544657  37.2847797 107.5857007  61.2209901
  42.1349833 117.6626549  57.6395720  42.0573863 118.6134374  57.7184200
  41.5311477 117.3172421  58.2970646  44.6267063 104.8354414  70.2957087
  43.8500397 105.3948334  70.2859951  45.2657626 105.3211197  70.8171957
  52.4187844 101.6181207  64.1300063  51.7762224 101.9113740  63.4839858
  51.9142772 101.5034127  64.9353260  50.0728007 105.3644380  54.8185923
  50.9845864 105.5971767  54.6433620  49.5637654 105.9481424  54.2561001
  42.8813435 107.6439867  69.8575054  43.6228120 108.1824911  69.5809877
  42.1750421 108.2706156  70.0146605  48.3568775 109.7869008  68.4547215
  48.7652131 109.3451418  67.7101847  47.6346037 109.2121635  68.7081408
  44.7099845 104.7241615  65.8280772  45.5561040 105.1481028  65.9715421
  44.6498483 104.0675239  66.5219335  48.6797590 110.3470198  62.2099504
  48.0506452 110.5115913  61.5075572  48.2923252 110.7611808  62.9810468
  52.5586822 111.2824636  59.5643868  51.8737860 111.6623538  59.0140901
  52.6430671 111.8919963  60.2975815  47.8599290 102.3845983  67.4861946
  47.6160222 103.1388044  66.9496221  48.1359221 102.7631331  68.3209193
  49.8137753 108.9284595  66.1639211  50.0254648 109.5716355  65.4873592
  49.7667501 108.0946912  65.6961141  47.4163982 101.5402416  63.0675783
  46.5548461 101.8383670  63.3592521  47.4426417 101.7572815  62.1356816
  44.2325552 110.0844607  59.4749589  44.6963897 110.3632310  58.6854212
  43.9682350 109.1828051  59.2922680  41.1249633 109.6316088  62.4129352
  41.6950990 110.0603356  61.7746837  41.7157744 109.3498673  63.1113538
  43.1694438 106.2067759  56.2839154  43.8718481 106.6588803  56.7513081
  42.8375066 105.5651578  56.9119047  41.6174799 104.7979516  70.6590364
  40.9873460 105.4795796  70.8925760  41.5110887 104.6862597  69.7143502
  36.9119772 104.4651312  61.5856288  36.1218826 104.7208840  61.1096398
  37.4031019 105.2799649  61.6908328  50.9283581 111.8056551  64.3361569
  51.7501025 111.4036738  64.0544250  50.9245984 111.7024785  65.2877684
  38.8634517 104.8295891  58.5439764  38.0665680 104.9414585  59.0623260
  38.6360109 105.1682543  57.6780655  44.6940185 111.3540594  66.4922279
  44.7584617 111.8161001  67.3280451  43.9851108 110.7237959  66.6204589
  35.1957475 104.7181802  64.0171279  35.4465513 105.6028812  64.2828855
  35.7317023 104.5386404  63.2446370  59.0189574 108.1495299  60.6846540
  58.2653283 107.5802697  60.5290545  59.1537115 108.1157964  61.6317175
  44.4088202 113.0208702  56.3601259  44.2733877 113.8660237  56.7886107
  44.9498015 113.2227979  55.5967193  40.8955542  99.1000281  73.0215615
  40.5022487  98.5466480  73.6963259  41.7121682  99.4110860  73.4122132
  37.8617600 110.5384140  56.9329185  38.3742120 111.3327390  57.0834749
  38.5140312 109.8410430  56.8662786  39.6712484 113.6549896  59.0151938
  39.8479113 114.5767861  58.8272922  40.4669318 113.3408315  59.4446317
  43.8123503 100.5158161  70.6135871  44.5533216 101.1165314  70.5340334
  44.0441426  99.7735798  70.0553914  38.9564841 105.7014528  68.8914101
  38.8418356 104.7999785  69.1921200  38.1009359 105.9478225  68.5398917
  46.0356679 113.6432268  70.4901602  45.5920533 112.8568647  70.1722506
  46.6973892 113.8311419  69.8245492  40.7943800 115.1728070  65.0162280
  41.3451225 115.0445133  64.2439274  39.9555276 115.4722959  64.6657173
  48.1337917 113.9235068  68.5183003  48.1156392 114.7443949  68.0263272
  49.0557837 113.7989143  68.7433144  44.5910971 111.4379197  69.3606511
  45.1239308 110.6767486  69.1305819  44.0625052 111.1452849  70.1030666
  47.7580666  96.5439263  64.8900153  47.4144935  97.4340905  64.8139263
  48.1259628  96.3540921  64.0269738  35.8266516 108.8672794  57.7088755
  36.6641738 109.2769802  57.4922463  36.0044784 107.9272236  57.6788949
  47.7230949 106.5347875  53.3972588  47.2077572 107.3052479  53.6360975
  47.4508257 105.8613011  54.0205649  45.3078060 101.3797575  58.4557826
  44.4519656 100.9904426  58.2763465  45.7205011 101.4589536  57.5957612
  46.8377206  98.9143919  62.8549386  46.3342002  98.8774054  62.0417191
  47.1307813  99.8236661  62.9146043  43.0820092  98.9982648  61.8615568
  43.9473089  98.8025457  61.5021457  43.1497601  98.7693000  62.7884925
  52.6965223 109.2880229  55.3325761  51.9194665 108.9491389  54.8880924
  53.3756704 109.2932852  54.6580727  47.5117252 104.4074967  55.2232369
  47.2067387 104.7221116  56.0742512  48.4647694 104.4856387  55.2659702
  45.9563684 110.5665190  56.8725323  45.4285045 109.8317950  56.5598561
  45.4551186 111.3439866  56.6265291  50.9356530 108.7614210  61.9892369
  50.2780204 109.4513472  62.0772498  51.7396929 109.1510642  62.3326356
  40.6882411 101.2284856  59.2331935  41.2626163 101.0060038  58.5005128
  41.2753394 101.2973551  59.9860536  49.7461988 107.1158583  60.0396311
  50.2593870 107.7488575  60.5418021  50.3963212 106.5159779  59.6739671
  41.0151998 103.2589317  53.2527820  40.1789311 103.5964004  53.5737095
  40.8756768 103.1238297  52.3154957  42.9905079  98.1026105  57.9607004
  42.3369491  97.7875122  57.3363619  42.9485553  97.4801846  58.6866827
  44.1016284 108.3845400  49.8760296  43.1943345 108.1534654  50.0751445
  44.5987316 107.5883019  50.0634278  47.0084363 117.0942907  52.7956982
  46.3346061 117.3974604  53.4041940  47.3950185 117.8971988  52.4462439
  46.2242819 104.5908039  62.2854652  45.3065381 104.8122986  62.1276340
  46.6402963 104.6654349  61.4266359  47.0077867 105.9899454  57.4157332
  47.7549686 106.5020852  57.1064454  47.2769457 105.6683507  58.2761726
  45.2804517 108.4857995  54.3984286  44.3715736 108.2017028  54.4956756
  45.3099601 108.9057074  53.5387593  50.5123785 112.0964585  58.1675454
  50.0586112 111.2555494  58.2240644  49.8817751 112.7325983  58.5050234
  49.4556704 103.0256571  59.3976121  48.7179461 102.5133957  59.7286364
  49.7083478 102.5856952  58.5859398  48.9556724 113.9341081  59.1025272
  49.2479698 114.4946138  58.3837638  49.4655344 114.2269642  59.8578431
  49.5568331  95.8032823  59.9917891  49.8627208  94.9430186  59.7043806
  50.2820936  96.3950443  59.7916884  35.8492688 106.2063509  58.3799488
  35.6517087 105.6132870  57.6550555  35.2939352 105.9015719  59.0975427
  43.8289411 106.0986616  60.4994082  43.8838021 105.1460452  60.4236558
  43.0180613 106.2546055  60.9835380  44.9780605 110.0266739  51.7372365
  44.5400035 109.3102598  51.2778002  45.7191046 110.2542854  51.1757456
  41.7681771 104.7163675  58.2584461  40.9549637 105.0157846  58.6649653
  42.2640765 104.3219364  58.9758943  43.9190349 114.7121432  60.1918725
  43.8766528 114.9382279  59.2627257  44.8353048 114.4784807  60.3404526
  47.3655983 105.1805500  67.0899354  47.7205371 105.4076973  67.9493820
  48.0128114 105.5123877  66.4676610  53.0953720 108.3023936  57.7948683
  52.9571618 108.4925532  56.8669873  52.7389939 109.0643319  58.2516735
  41.2595846 102.2882031  63.8745695  41.8995225 102.1470790  63.1768659
  40.4273376 102.0016544  63.4984297  53.1223099 110.3700463  62.8059955
  53.5559606 110.2775752  63.6543009  53.8354680 110.3457963  62.1679971
  42.0356150 111.5884461  59.9880688  42.8296748 111.0934782  59.7863263
  41.3247842 111.0602325  59.6248393  46.8550994 113.9702557  64.3393056
  46.9088017 114.5393493  65.1070771  45.9865776 114.1404442  63.9747093
  38.3438913 105.7327543  56.0640441  37.4136501 105.6711999  56.2810403
  38.4396385 105.2103496  55.2677082  38.2624462 102.2582356  58.6518682
  38.5231280 103.1727689  58.5427843  39.0841635 101.7906799  58.8015295
  39.7349388 103.6720113  65.8217507  40.4072441 103.4637475  65.1730156
  38.9079174 103.4742199  65.3822739  53.9838649 110.4124163  65.3392840
  54.1774539 111.3169974  65.5852115  53.8839267 109.9531583  66.1731425
  45.6374960 100.2982054  67.8383168  44.9902875 100.9972004  67.7447644
  46.4075975 100.7318198  68.2059416  49.0453758 110.5630906  70.9133721
  48.8939264 110.3341458  69.9963805  49.0358437 111.5201508  70.9265066
  45.8139094 108.1362819  65.8979987  46.7431154 108.2873979  65.7248955
  45.3930124 108.2246840  65.0428634  44.6127426 112.1613483  63.6678525
  44.4738511 111.7932268  64.5404463  43.8242022 112.6761123  63.4962483
  45.2075578 117.2622580  55.0104062  45.3827333 116.7910623  55.8249684
  44.5208366 117.8888346  55.2385322  46.1632641 111.5395086  61.0567363
  45.8282474 111.4995856  61.9525013  45.6636587 110.8739802  60.5837773
  40.1376885 106.9462716  66.5819944  39.9996683 106.2142955  67.1831483
  41.0481808 106.8571616  66.3004132  49.0991833 108.8851120  51.3304422
  48.4821003 108.1597949  51.2337475  48.6308321 109.6460481  50.9871497
  42.7659186 106.6582675  66.0703624  43.4758804 106.0175868  66.0290242
  42.7228494 106.9095570  66.9929804  50.7545964 113.5950029  68.9910203
  50.6958510 112.9109249  68.3240786  51.1565483 114.3369019  68.5390829
  41.4788120 103.6447893  67.8899263  40.9425477 103.1938632  68.5420859
  40.8904828 103.7793802  67.1469727  40.8890379 103.1036545  50.4525727
  40.0119845 102.9825346  50.0887973  41.3648132 102.3122623  50.2004615
  50.7563372 111.5589613  67.2224182  49.8690150 111.2215534  67.3450581
  51.3261923 110.8272644  67.4592948  32.4092519 107.8913704  60.5467234
  33.0963558 107.5775434  59.9588249  32.2540647 108.7955069  60.2734485
  37.2127241 102.7803901  64.9752258  37.1285430 102.1729571  64.2402668
  36.3909947 103.2712919  64.9761754  44.2864525 116.2191065  64.1885426
  44.2134696 117.0246037  64.7004730  43.8441918 116.4183031  63.3633447
  44.0754305 115.4562835  57.6988247  43.2921826 115.9984515  57.7926472
  44.7747050 115.9736815  58.0982488  47.3850955 101.2657465  60.3422453
  47.8819654 100.5127427  60.0223523  46.6137936 101.3021781  59.7765662
  55.2380712 106.9697830  61.9840744  55.2270588 107.8522546  61.6134677
  54.3698091 106.6169381  61.7895281  46.7463208 116.1177899  66.3443584
  47.4591181 116.7525364  66.2719486  46.2553237 116.2141765  65.5283586
  48.4680735 110.0229152  57.9160876  47.5337014 110.1430614  57.7465580
  48.6457404 109.1201619  57.6520886  43.9685923 103.4074848  60.0694137
  43.5983711 102.8545888  60.7575043  44.4645016 102.8032981  59.5169137
  51.8553287 105.8646471  58.4510910  52.3213739 106.6974463  58.3771213
  52.3060787 105.3991453  59.1556169  41.7975122 113.8672343  67.1649155
  42.4984581 114.5008826  67.3178549  41.3270237 114.2087074  66.4044794
  49.9229518 112.2090292  55.4497062  50.1989362 112.0946887  56.3590936
  49.0534017 111.8107777  55.4109235  49.8269949  98.2327058  62.4901811
  48.9133029  98.4631285  62.6584018  50.2563051  98.3165502  63.3415844
  49.5976408 106.4216950  64.9901706  48.9447858 106.6692857  64.3354158
  49.9756788 105.6081088  64.6564183  46.5583582 116.4576643  59.0929876
  46.7405976 115.6398299  59.5557628  47.3816568 116.6744335  58.6554766
  46.8925747 115.3844828  56.3544924  47.4213514 114.8737283  55.7415086
  47.1553967 115.0687359  57.2190457  45.6463981 107.1636761  71.4767743
  44.9704618 107.0630890  72.1470118  46.4691615 107.0075975  71.9403740
  37.3942840 113.4008698  64.0980258  37.9796277 112.6552386  64.2308162
  37.1967678 113.7112654  64.9816922  40.2481495 116.4359945  59.1142700
  39.5791871 116.9206073  58.6306740  40.1094365 116.6829165  60.0286079
  31.9860495 105.9714298  62.8184701  32.0244594 105.4377888  63.6121819
  31.4800788 105.4449503  62.1995678  44.3886764 118.4703689  65.7125359
  44.9405072 118.6335310  66.4774444  44.7292957 119.0608126  65.0405383
  39.3651257 100.8178838  66.3147243  39.4292584 101.6793669  65.9024641
  39.3018377 100.2052840  65.5819602  38.8403530 102.8901971  69.9620278
  39.4675568 102.5079048  70.5757802  37.9831448 102.6716173  70.3275970
  49.2397638 113.2964946  71.5674013  49.7837542 113.9094904  71.0728968
  48.6584483 113.8544524  72.0841026  35.6169072 104.6978400  55.8938632
  35.9122513 103.7889078  55.8405686  34.7157108 104.6766139  55.5719635
  47.5255151 116.4185664  62.6989041  47.4006291 115.6175404  62.1899986
  48.1834242 116.9131857  62.2103011  39.1463319 102.7734397  61.8766181
  38.4249905 103.3870364  61.7373654  39.9356575 103.3092161  61.7982827
  49.5890060 114.2194684  64.3268591  48.6420395 114.1000035  64.2546918
  49.9372833 113.3317182  64.4094852  41.9489633 100.1088823  68.1506833
  42.4724035 100.3551120  68.9133142  41.7301966 100.9408858  67.7309970
  37.3456914 102.3792498  56.0177958  37.0169620 101.4989877  55.8353063
  37.6996285 102.3240166  56.9054347  46.5936493 114.0147400  60.5272943
  46.4461455 113.0864108  60.7080513  47.4189986 114.0367491  60.0430018
  40.4598737 102.6665467  56.3853435  40.7994810 103.1951389  55.6632044
  40.9070858 103.0045874  57.1612002  50.1970615 114.8375959  61.6137816
  51.1217162 114.6318820  61.4762267  50.0285918 114.5892360  62.5227157
  43.1542178 101.0502518  65.8356503  42.8138998 100.2510331  66.2377183
  42.4481184 101.3504229  65.2633336  43.8058650  98.1351831  64.2883826
  44.6284719  97.6612309  64.1662717  44.0496713  98.9142314  64.7882513
  42.4466884 101.1640089  54.5846728  43.1675247 101.5421342  54.0810445
  41.8232188 101.8828966  54.6881706  46.5898007 101.8685238  55.5205060
  46.8061622 102.7509876  55.2193888  46.1092074 101.4771451  54.7910702
  41.3297229 104.8270951  62.0975805  41.1841809 105.1411254  62.9900086
  40.8522432 105.4455852  61.5446704  43.1893611 101.8173499  62.1456694
  43.1755180 100.9214593  61.8088992  43.9066039 101.8244163  62.7794981
  45.0419742 102.2510839  64.1909822  44.7837520 103.1727910  64.1894152
  44.5104782 101.8541274  64.8810286  49.9865931 115.3561627  56.9699907
  50.1602808 114.7908049  56.2173760  50.4794822 116.1562521  56.7879397
  35.8042891 107.3676296  65.0363466  35.2596359 108.1436104  65.1683740
  36.6822241 107.7147100  64.8782588  42.5930507 100.6987879  57.4144265
  42.7146419  99.7704526  57.6135152  42.3032550 100.7126565  56.5022580
  45.4621698  98.3842790  60.5510984  45.4843395  98.4482123  59.5962964
  45.8789757  97.5447299  60.7451491  55.8405322 108.1198049  58.5890207
  56.2836468 107.3705375  58.1909330  54.9631832 108.1108186  58.2063939
  50.9741103 114.6728391  54.0696806  51.6692008 115.2935084  54.2884120
  51.3164253 113.8223742  54.3449183  36.5908913 106.4946192  67.9293623
  35.8490649 106.6428827  68.5158253  36.2701657 106.7554457  67.0660372
  52.8732526 112.1228096  55.5984136  53.3983851 112.4615369  54.8733456
  52.7854879 111.1875112  55.4147271  44.5352575 116.0362170  67.7274013
  44.8439702 115.7911317  68.5996713  45.3328057 116.2408809  67.2392883
  44.5573187 118.1900080  59.9579390  44.1178178 117.6976458  60.6512246
  45.3081304 117.6473047  59.7171465  37.0365526 114.3811621  59.9604018
  37.8623546 114.0815392  59.5802661  36.6859578 113.6119243  60.4093806
  42.0047059 113.7338089  62.0301691  41.3827069 113.0708794  61.7303919
  42.6751926 113.7599221  61.3475339  35.2374131 112.2997947  60.9192951
  34.4006040 111.8720121  60.7376952  35.2097777 112.4930390  61.8563742
  42.0771587 102.2119877  71.6234197  42.1259742 103.0882000  71.2411967
  42.6194101 101.6697270  71.0505840  52.5626433 112.7561000  70.9035334
  51.7721976 112.7385139  70.3639834  52.3259787 113.2949294  71.6584371
  52.6824308 109.6053466  68.2168063  52.7322313 109.4403474  69.1583586
  52.5738231 108.7380725  67.8265944  41.5660566 112.2842012  55.5060152
  41.7148687 112.9677477  54.8526824  42.3727010 112.2647102  56.0209607
  49.9728070 105.5884394  69.5327370  50.8737933 105.4490859  69.2411367
  50.0476044 105.7538849  70.4725547  44.3070875 102.9651249  68.3780556
  43.4374185 103.2584815  68.1063144  44.5430356 103.5491694  69.0987819
  54.1842504 112.0250408  68.4610084  53.8927313 112.3880389  69.2973545
  53.5714636 111.3117416  68.2823416  55.3838187 109.5903288  60.9812655
  56.2185078 110.0293092  61.1450215  55.5197316 109.1141941  60.1620900
  52.4329693 107.1483023  66.9290142  52.9083814 107.3410669  66.1208994
  51.5095258 107.2042208  66.6833526  39.3213199 108.3107190  56.5121221
  39.0759241 107.4069520  56.7101431  39.4909114 108.3124340  55.5700699
  47.0109909  99.1830866  65.8945976  47.5291853  99.9191893  65.5692465
  46.6565042  99.4894859  66.7292735  38.5908847 104.0435547  54.0107382
  37.8978092 104.1179902  53.3547418  38.3460599 103.2795891  54.5328899
  47.2622503  95.6031149  61.4146873  47.5424257  94.9354338  62.0407299
  48.0473110  95.7960244  60.9021537  45.0655972 114.7790143  52.9771899
  44.4929939 115.3980330  52.5242371  45.6388765 115.3289504  53.5111821
  51.1331362 104.0248783  65.1618448  52.0848785 104.1246880  65.1830672
  50.9634812 103.2327051  65.6716532  49.1545741 101.1104366  65.3477849
  48.5595673 101.3909379  64.6524337  48.8695438 101.5998267  66.1194590
  48.2853232 115.0627293  54.1080481  49.2183905 114.9972854  54.3113357
  48.1976444 115.8983560  53.6495014  50.9141248 114.3793163  51.0684429
  50.8354880 114.0453027  51.9620187  51.7350915 114.8714931  51.0675901
  53.6119439 107.2454902  64.2760748  53.5795760 106.3070903  64.4620431
  54.2220063 107.3238939  63.5426572  45.4502770 106.1150955  50.3187952
  46.3961875 105.9857163  50.3876370  45.0717015 105.3765617  50.7957380
  53.7613928 104.0365946  64.3219031  53.2452977 103.2524402  64.1348960
  54.6453876 103.7084662  64.4865550  51.4224655  97.7806961  60.2814843
  51.2249476  97.4722050  61.1658175  52.0324360  98.5068600  60.4112773
  59.4295989 108.3070909  63.4166784  60.1599378 108.0456197  63.9774488
  58.8202935 107.5699631  63.4568852  57.5111286 106.4478772  64.0141236
  56.7844450 106.3134737  63.4057727  57.0958573 106.7555600  64.8197954
  45.3341463 110.1668701  71.7788609  46.2544472 110.3447300  71.9728655
  45.2991046 109.2224747  71.6268308  43.6345687 104.0400932  50.2542837
  42.7277143 103.7434044  50.3305550  43.9121668 103.7430750  49.3877123
  34.5523628 105.3607295  60.7041883  34.2326412 104.5072603  60.4116257
  34.0057056 105.5755873  61.4599851  38.3303535 108.0769736  64.4211390
  38.5489545 109.0086844  64.4399424  38.7429309 107.7177711  65.2066194
  45.2507753  98.5837821  56.4087078  44.4408481  98.2384906  56.7842324
  45.9392170  98.2745365  56.9974690  47.1798301  97.6615868  58.0311375
  47.7329340  98.0811322  58.6901398  47.4168388  96.7351616  58.0734331
  43.2031401 103.6502942  73.8114139  43.1028128 104.5997299  73.7426230
  42.9852943 103.3221181  72.9390209  42.4044472 100.8987867  50.3954816
  43.2663636 101.2242765  50.6550633  42.5894816 100.1119363  49.8827882
  34.4211888 108.9810207  62.6735005  33.7275359 108.5664159  62.1604959
  35.1684879 109.0230743  62.0768424  50.5577109  99.7716393  57.5390039
  49.9775778 100.4301197  57.1568091  50.2913041  98.9493738  57.1277457
  49.0080675  99.1721451  59.7411359  49.5080453  99.2837986  58.9325678
  49.6516283  98.8682504  60.3812168  43.0662671 107.0800081  72.6279200
  42.5829752 107.8800441  72.8343089  43.1523610 107.0908026  71.6746644
  36.3348630 108.9128460  60.5501020  36.3119318 109.0116148  59.5982903
  36.6449267 109.7593611  60.8718186  38.9936008 110.9704615  64.6647634
  39.9479262 110.9388558  64.5977566  38.7948532 110.5095239  65.4797860
  39.5835390 109.5405731  67.2318432  40.4028279 110.0349810  67.2553269
  39.8572198 108.6237700  67.2035999  49.3401987 101.9316484  56.5946387
  48.4527842 102.2166134  56.3766582  49.7555976 101.7710247  55.7473664
  52.6916523 101.9563005  60.3100727  53.4676913 102.4459457  60.5825343
  51.9664657 102.3821059  60.7672596  55.1289081 102.6690624  61.3674667
  55.7233572 102.4286360  60.6567975  55.2015665 101.9497755  61.9948203
  37.3486237 116.5124235  61.6817832  37.2140705 115.7524636  61.1155830
  36.9318299 117.2365135  61.2146621  48.4845200 111.6961158  50.6894407
  49.1881050 111.9011161  51.3052063  47.7607849 112.2637920  50.9543491
  49.3143010 107.4471020  56.8096677  49.2578212 107.9039571  55.9704310
  49.8671353 106.6861704  56.6319520  53.1247816 103.2360752  57.6346797
  52.8684750 102.8357387  58.4655005  52.5000684 103.9504546  57.5096936
  57.4360154 105.9756825  60.1418088  56.8759712 106.0450014  60.9149650
  56.8303657 105.7997809  59.4217585  40.5055363 117.4093552  61.8936275
  40.3887747 118.3538984  61.7914965  39.6847809 117.1067114  62.2822074
  50.3931897 112.1343688  52.7392867  51.2277501 111.7024886  52.5570342
  50.2316240 111.9625701  53.6669762  50.0477790 108.6375801  54.1049207
  49.9926593 108.4720072  53.1637651  49.4223845 109.3451834  54.2611396
  34.8370305 103.8743865  67.9310629  35.4829168 103.3642819  68.4197854
  34.6287456 104.6112547  68.5054054  47.3623697 110.9424713  73.4302769
  48.2314856 111.1165365  73.0689404  46.8830448 111.7619130  73.3078499
  43.3573915  98.1383910  53.6834525  43.3452585  99.0825750  53.8402796
  44.2497337  97.9554055  53.3893986  41.5309877 118.0621814  65.1092203
  42.4337124 118.0945424  65.4258698  41.3047247 117.1322265  65.1238539
  43.2863479 116.8152800  61.7702282  42.3359110 116.8154662  61.6566654
  43.5895965 116.0685535  61.2538316  47.1726035  94.7326687  57.9380462
  46.4058430  94.1785173  58.0837144  47.5836740  94.8048555  58.7994613
  39.1767796 101.0211482  72.0285643  40.0399257 100.6648287  72.2388968
  38.6033206 100.6825377  72.7161047  59.0216173 122.6513339  62.8348044
  59.6594582 122.5320086  62.1311384  58.9037015 123.5994183  62.8935996
  55.8305879 122.6040767  62.7709569  55.4924390 122.4881832  61.8830104
  56.6995647 122.2031932  62.7510575  56.3125662 123.7575619  68.7295774
  56.3014303 123.3628417  67.8576278  56.4746301 123.0241691  69.3229546
  53.5314158 121.3729014  52.1026509  53.7839679 120.8510536  51.3409972
  52.5938717 121.2095160  52.2053193  58.5757441 120.3764793  59.9101252
  59.3620530 119.9584216  59.5591669  58.8396145 121.2810885  60.0782901
  63.9765868 120.3140026  60.8134231  64.7091040 119.7439243  61.0472060
  63.2205224 119.9261626  61.2540736  55.5941988 122.7367267  58.0097573
  55.2300195 122.2097888  58.7210495  56.4509104 122.3465736  57.8364059
  61.4991288 114.0261600  65.2728839  61.1674613 114.8957011  65.0490054
  60.9036902 113.7097884  65.9522870  55.2347475 117.7657167  53.0058922
  55.4021877 118.6337403  53.3729393  55.0444644 117.9284449  52.0820211
  61.3919952 118.7456686  62.3522189  60.4836829 118.6772095  62.0580950
  61.3407548 119.2228631  63.1804015  55.2136696 120.2214825  53.9905588
  55.0936321 120.6671875  54.8291069  54.5189284 120.5700142  53.4319127
  55.4660818 120.1646332  70.2957087  54.6894152 120.7240252  70.2859951
  56.1051381 120.6503115  70.8171957  63.2581598 116.9473125  64.1300063
  62.6155978 117.2405658  63.4839858  62.7536527 116.8326045  64.9353260
  60.9121762 120.6936298  54.8185923  61.8239618 120.9263684  54.6433620
  60.4031409 121.2773342  54.2561001  59.1962530 125.1160926  68.4547215
  59.6045886 124.6743336  67.7101847  58.4739791 124.5413553  68.7081408
  55.5493600 120.0533532  65.8280772  56.3954795 120.4772946  65.9715421
  55.4892237 119.3967157  66.5219335  58.6993045 117.7137901  67.4861946
  58.4553977 118.4679961  66.9496221  58.9752975 118.0923248  68.3209193
  60.6531508 124.2576513  66.1639211  60.8648403 124.9008273  65.4873592
  60.6061256 123.4238830  65.6961141  58.2557737 116.8694334  63.0675783
  57.3942216 117.1675587  63.3592521  58.2820171 117.0864733  62.1356816
  54.0088192 121.5359677  56.2839154  54.7112235 121.9880720  56.7513081
  53.6768821 120.8943495  56.9119047  52.4568554 120.1271433  70.6590364
  51.8267214 120.8087714  70.8925760  52.3504642 120.0154515  69.7143502
  47.7513526 119.7943229  61.5856288  46.9612580 120.0500758  61.1096398
  48.2424773 120.6091567  61.6908328  49.7028271 120.1587809  58.5439764
  48.9059435 120.2706503  59.0623260  49.4753864 120.4974461  57.6780655
  69.8583329 123.4787217  60.6846540  69.1047037 122.9094615  60.5290545
  69.9930870 123.4449881  61.6317175  51.7349296 114.4292199  73.0215615
  51.3416242 113.8758398  73.6963259  52.5515437 114.7402778  73.4122132
  54.6517257 115.8450078  70.6135871  55.3926971 116.4457231  70.5340334
  54.8835180 115.1027716  70.0553914  49.7958595 121.0306445  68.8914101
  49.6812111 120.1291703  69.1921200  48.9403113 121.2770142  68.5398917
  58.5974420 111.8731181  64.8900153  58.2538690 112.7632823  64.8139263
  58.9653383 111.6832839  64.0269738  58.5624703 121.8639792  53.3972588
  58.0471326 122.6344397  53.6360975  58.2902011 121.1904928  54.0205649
  56.1471814 116.7089493  58.4557826  55.2913410 116.3196343  58.2763465
  56.5598766 116.7881454  57.5957612  57.6770961 114.2435836  62.8549386
  57.1735756 114.2065971  62.0417191  57.9701568 115.1528579  62.9146043
  53.9213847 114.3274566  61.8615568  54.7866843 114.1317375  61.5021457
  53.9891355 114.0984918  62.7884925  63.5358977 124.6172147  55.3325761
  62.7588420 124.2783306  54.8880924  64.2150458 124.6224770  54.6580727
  58.3511006 119.7366884  55.2232369  58.0461142 120.0513034  56.0742512
  59.3041448 119.8148304  55.2659702  61.7750284 124.0906128  61.9892369
  61.1173959 124.7805390  62.0772498  62.5790683 124.4802560  62.3326356
  51.5276166 116.5576774  59.2331935  52.1019918 116.3351955  58.5005128
  52.1147148 116.6265468  59.9860536  60.5855743 122.4450501  60.0396311
  61.0987625 123.0780493  60.5418021  61.2356967 121.8451696  59.6739671
  51.8545753 118.5881235  53.2527820  51.0183065 118.9255921  53.5737095
  51.7150522 118.4530215  52.3154957  53.8298833 113.4318023  57.9607004
  53.1763246 113.1167040  57.3363619  53.7879308 112.8093763  58.6866827
  54.9410038 123.7137318  49.8760296  54.0337100 123.4826571  50.0751445
  55.4381070 122.9174937  50.0634278  57.0636574 119.9199956  62.2854652
  56.1459135 120.1414903  62.1276340  57.4796717 119.9946267  61.4266359
  57.8471621 121.3191372  57.4157332  58.5943440 121.8312769  57.1064454
  58.1163211 120.9975425  58.2761726  56.1198272 123.8149913  54.3984286
  55.2109491 123.5308946  54.4956756  56.1493355 124.2348991  53.5387593
  60.2950459 118.3548488  59.3976121  59.5573215 117.8425875  59.7286364
  60.5477232 117.9148870  58.5859398  60.3962086 111.1324740  59.9917891
  60.7020963 110.2722104  59.7043806  61.1214691 111.7242361  59.7916884
  54.6683166 121.4278533  60.4994082  54.7231775 120.4752370  60.4236558
  53.8574368 121.5837972  60.9835380  52.6075526 120.0455593  58.2584461
  51.7943391 120.3449764  58.6649653  53.1034520 119.6511282  58.9758943
  58.2049737 120.5097418  67.0899354  58.5599125 120.7368891  67.9493820
  58.8521869 120.8415794  66.4676610  63.9347474 123.6315853  57.7948683
  63.7965373 123.8217449  56.8669873  63.5783693 124.3935236  58.2516735
  52.0989600 117.6173949  63.8745695  52.7388980 117.4762708  63.1768659
  51.2667131 117.3308462  63.4984297  63.9616854 125.6992380  62.8059955
  64.3953361 125.6067670  63.6543009  64.6748435 125.6749881  62.1679971
  49.1832668 121.0619461  56.0640441  48.2530256 121.0003916  56.2810403
  49.2790140 120.5395414  55.2677082  49.1018217 117.5874274  58.6518682
  49.3625034 118.5019607  58.5427843  49.9235389 117.1198716  58.8015295
  50.5743142 119.0012031  65.8217507  51.2466196 118.7929393  65.1730156
  49.7472929 118.8034117  65.3822739  64.8232403 125.7416081  65.3392840
  65.0168294 126.6461892  65.5852115  64.7233022 125.2823500  66.1731425
  56.4768714 115.6273972  67.8383168  55.8296629 116.3263921  67.7447644
  57.2469730 116.0610116  68.2059416  56.6532849 123.4654737  65.8979987
  57.5824909 123.6165896  65.7248955  56.2323879 123.5538757  65.0428634
  50.9770639 122.2754634  66.5819944  50.8390437 121.5434873  67.1831483
  51.8875563 122.1863534  66.3004132  59.9385587 124.2143038  51.3304422
  59.3214758 123.4889866  51.2337475  59.4702076 124.9752398  50.9871497
  53.6052940 121.9874593  66.0703624  54.3152559 121.3467785  66.0290242
  53.5622248 122.2387488  66.9929804  52.3181874 118.9739811  67.8899263
  51.7819231 118.5230549  68.5420859  51.7298582 119.1085720  67.1469727
  51.7284133 118.4328462  50.4525727  50.8513599 118.3117263  50.0887973
  52.2041886 117.6414541  50.2004615  48.0520995 118.1095819  64.9752258
  47.9679184 117.5021488  64.2402668  47.2303702 118.6004837  64.9761754
  58.2244709 116.5949382  60.3422453  58.7213409 115.8419345  60.0223523
  57.4531691 116.6313699  59.7765662  66.0774467 122.2989748  61.9840744
  66.0664343 123.1814463  61.6134677  65.2091846 121.9461299  61.7895281
  54.8079678 118.7366765  60.0694137  54.4377465 118.1837806  60.7575043
  55.3038770 118.1324899  59.5169137  62.6947041 121.1938389  58.4510910
  63.1607493 122.0266380  58.3771213  63.1454542 120.7283370  59.1556169
  60.6663704 113.5618976  62.4901811  59.7526784 113.7923203  62.6584018
  61.0956805 113.6457420  63.3415844  60.4370162 121.7508868  64.9901706
  59.7841613 121.9984775  64.3354158  60.8150542 120.9373006  64.6564183
  56.4857735 122.4928679  71.4767743  55.8098372 122.3922808  72.1470118
  57.3085369 122.3367892  71.9403740  50.2045012 116.1470756  66.3147243
  50.2686338 117.0085587  65.9024641  50.1412132 115.5344758  65.5819602
  49.6797284 118.2193889  69.9620278  50.3069323 117.8370966  70.5757802
  48.8225203 118.0008090  70.3275970  46.4562827 120.0270318  55.8938632
  46.7516268 119.1180996  55.8405686  45.5550863 120.0058057  55.5719635
  49.9857074 118.1026314  61.8766181  49.2643660 118.7162282  61.7373654
  50.7750330 118.6384079  61.7982827  52.7883387 115.4380741  68.1506833
  53.3117789 115.6843037  68.9133142  52.5695721 116.2700776  67.7309970
  48.1850668 117.7084415  56.0177958  47.8563375 116.8281794  55.8353063
  48.5390039 117.6532084  56.9054347  51.2992492 117.9957385  56.3853435
  51.6388564 118.5243306  55.6632044  51.7464612 118.3337791  57.1612002
  53.9935932 116.3794436  65.8356503  53.6532753 115.5802249  66.2377183
  53.2874939 116.6796147  65.2633336  54.6452404 113.4643748  64.2883826
  55.4678474 112.9904226  64.1662717  54.8890468 114.2434232  64.7882513
  53.2860639 116.4932007  54.5846728  54.0069001 116.8713259  54.0810445
  52.6625943 117.2120883  54.6881706  57.4291762 117.1977156  55.5205060
  57.6455376 118.0801794  55.2193888  56.9485829 116.8063369  54.7910702
  52.1690983 120.1562869  62.0975805  52.0235564 120.4703172  62.9900086
  51.6916187 120.7747769  61.5446704  54.0287366 117.1465417  62.1456694
  54.0148935 116.2506510  61.8088992  54.7459794 117.1536081  62.7794981
  55.8813497 117.5802757  64.1909822  55.6231274 118.5019828  64.1894152
  55.3498537 117.1833192  64.8810286  53.4324262 116.0279797  57.4144265
  53.5540173 115.0996443  57.6135152  53.1426304 116.0418483  56.5022580
  56.3015452 113.7134708  60.5510984  56.3237149 113.7774041  59.5962964
  56.7183511 112.8739216  60.7451491  66.6799077 123.4489967  58.5890207
  67.1230223 122.6997292  58.1909330  65.8025587 123.4400103  58.2063939
  52.9165341 117.5411795  71.6234197  52.9653497 118.4173917  71.2411967
  53.4587856 116.9989188  71.0505840  63.5218062 124.9345384  68.2168063
  63.5716067 124.7695392  69.1583586  63.4131985 124.0672643  67.8265944
  60.8121824 120.9176312  69.5327370  61.7131687 120.7782777  69.2411367
  60.8869799 121.0830767  70.4725547  55.1464630 118.2943167  68.3780556
  54.2767939 118.5876733  68.1063144  55.3824110 118.8783612  69.0987819
  66.2231941 124.9195205  60.9812655  67.0578833 125.3585010  61.1450215
  66.3591070 124.4433859  60.1620900  63.2723447 122.4774940  66.9290142
  63.7477569 122.6702587  66.1208994  62.3489013 122.5334126  66.6833526
  57.8503664 114.5122784  65.8945976  58.3685607 115.2483811  65.5692465
  57.4958796 114.8186777  66.7292735  49.4302601 119.3727465  54.0107382
  48.7371846 119.4471820  53.3547418  49.1854353 118.6087809  54.5328899
  58.1016258 110.9323066  61.4146873  58.3818012 110.2646255  62.0407299
  58.8866865 111.1252162  60.9021537  61.9725116 119.3540700  65.1618448
  62.9242539 119.4538798  65.1830672  61.8028567 118.5618969  65.6716532
  59.9939496 116.4396284  65.3477849  59.3989428 116.7201296  64.6524337
  59.7089192 116.9290185  66.1194590  64.4513194 122.5746820  64.2760748
  64.4189514 121.6362821  64.4620431  65.0613818 122.6530857  63.5426572
  56.2896525 121.4442873  50.3187952  57.2355630 121.3149081  50.3876370
  55.9110770 120.7057535  50.7957380  64.6007682 119.3657863  64.3219031
  64.0846731 118.5816320  64.1348960  65.4847631 119.0376580  64.4865550
  62.2618409 113.1098879  60.2814843  62.0643230 112.8013967  61.1658175
  62.8718115 113.8360518  60.4112773  70.2689744 123.6362827  63.4166784
  70.9993132 123.3748115  63.9774488  69.6596689 122.8991549  63.4568852
  68.3505041 121.7770689  64.0141236  67.6238204 121.6426654  63.4057727
  67.9352328 122.0847518  64.8197954  54.4739442 119.3692849  50.2542837
  53.5670897 119.0725962  50.3305550  54.7515423 119.0722668  49.3877123
  56.0901508 113.9129739  56.4087078  55.2802236 113.5676824  56.7842324
  56.7785925 113.6037283  56.9974690  58.0192056 112.9907786  58.0311375
  58.5723095 113.4103239  58.6901398  58.2562142 112.0643534  58.0734331
  54.0425155 118.9794860  73.8114139  53.9421882 119.9289217  73.7426230
  53.8246697 118.6513098  72.9390209  53.2438227 116.2279785  50.3954816
  54.1057391 116.5534683  50.6550633  53.4288571 115.4411281  49.8827882
  61.3970863 115.1008311  57.5390039  60.8169532 115.7593115  57.1568091
  61.1306796 114.2785656  57.1277457  59.8474429 114.5013369  59.7411359
  60.3474208 114.6129903  58.9325678  60.4910037 114.1974422  60.3812168
  53.9056425 122.4091998  72.6279200  53.4223507 123.2092359  72.8343089
  53.9917364 122.4199943  71.6746644  60.1795741 117.2608401  56.5946387
  59.2921596 117.5458052  56.3766582  60.5949730 117.1002165  55.7473664
  63.5310277 117.2854922  60.3100727  64.3070667 117.7751375  60.5825343
  62.8058411 117.7112977  60.7672596  65.9682836 117.9982542  61.3674667
  66.5627327 117.7578278  60.6567975  66.0409420 117.2789672  61.9948203
  60.1536765 122.7762937  56.8096677  60.0971966 123.2331489  55.9704310
  60.7065107 122.0153622  56.6319520  63.9641571 118.5652669  57.6346797
  63.7078505 118.1649305  58.4655005  63.3394439 119.2796463  57.5096936
  68.2753909 121.3048743  60.1418088  67.7153467 121.3741932  60.9149650
  67.6697412 121.1289727  59.4217585  60.8871544 123.9667719  54.1049207
  60.8320348 123.8011990  53.1637651  60.2617599 124.6743752  54.2611396
  45.6764059 119.2035783  67.9310629  46.3222923 118.6934737  68.4197854
  45.4681210 119.9404465  68.5054054  54.1967670 113.4675828  53.6834525
  54.1846339 114.4117668  53.8402796  55.0891091 113.2845973  53.3893986
  58.0119789 110.0618604  57.9380462  57.2452185 109.5077091  58.0837144
  58.4230494 110.1340473  58.7994613  50.0161550 116.3503400  72.0285643
  50.8793012 115.9940205  72.2388968  49.4426961 116.0117295  72.7161047
  69.4368175 127.2023099  64.8900153  69.0932444 128.0924740  64.8139263
  69.8047137 127.0124756  64.0269738  71.2355840 126.4616658  59.9917891
  71.5414717 125.6014021  59.7043806  71.9608445 127.0534278  59.7916884
  71.5057458 128.8910893  62.4901811  70.5920538 129.1215120  62.6584018
  71.9350560 128.9749337  63.3415844  68.9410012 126.2614984  61.4146873
  69.2211766 125.5938173  62.0407299  69.7260619 126.4544080  60.9021537
  73.1012164 128.4390797  60.2814843  72.9036985 128.1305885  61.1658175
  73.7111869 129.1652436  60.4112773  68.8585810 128.3199704  58.0311375
  69.4116849 128.7395157  58.6901398  69.0955897 127.3935452  58.0734331
  68.8513544 125.3910522  57.9380462  68.0845939 124.8369009  58.0837144
  69.2624248 125.4632391  58.7994613   4.8247401  23.0115873  49.5593351
   5.4625811  22.8922620  48.8556691   4.7068244  23.9596717  49.6181303
   1.6337108  22.9643301  49.4954875   1.2955619  22.8484366  48.6075410
   2.5026876  22.5634466  49.4755882   2.1156891  24.1178153  55.4541081
   2.1045531  23.7230951  54.5821585   2.2777530  23.3844225  56.0474852
   3.0723482  28.4849745  40.7966231   2.4211462  29.0703826  40.4100245
   3.8667845  29.0155940  40.8561269   4.3788670  20.7367327  46.6346559
   5.1651759  20.3186750  46.2836976   4.6427374  21.6413419  46.8028207
   4.5498747  26.1740177  41.3335216   3.9144580  26.2474804  42.0456120
   4.2196154  26.7633776  40.6554295   9.7797097  20.6742560  47.5379537
  10.5122269  20.1041777  47.7717367   9.0236453  20.2864161  47.9786043
   1.3973217  23.0969802  44.7342880   1.0331424  22.5700423  45.4455801
   2.2540333  22.7068271  44.5609365   7.3022517  14.3864134  51.9974146
   6.9705842  15.2559545  51.7735361   6.7068131  14.0700418  52.6768176
   1.0378704  18.1259701  39.7304228   1.2053106  18.9939938  40.0974699
   0.8475873  18.2886983  38.8065518   3.7954037  26.5876680  51.3970059
   3.4954760  27.4901719  51.2885866   3.4505096  26.3208863  52.2491212
   7.1951181  19.1059220  49.0767496   6.2868058  19.0374629  48.7826257
   7.1438776  19.5831165  49.9049321   1.2692046  20.5248866  57.0202393
   0.4925380  21.0842786  57.0105258   1.9082609  21.0105649  57.5417263
   9.0612827  17.3075659  50.8545370   8.4187207  17.6008192  50.2085164
   8.5567756  17.1928579  51.6598567   6.7152991  21.0538832  41.5431229
   7.6270847  21.2866219  41.3678927   6.2062638  21.6375876  40.9806308
   4.9993758  25.4763460  55.1792522   5.4077114  25.0345870  54.4347154
   4.2771020  24.9016087  55.4326715   1.3524828  20.4136067  52.5526079
   2.1986024  20.8375480  52.6960728   1.2923466  19.7569691  53.2464642
   5.3222573  26.0364650  48.9344811   4.6931435  26.2010365  48.2320878
   4.9348235  26.4506260  49.7055775   9.2011805  26.9719088  46.2889174
   8.5162843  27.3517990  45.7386208   9.2855654  27.5814415  47.0221122
   4.5024274  18.0740435  54.2107252   4.2585206  18.8282495  53.6741528
   4.7784204  18.4525782  55.0454499   6.4562737  24.6179047  52.8884518
   6.6679632  25.2610807  52.2118899   6.4092485  23.7841364  52.4206448
   4.0588965  17.2296868  49.7921090   3.1973445  17.5278121  50.0837828
   4.0851400  17.4467267  48.8602123   0.8750535  25.7739058  46.1994896
   1.3388880  26.0526761  45.4099518   0.6107333  24.8722503  46.0167986
   7.5708564  27.4951003  51.0606875   8.3926008  27.0931190  50.7789557
   7.5670967  27.3919237  52.0122991   1.3365168  27.0435046  53.2167586
   1.4009600  27.5055453  54.0525758   0.6276092  26.4132411  53.3449896
  15.6614558  23.8389751  47.4091847  14.9078266  23.2697149  47.2535851
  15.7962099  23.8052416  48.3562481   1.0513186  28.7103153  43.0846566
   0.9158860  29.5554689  43.5131414   1.5922998  28.9122431  42.3212500
   2.6781662  29.3326720  57.2146908   2.2345516  28.5463099  56.8967813
   3.3398876  29.5205870  56.5490799   4.7762900  29.6129520  55.2428309
   4.7581375  30.4338401  54.7508579   5.6982820  29.4883595  55.4678451
   1.2335954  27.1273649  56.0851818   1.7664291  26.3661938  55.8551126
   0.7050035  26.8347301  56.8275972   4.3655932  22.2242326  40.1217895
   3.8502555  22.9946931  40.3606282   4.0933240  21.5507463  40.7450956
   9.3390206  24.9774681  42.0571068   8.5619649  24.6385841  41.6126230
  10.0181687  24.9827304  41.3826033   4.1542235  20.0969419  41.9477676
   3.8492371  20.4115568  42.7987819   5.1072677  20.1750838  41.9905009
   2.5988667  26.2559642  43.5970630   2.0710028  25.5212401  43.2843867
   2.0976170  27.0334318  43.3510598   7.5781513  24.4508662  48.7137676
   6.9205187  25.1407924  48.8017805   8.3821912  24.8405094  49.0571662
   6.3886972  22.8053035  46.7641618   6.9018853  23.4383027  47.2663328
   7.0388196  22.2054231  46.3984978   3.6509346  32.7837359  39.5202289
   2.9771045  33.0869056  40.1287247   4.0375168  33.5866440  39.1707746
   2.8667803  20.2802491  49.0099958   1.9490364  20.5017438  48.8521646
   3.2827946  20.3548801  48.1511666   3.6502850  21.6793906  44.1402639
   4.3974669  22.1915303  43.8309761   3.9194440  21.3577959  45.0007032
   1.9229500  24.1752447  41.1229593   1.0140720  23.8911480  41.2202063
   1.9524584  24.5951526  40.2632900   7.1548768  27.7859036  44.8920760
   6.7011095  26.9449946  44.9485951   6.5242735  28.4220435  45.2295541
   6.0981687  18.7151023  46.1221428   5.3604444  18.2028409  46.4531671
   6.3508461  18.2751404  45.3104705   5.5981707  29.6235533  45.8270579
   5.8904682  30.1840590  45.1082944   6.1080328  29.9164094  46.5823738
   1.6205588  25.7161191  38.4617672   1.1825018  24.9997050  38.0023309
   2.3616029  25.9437305  37.9002763   0.5615332  30.4015884  46.9164032
   0.5191511  30.6276731  45.9872564   1.4778031  30.1679259  47.0649833
   4.0080966  20.8699952  53.8144661   4.3630354  21.0971425  54.6739127
   4.6553097  21.2018329  53.1921916   9.7378703  23.9918388  44.5193990
   9.5996602  24.1819984  43.5915179   9.3814922  24.7537771  44.9762041
   9.7648083  26.0594915  49.5305262  10.1984589  25.9670204  50.3788316
  10.4779663  26.0352415  48.8925278   3.4975978  29.6597009  51.0638362
   3.5513000  30.2287945  51.8316078   2.6290759  29.8298894  50.6992399
  10.6263632  26.1018615  52.0638147  10.8199522  27.0064426  52.3097422
  10.5264250  25.6426034  52.8976732   5.6878741  26.2525358  57.6379028
   5.5364247  26.0235910  56.7209111   5.6783420  27.2095960  57.6510373
   2.4564077  23.8257271  52.6225294   3.3856137  23.9768430  52.4494261
   2.0355107  23.9141292  51.7673941   1.8500561  32.9517032  41.7349368
   2.0252317  32.4805075  42.5494991   1.1633349  33.5782798  41.9630629
   2.8057624  27.2289538  47.7812669   2.4707457  27.1890308  48.6770319
   2.3061570  26.5634254  47.3083080   5.7416816  24.5745572  38.0549729
   5.1245987  23.8492400  37.9582782   5.2733304  25.3354933  37.7116803
   7.3970948  29.2844481  55.7155509   7.3383494  28.6003701  55.0486092
   7.7990466  30.0263471  55.2636135   7.3988355  27.2484065  53.9469489
   6.5115134  26.9109986  54.0695888   7.9686906  26.5167096  54.1838255
   0.9289508  31.9085517  50.9130732   0.8559680  32.7140488  51.4250037
   0.4866901  32.1077483  50.0878754   4.0275938  16.9551916  47.0667759
   4.5244637  16.2021879  46.7468830   3.2562919  16.9916233  46.5010969
  11.8805695  22.6592282  48.7086051  11.8695572  23.5416997  48.3379984
  11.0123075  22.3063833  48.5140588   3.3888192  31.8072351  53.0688891
   4.1016164  32.4419816  52.9964792   2.8978220  31.9036217  52.2528893
   5.1105719  25.7123604  44.6406183   4.1761997  25.8325066  44.4710887
   5.2882387  24.8096070  44.3766192   8.4978270  21.5540923  45.1756217
   8.9638722  22.3868915  45.1016519   8.9485770  21.0885905  45.8801475
   6.5654501  27.8984744  42.1742369   6.8414345  27.7841339  43.0836243
   5.6959000  27.5002229  42.1354542   6.2401391  22.1111402  51.7147012
   5.5872841  22.3587309  51.0599465   6.6181771  21.2975540  51.3809489
   3.2008565  32.1471095  45.8175182   3.3830960  31.3292751  46.2802935
   4.0241551  32.3638787  45.3800072   3.5350731  31.0739280  43.0790231
   4.0638497  30.5631735  42.4660393   3.7978950  30.7581810  43.9435764
   2.2888964  22.8531213  58.2013049   1.6129601  22.7525342  58.8715424
   3.1116598  22.6970427  58.6649046   1.0311747  34.1598140  52.4370665
   1.5830055  34.3229762  53.2019750   1.3717941  34.7502578  51.7650690
   5.8822621  28.9859398  58.2919320   6.4262525  29.5989356  57.7974274
   5.3009466  29.5438976  58.8086333   4.1680134  32.1080116  49.4234347
   4.0431274  31.3069856  48.9145293   4.8259226  32.6026309  48.9348317
   6.2315043  29.9089136  51.0513897   5.2845378  29.7894487  50.9792224
   6.5797816  29.0211634  51.1340159   3.2361476  29.7041852  47.2518250
   3.0886439  28.7758560  47.4325820   4.0614970  29.7261943  46.7675325
   6.8395598  30.5270411  48.3383122   7.7642145  30.3213272  48.2007574
   6.6710901  30.2786812  49.2472464   3.2322990  17.5579690  42.2450367
   3.4486605  18.4404328  41.9439195   2.7517058  17.1665903  41.5156009
   6.6290914  31.0456078  43.6945214   6.8027792  30.4802501  42.9419066
   7.1219805  31.8456973  43.5124704  12.4830305  23.8092501  45.3135514
  12.9261451  23.0599827  44.9154637  11.6056816  23.8002638  44.9309246
   7.6166087  30.3622843  40.7942112   8.3116991  30.9829535  41.0129427
   7.9589237  29.5118194  41.0694490   9.5157510  27.8122548  42.3229443
  10.0408834  28.1509821  41.5978763   9.4279862  26.8769564  42.1392578
   1.1777558  31.7256622  54.4519320   1.4864685  31.4805769  55.3242019
   1.9753040  31.9303260  53.9638190   1.1998171  33.8794532  46.6824696
   0.7603161  33.3870910  47.3757553   1.9506287  33.3367499  46.4416771
   9.2051416  28.4455452  57.6280641   8.4146960  28.4279591  57.0885140
   8.9684770  28.9843746  58.3829678   9.3249291  25.2947918  54.9413369
   9.3747296  25.1297926  55.8828892   9.2163214  24.4275177  54.5511250
   6.6153053  21.2778846  56.2572676   7.5162916  21.1385311  55.9656674
   6.6901028  21.4433301  57.1970854  10.8267488  27.7144860  55.1855391
  10.5352296  28.0774840  56.0218852  10.2139619  27.0011868  55.0068723
  12.0263170  25.2797740  47.7057961  12.8610061  25.7187544  47.8695522
  12.1622299  24.8036393  46.8866207   9.0754676  22.8377474  53.6535449
   9.5508798  23.0305121  52.8454300   8.1520241  22.8936660  53.4078833
   1.7080955  30.4684594  39.7017206   1.1354922  31.0874782  39.2487678
   2.2813749  31.0183956  40.2357128   7.7756345  19.7143235  51.8863755
   8.7273768  19.8141332  51.9075979   7.6059795  18.9221503  52.3961839
   5.7970724  16.7998818  52.0723156   5.2020657  17.0803831  51.3769644
   5.5120421  17.2892719  52.8439897   4.9278215  30.7521745  40.8325788
   5.8608888  30.6867306  41.0358664   4.8401428  31.5878011  40.3740321
   7.5566232  30.0687615  37.7929736   7.4779863  29.7347479  38.6865494
   8.3775898  30.5609383  37.7921208  10.2544423  22.9349354  51.0006054
  10.2220743  21.9965355  51.1865738  10.8645046  23.0133391  50.2671879
   2.0927754  21.8045407  37.0433258   3.0386858  21.6751615  37.1121676
   1.7141999  21.0660069  37.5202686  10.4038911  19.7260398  51.0464337
   9.8877960  18.9418854  50.8594266  11.2878860  19.3979114  51.2110857
   8.0649638  13.4701413  47.0060150   7.8674459  13.1616501  47.8903482
   8.6749344  14.1963052  47.1358080  16.0720973  23.9965361  50.1412091
  16.8024361  23.7350649  50.7019794  15.4627918  23.2594083  50.1814159
  14.1536270  22.1373224  50.7386542  13.4269433  22.0029189  50.1303034
  13.7383557  22.4450052  51.5443260   1.9766446  25.8563153  58.5033915
   2.8969456  26.0341752  58.6973962   1.9416029  24.9119199  58.3513615
   7.2002092  15.4610845  44.2635346   6.6200761  16.1195649  43.8813398
   6.9338025  14.6388190  43.8522763   5.6505658  14.8615903  46.4656666
   6.1505437  14.9732438  45.6570985   6.2941266  14.5576956  47.1057474
   5.9826970  17.6210936  43.3191694   5.0952825  17.9060586  43.1011889
   6.3980959  17.4604699  42.4718971   9.3341506  17.6457457  47.0346033
  10.1101896  18.1353909  47.3070650   8.6089640  18.0715511  47.4917903
  11.7714065  18.3585076  48.0919974  12.3658555  18.1180812  47.3813282
  11.8440648  17.6392206  48.7193510   5.1270183  27.3855610  37.4139714
   5.8306033  27.5905613  38.0297370   4.4032832  27.9532372  37.6788797
   5.9567994  23.1365472  43.5341984   5.9003195  23.5934023  42.6949617
   6.5096336  22.3756156  43.3564827   9.7672800  18.9255203  44.3592104
   9.5109734  18.5251839  45.1900311   9.1425668  19.6398997  44.2342243
  14.0785137  21.6651277  46.8663395  13.5184695  21.7344466  47.6394957
  13.4728641  21.4892261  46.1462891   7.0356881  27.8238140  39.4638174
   7.8702485  27.3919338  39.2815649   6.8741224  27.6520153  40.3915068
   6.6902773  24.3270253  40.8294513   6.6351577  24.1614524  39.8882957
   6.0648828  25.0346286  40.9856703   4.0048680  26.6319165  60.1548076
   4.8739840  26.8059817  59.7934711   3.5255432  27.4513582  60.0323805
  15.6641156  38.3407791  49.5593351  16.3019566  38.2214538  48.8556691
  15.5461999  39.2888635  49.6181303  12.4730862  38.2935219  49.4954875
  12.1349374  38.1776283  48.6075410  13.3420630  37.8926384  49.4755882
   8.3317678  40.1470695  45.4851766   7.7682543  40.0560632  44.7168054
   8.2170073  39.3270600  45.9654259  12.9550645  39.4470071  55.4541081
  12.9439286  39.0522869  54.5821585  13.1171285  38.7136143  56.0474852
   5.8782110  41.6421887  48.3235987   6.6703402  41.3012711  47.9082286
   6.1178760  41.7516862  49.2438140  13.9117237  43.8141663  40.7966231
  13.2605216  44.3995743  40.4100245  14.7061599  44.3447858  40.8561269
   7.8372864  40.9030800  41.1953366   8.6103740  40.3559787  41.0566241
   8.1898263  41.7675049  41.4067827   9.6757906  42.2307182  54.4020265
   9.3847772  43.1352813  54.2866931  10.3114891  42.2723710  55.1164335
  10.6014113  39.6084031  50.9921625  11.1977685  39.3840053  50.2778588
  10.6589085  38.8668776  51.5947072  10.1739142  37.0623466  38.8271816
  10.4264662  36.5404987  38.0655279   9.2363701  36.8989612  38.9298499
  15.2182424  36.0659245  46.6346559  16.0045514  35.6478668  46.2836976
  15.4821129  36.9705337  46.8028207  15.3892502  41.5032095  41.3335216
  14.7538335  41.5766721  42.0456120  15.0589908  42.0925694  40.6554295
  20.6190851  36.0034478  47.5379537  21.3516023  35.4333695  47.7717367
  19.8630207  35.6156078  47.9786043   9.8935430  38.9651572  41.0296191
   9.7771688  38.2896476  41.6977275  10.0037690  38.4783946  40.2128344
  12.2366971  38.4261719  44.7342880  11.8725178  37.8992340  45.4455801
  13.0934087  38.0360188  44.5609365  18.1416272  29.7156052  51.9974146
  17.8099597  30.5851463  51.7735361  17.5461885  29.3992336  52.6768176
  11.8772458  33.4551619  39.7304228  12.0446861  34.3231855  40.0974699
  11.6869627  33.6178901  38.8065518  14.6347791  41.9168598  51.3970059
  14.3348514  42.8193637  51.2885866  14.2898851  41.6500781  52.2491212
   8.0860273  38.3682395  47.4306763   7.1610769  38.2358609  47.6384455
   8.3344686  39.1476614  47.9276705  18.0344935  34.4351138  49.0767496
  17.1261812  34.3666546  48.7826257  17.9832531  34.9123083  49.9049321
  11.8561679  35.9109276  40.7150895  11.7361304  36.3566327  41.5536375
  11.1614267  36.2594594  40.1564433   5.4469084  38.0115668  48.2650552
   5.5761465  38.2650147  49.1789964   4.7666535  38.6043376  47.9455207
   9.6168571  48.6812918  44.3641026   9.5392601  49.6320743  44.4429507
   9.0130215  48.3358791  45.0215953  12.1085801  35.8540784  57.0202393
  11.3319135  36.4134704  57.0105258  12.7476364  36.3397567  57.5417263
  19.9006582  32.6367576  50.8545370  19.2580962  32.9300110  50.2085164
  19.3961510  32.5220497  51.6598567  17.5546745  36.3830750  41.5431229
  18.4664601  36.6158136  41.3678927  17.0456392  36.9667794  40.9806308
  10.3632173  38.6626237  56.5820360  11.1046858  39.2011281  56.3055184
   9.6569159  39.2892526  56.7391912  15.8387513  40.8055377  55.1792522
  16.2470869  40.3637788  54.4347154  15.1164774  40.2308005  55.4326715
  12.1918583  35.7427984  52.5526079  13.0379778  36.1667398  52.6960728
  12.1317221  35.0861609  53.2464642  16.1616327  41.3656568  48.9344811
  15.5325190  41.5302282  48.2320878  15.7741990  41.7798178  49.7055775
  20.0405559  42.3011006  46.2889174  19.3556598  42.6809907  45.7386208
  20.1249409  42.9106333  47.0221122  15.3418028  33.4032353  54.2107252
  15.0978960  34.1574413  53.6741528  15.6177959  33.7817700  55.0454499
  17.2956491  39.9470965  52.8884518  17.5073386  40.5902725  52.2118899
  17.2486239  39.1133281  52.4206448  14.8982720  32.5588786  49.7921090
  14.0367199  32.8570039  50.0837828  14.9245155  32.7759184  48.8602123
  11.7144289  41.1030976  46.1994896  12.1782635  41.3818679  45.4099518
  11.4501087  40.2014421  46.0167986   8.6068370  40.6502458  49.1374659
   9.1769728  41.0789726  48.4992143   9.1976482  40.3685042  49.8358845
  10.6513175  37.2254129  43.0084461  11.3537219  37.6775172  43.4758387
  10.3193804  36.5837947  43.6364354   9.0993537  35.8165885  57.3835670
   8.4692198  36.4982166  57.6171067   8.9929625  35.7048967  56.4388808
   4.3938509  35.4837681  48.3101594   3.6037563  35.7395210  47.8341705
   4.8849757  36.2986019  48.4153635  18.4102319  42.8242920  51.0606875
  19.2319763  42.4223108  50.7789557  18.4064722  42.7211155  52.0122991
   6.3453255  35.8482260  45.2685071   5.5484418  35.9600955  45.7868567
   6.1178847  36.1868913  44.4025962  12.1758922  42.3726964  53.2167586
  12.2403355  42.8347371  54.0525758  11.4669846  41.7424329  53.3449896
   2.6776212  35.7368172  50.7416585   2.9284251  36.6215182  51.0074161
   3.2135761  35.5572773  49.9691677  26.5008312  39.1681669  47.4091847
  25.7472020  38.5989067  47.2535851  26.6355853  39.1344333  48.3562481
  11.8906940  44.0395071  43.0846566  11.7552615  44.8846607  43.5131414
  12.4316753  44.2414349  42.3212500   8.3774280  30.1186651  59.7460921
   7.9841225  29.5652850  60.4208566   9.1940420  30.4297229  60.1367439
   5.3436337  41.5570509  43.6574491   5.8560858  42.3513759  43.8080056
   5.9959050  40.8596800  43.5908093   7.1531222  44.6736265  45.7397244
   7.3297850  45.5954230  45.5518228   7.9488056  44.3594685  46.1691624
  11.2942241  31.5344530  57.3381178  12.0351954  32.1351683  57.2585640
  11.5260163  30.7922168  56.7799220   6.4383579  36.7200897  55.6159408
   6.3237094  35.8186155  55.9166506   5.5828096  36.9664594  55.2644224
  13.5175416  44.6618638  57.2146908  13.0739271  43.8755016  56.8967813
  14.1792630  44.8497788  56.5490799   8.2762538  46.1914439  51.7407587
   8.8269963  46.0631503  50.9684581   7.4374014  46.4909328  51.3902479
  15.6156654  44.9421438  55.2428309  15.5975130  45.7630319  54.7508579
  16.5376575  44.8175513  55.4678451  12.0729709  42.4565567  56.0851818
  12.6058045  41.6953855  55.8551126  11.5443790  42.1639219  56.8275972
  15.2399404  27.5625633  51.6145460  14.8963673  28.4527275  51.5384570
  15.6078366  27.3727291  50.7515045   3.3085254  39.8859163  44.4334062
   4.1460476  40.2956172  44.2167769   3.4863522  38.9458606  44.4034256
  15.2049686  37.5534244  40.1217895  14.6896310  38.3238849  40.3606282
  14.9326995  36.8799380  40.7450956  12.7896797  32.3983945  45.1803133
  11.9338394  32.0090795  45.0008772  13.2023749  32.4775906  44.3202919
  14.3195944  29.9330288  49.5794693  13.8160740  29.8960423  48.7662498
  14.6126551  30.8423031  49.6391349  10.5638830  30.0169018  48.5860875
  11.4291827  29.8211827  48.2266764  10.6316339  29.7879370  49.5130231
  20.1783960  40.3066599  42.0571068  19.4013403  39.9677758  41.6126230
  20.8575441  40.3119222  41.3826033  14.9935990  35.4261336  41.9477676
  14.6886125  35.7407485  42.7987819  15.9466432  35.5042756  41.9905009
  13.4382421  41.5851560  43.5970630  12.9103783  40.8504319  43.2843867
  12.9369924  42.3626236  43.3510598  18.4175267  39.7800580  48.7137676
  17.7598942  40.4699841  48.8017805  19.2215667  40.1697012  49.0571662
   8.1701149  32.2471226  45.9577241   8.7444901  32.0246407  45.2250434
   8.7572131  32.3159920  46.7105843  17.2280726  38.1344953  46.7641618
  17.7412608  38.7674945  47.2663328  17.8781950  37.5346148  46.3984978
   8.4970736  34.2775687  39.9773127   7.6608048  34.6150373  40.2982401
   8.3575506  34.1424667  39.0400264  10.4723817  29.1212475  44.6852311
   9.8188229  28.8061492  44.0608926  10.4304291  28.4988215  45.4112134
  11.5835022  39.4031770  36.6005603  10.6762083  39.1721023  36.7996752
  12.0806054  38.6069389  36.7879584  14.4903100  48.1129277  39.5202289
  13.8164799  48.4160974  40.1287247  14.8768922  48.9158357  39.1707746
  13.7061557  35.6094408  49.0099958  12.7884118  35.8309355  48.8521646
  14.1221701  35.6840719  48.1511666  14.4896605  37.0085824  44.1402639
  15.2368424  37.5207221  43.8309761  14.7588194  36.6869877  45.0007032
  12.7623255  39.5044365  41.1229593  11.8534474  39.2203397  41.2202063
  12.7918339  39.9243443  40.2632900  17.9942522  43.1150954  44.8920760
  17.5404849  42.2741864  44.9485951  17.3636489  43.7512353  45.2295541
  16.9375442  34.0442940  46.1221428  16.1998199  33.5320326  46.4531671
  17.1902215  33.6043322  45.3104705  16.4375462  44.9527451  45.8270579
  16.7298436  45.5132508  45.1082944  16.9474082  45.2456012  46.5823738
  17.0387069  26.8219192  46.7163197  17.3445946  25.9616556  46.4289112
  17.7639674  27.4136812  46.5162191   3.3311425  37.2249879  45.1044795
   3.1335825  36.6319240  44.3795862   2.7758089  36.9202089  45.8220734
  11.3108149  37.1172985  47.2239388  11.3656759  36.1646822  47.1481865
  10.4999351  37.2732424  47.7080687  12.4599343  41.0453108  38.4617672
  12.0218773  40.3288967  38.0023309  13.2009784  41.2729223  37.9002763
   9.2500509  35.7350045  44.9829767   8.4368374  36.0344216  45.3894959
   9.7459503  35.3405734  45.7004249  11.4009087  45.7307802  46.9164032
  11.3585266  45.9568648  45.9872564  12.3171786  45.4971177  47.0649833
  14.8474721  36.1991869  53.8144661  15.2024108  36.4263343  54.6739127
  15.4946852  36.5310246  53.1921916  20.5772458  39.3210305  44.5193990
  20.4390356  39.5111901  43.5915179  20.2208676  40.0829688  44.9762041
   8.7414584  33.3068401  50.5991002   9.3813963  33.1657160  49.9013965
   7.9092114  33.0202914  50.2229604  20.6041837  41.3886832  49.5305262
  21.0378344  41.2962121  50.3788316  21.3173418  41.3644333  48.8925278
   9.5174888  42.6070831  46.7125995  10.3115486  42.1121151  46.5108570
   8.8066580  42.0788694  46.3493700  14.3369732  44.9888926  51.0638362
  14.3906754  45.5579863  51.8316078  13.4684513  45.1590812  50.6992399
   5.8257651  36.7513913  42.7885747   4.8955239  36.6898368  43.0055709
   5.9215123  36.2289865  41.9922388   5.7443200  33.2768726  45.3763989
   6.0050017  34.1914059  45.2673149   6.5660372  32.8093168  45.5260602
   7.2168125  34.6906483  52.5462813   7.8891179  34.4823845  51.8975462
   6.3897912  34.4928569  52.1068046  21.4657387  41.4310533  52.0638147
  21.6593277  42.3356344  52.3097422  21.3658005  40.9717952  52.8976732
  13.1193697  31.3168424  54.5628474  12.4721612  32.0158373  54.4692951
  13.8894713  31.7504568  54.9304723  16.5272495  41.5817276  57.6379028
  16.3758002  41.3527827  56.7209111  16.5177175  42.5387877  57.6510373
  13.2957832  39.1549189  52.6225294  14.2249892  39.3060348  52.4494261
  12.8748862  39.2433209  51.7673941  12.0946164  43.1799853  50.3923832
  11.9557249  42.8118637  51.2649770  11.3060760  43.6947492  50.2207789
  12.6894316  48.2808949  41.7349368  12.8646071  47.8096993  42.5494991
  12.0027104  48.9074716  41.9630629  13.6451379  42.5581456  47.7812669
  13.3101211  42.5182226  48.6770319  13.1455324  41.8926172  47.3083080
   7.6195623  37.9649086  53.3065251   7.4815421  37.2329325  53.9076790
   8.5300546  37.8757986  53.0249438  16.5810570  39.9037490  38.0549729
  15.9639741  39.1784318  37.9582782  16.1127059  40.6646850  37.7116803
  10.2477923  37.6769045  52.7948930  10.9577542  37.0362237  52.7535549
  10.2047232  37.9281940  53.7175111  18.2364702  44.6136398  55.7155509
  18.1777248  43.9295618  55.0486092  18.6384220  45.3555388  55.2636135
   8.9606857  34.6634263  54.6144570   8.4244214  34.2125001  55.2666166
   8.3723566  34.7980172  53.8715034   7.2555401  51.4298312  48.5089228
   7.4951999  52.0616836  49.1868247   6.4124597  51.0786352  48.7954588
   8.3709116  34.1222914  37.1771033   7.4938583  34.0011715  36.8133280
   8.8466869  33.3308993  36.9249922  18.2382109  42.5775982  53.9469489
  17.3508888  42.2401904  54.0695888  18.8080660  41.8459014  54.1838255
   4.6945979  33.7990271  51.6997564   4.6104167  33.1915940  50.9647974
   3.8728685  34.2899289  51.7007061  11.7683263  47.2377435  50.9130732
  11.6953434  48.0432406  51.4250037  11.3260656  47.4369400  50.0878754
  11.5573042  46.4749205  44.4233554  10.7740564  47.0170885  44.5171778
  12.2565788  46.9923184  44.8227795  14.8669692  32.2843834  47.0667759
  15.3638392  31.5313796  46.7468830  14.0956674  32.3208151  46.5010969
  22.7199450  37.9884200  48.7086051  22.7089326  38.8708915  48.3379984
  21.8516829  37.6355750  48.5140588  14.2281946  47.1364269  53.0688891
  14.9409918  47.7711733  52.9964792  13.7371975  47.2328135  52.2528893
  15.9499473  41.0415521  44.6406183  15.0155752  41.1616984  44.4710887
  16.1276142  40.1387988  44.3766192  11.4504661  34.4261217  46.7939444
  11.0802449  33.8732257  47.4820349  11.9463754  33.8219351  46.2414444
  19.3372024  36.8832841  45.1756217  19.8032477  37.7160832  45.1016519
  19.7879525  36.4177822  45.8801475   9.2793860  44.8858712  53.8894462
   9.9803319  45.5195195  54.0423856   8.8088975  45.2273444  53.1290101
  17.4048256  43.2276662  42.1742369  17.6808099  43.1133256  43.0836243
  16.5352754  42.8294147  42.1354542  17.3088687  29.2513428  49.2147118
  16.3951767  29.4817654  49.3829325  17.7381789  29.3351872  50.0661151
  17.0795146  37.4403320  51.7147012  16.4266596  37.6879227  51.0599465
  17.4575526  36.6267458  51.3809489  14.0402320  47.4763013  45.8175182
  14.2224714  46.6584669  46.2802935  14.8635306  47.6930705  45.3800072
  14.3744485  46.4031198  43.0790231  14.9032252  45.8923652  42.4660393
  14.6372705  46.0873728  43.9435764  13.1282719  38.1823131  58.2013049
  12.4523356  38.0817260  58.8715424  13.9510353  38.0262344  58.6649046
   4.8761578  44.4195067  50.8225564   5.4615015  43.6738755  50.9553469
   4.6786416  44.7299024  51.7062228   7.7300233  47.4546315  45.8388007
   7.0610608  47.9392442  45.3552047   7.5913103  47.7015535  46.7531385
  11.8705502  49.4890058  52.4370665  12.4223810  49.6521680  53.2019750
  12.2111695  50.0794496  51.7650690   6.8469995  31.8365208  53.0392550
   6.9111321  32.6980039  52.6269948   6.7837115  31.2239210  52.3064908
   6.3222267  33.9088340  56.6865584   6.9494306  33.5265418  57.3003109
   5.4650186  33.6902542  57.0521277  16.7216376  44.3151316  58.2919320
  17.2656280  44.9281274  57.7974274  16.1403221  44.8730894  58.8086333
   3.0987810  35.7164770  42.6183939   3.3941251  34.8075448  42.5650993
   2.1975846  35.6952509  42.2964941  15.0073889  47.4372034  49.4234347
  14.8825028  46.6361773  48.9145293  15.6652980  47.9318227  48.9348317
   6.6282057  33.7920766  48.6011488   5.9068643  34.4056734  48.4618961
   7.4175313  34.3278531  48.5228134  17.0708797  45.2381054  51.0513897
  16.1239133  45.1186405  50.9792224  17.4191570  44.3503552  51.1340159
   9.4308371  31.1275193  54.8752139   9.9542772  31.3737489  55.6378449
   9.2120704  31.9595227  54.4555277   4.8275652  33.3978867  42.7423264
   4.4988358  32.5176246  42.5598370   5.1815022  33.3426536  43.6299653
  14.0755231  45.0333770  47.2518250  13.9280193  44.1050477  47.4325820
  14.9008724  45.0553861  46.7675325   7.9417475  33.6851837  43.1098742
   8.2813547  34.2137758  42.3877350   8.3889595  34.0232243  43.8857308
  17.6789352  45.8562329  48.3383122  18.6035900  45.6505190  48.2007574
  17.5104656  45.6078730  49.2472464  10.6360916  32.0688888  52.5601810
  10.2957736  31.2696701  52.9622490   9.9299922  32.3690599  51.9878643
  11.2877388  29.1538200  51.0129133  12.1103457  28.6798678  50.8908023
  11.5315451  29.9328684  51.5127819   9.9285622  32.1826459  41.3092035
  10.6493985  32.5607711  40.8055751   9.3050926  32.9015335  41.4127013
  14.0716745  32.8871608  42.2450367  14.2880359  33.7696245  41.9439195
  13.5910812  32.4957821  41.5156009   8.8115966  35.8457321  48.8221112
   8.6660547  36.1597624  49.7145393   8.3341170  36.4642221  48.2692010
  10.6712349  32.8359869  48.8702001  10.6573918  31.9400962  48.5334299
  11.3884777  32.8430533  49.5040287  12.5238480  33.2697209  50.9155129
  12.2656258  34.1914280  50.9139459  11.9923520  32.8727644  51.6055593
  17.4684669  46.3747996  43.6945214  17.6421546  45.8094419  42.9419066
  17.9613560  47.1748891  43.5124704   3.2861628  38.3862665  51.7608773
   2.7415097  39.1622473  51.8929047   4.1640978  38.7333470  51.6027894
  10.0749245  31.7174249  44.1389571  10.1965156  30.7890895  44.3380459
   9.7851287  31.7312935  43.2267887  12.9440435  29.4029159  47.2756291
  12.9662132  29.4668493  46.3208271  13.3608495  28.5633668  47.4696797
  23.3224060  39.1384419  45.3135514  23.7655206  38.3891744  44.9154637
  22.4450570  39.1294555  44.9309246  18.4559841  45.6914760  40.7942112
  19.1510746  46.3121453  41.0129427  18.7982991  44.8410112  41.0694490
   4.0727650  37.5132561  54.6538930   3.3309386  37.6615197  55.2403560
   3.7520395  37.7740827  53.7905679  20.3551264  43.1414466  42.3229443
  20.8802588  43.4801739  41.5978763  20.2673617  42.2061481  42.1392578
  12.0171313  47.0548540  54.4519320  12.3258439  46.8097686  55.3242019
  12.8146795  47.2595178  53.9638190  12.0391925  49.2086449  46.6824696
  11.5996915  48.7162828  47.3757553  12.7900042  48.6659417  46.4416771
   4.5184264  45.3997990  46.6849324   5.3442284  45.1001762  46.3047968
   4.1678316  44.6305613  47.1339113   9.4865797  44.7524458  48.7546998
   8.8645806  44.0895163  48.4549226  10.1570664  44.7785590  48.0720646
   2.7192869  43.3184317  47.6438258   1.8824777  42.8906491  47.4622259
   2.6916514  43.5116760  48.5809049   9.5590325  33.2306246  58.3479504
   9.6078480  34.1068369  57.9657273  10.1012839  32.6883639  57.7751147
  20.0445170  43.7747370  57.6280641  19.2540714  43.7571509  57.0885140
  19.8078525  44.3135663  58.3829678  20.1643045  40.6239836  54.9413369
  20.2141050  40.4589843  55.8828892  20.0556969  39.7567095  54.5511250
   9.0479304  43.3028382  42.2305458   9.1967424  43.9863846  41.5772131
   9.8545748  43.2833472  42.7454914  17.4546808  36.6070764  56.2572676
  18.3556671  36.4677229  55.9656674  17.5294782  36.7725219  57.1970854
  11.7889613  33.9837619  55.1025862  10.9192922  34.2771185  54.8308451
  12.0249093  34.5678064  55.8233126  21.6661242  43.0436778  55.1855391
  21.3746051  43.4066758  56.0218852  21.0533373  42.3303786  55.0068723
  22.8656925  40.6089657  47.7057961  23.7003816  41.0479461  47.8695522
  23.0016053  40.1328311  46.8866207  19.9148430  38.1669392  53.6535449
  20.3902552  38.3597038  52.8454300  18.9913996  38.2228578  53.4078833
   6.8031937  39.3293559  43.2366527   6.5577979  38.4255889  43.4346737
   6.9727852  39.3310710  42.2946005  14.4928647  30.2017236  52.6191283
  15.0110591  30.9378263  52.2937771  14.1383780  30.5081229  53.4538042
   6.0727585  35.0621917  40.7352689   5.3796830  35.1366272  40.0792725
   5.8279336  34.2982261  41.2574206  14.7441241  26.6217518  48.1392179
  15.0242995  25.9540707  48.7652606  15.5291848  26.8146614  47.6266843
  12.5474710  45.7976512  39.7017206  11.9748677  46.4166699  39.2487678
  13.1207503  46.3475874  40.2357128  18.6150099  35.0435152  51.8863755
  19.5667522  35.1433250  51.9075979  18.4453550  34.2513421  52.3961839
  16.6364479  32.1290735  52.0723156  16.0414411  32.4095748  51.3769644
  16.3514176  32.6184636  52.8439897  15.7671969  46.0813662  40.8325788
  16.7002643  46.0159224  41.0358664  15.6795182  46.9169929  40.3740321
  18.3959986  45.3979533  37.7929736  18.3173618  45.0639396  38.6865494
  19.2169653  45.8901301  37.7921208  21.0938177  38.2641272  51.0006054
  21.0614497  37.3257273  51.1865738  21.7038801  38.3425309  50.2671879
  12.9321508  37.1337325  37.0433258  13.8780613  37.0043533  37.1121676
  12.5535753  36.3951987  37.5202686  21.2432666  35.0552315  51.0464337
  20.7271714  34.2710772  50.8594266  22.1272614  34.7271032  51.2110857
  18.9043393  28.7993331  47.0060150  18.7068214  28.4908419  47.8903482
  19.5143098  29.5254970  47.1358080  26.9114727  39.3257279  50.1412091
  27.6418116  39.0642567  50.7019794  26.3021673  38.5886001  50.1814159
  24.9930024  37.4665141  50.7386542  24.2663188  37.3321106  50.1303034
  24.5777311  37.7741970  51.5443260  12.8160201  41.1855071  58.5033915
  13.7363210  41.3633670  58.6973962  12.7809784  40.2411116  58.3513615
  11.1164425  35.0587301  36.9788144  10.2095881  34.7620414  37.0550857
  11.3940406  34.7617119  36.1122430   2.0342366  36.3793665  47.4287190
   1.7145150  35.5258973  47.1361564   1.4875794  36.5942243  48.1845157
   5.8122273  39.0956106  51.1456696   6.0308283  40.0273214  51.1644730
   6.2248047  38.7364080  51.9311500  12.7326491  29.6024191  43.1332385
  11.9227219  29.2571276  43.5087631  13.4210908  29.2931735  43.7219996
  14.6617039  28.6802238  44.7556681  15.2148078  29.0997691  45.4146705
  14.8987126  27.7537986  44.7979637  10.6850138  34.6689311  60.5359445
  10.5846865  35.6183668  60.4671536  10.4671681  34.3407550  59.6635515
   9.8863210  31.9174237  37.1200123  10.7482374  32.2429135  37.3795940
  10.0713554  31.1305732  36.6073188   1.9030626  39.9996576  49.3980311
   1.2094097  39.5850529  48.8850266   2.6503617  40.0417113  48.8013730
  18.0395846  30.7902763  44.2635346  17.4594515  31.4487567  43.8813398
  17.7731779  29.9680108  43.8522763  16.4899413  30.1907821  46.4656666
  16.9899191  30.3024355  45.6570985  17.1335021  29.8868874  47.1057474
  10.5481409  38.0986450  59.3524507  10.0648490  38.8986810  59.5588396
  10.6342348  38.1094395  58.3991951   3.8167368  39.9314830  47.2746326
   3.7938056  40.0302517  46.3228209   4.1268005  40.7779981  47.5963492
   6.4754746  41.9890985  51.3892941   7.4298000  41.9574927  51.3222872
   6.2767270  41.5281609  52.2043167   7.0654128  40.5592101  53.9563738
   7.8847017  41.0536180  53.9798576   7.3390936  39.6424069  53.9281306
  16.8220724  32.9502853  43.3191694  15.9346579  33.2352504  43.1011889
  17.2374713  32.7896617  42.4718971  20.1735261  32.9749374  47.0346033
  20.9495651  33.4645827  47.3070650  19.4483395  33.4007429  47.4917903
  22.6107819  33.6876994  48.0919974  23.2052310  33.4472730  47.3813282
  22.6834403  32.9684124  48.7193510   4.8304975  47.5310605  48.4063139
   4.6959443  46.7711005  47.8401137   4.4137037  48.2551504  47.9391928
  15.9663938  42.7147528  37.4139714  16.6699788  42.9197531  38.0297370
  15.2426587  43.2824290  37.6788797  16.7961748  38.4657389  43.5341984
  16.7396950  38.9225941  42.6949617  17.3490091  37.7048074  43.3564827
  20.6066554  34.2547121  44.3592104  20.3503488  33.8543757  45.1900311
  19.9819422  34.9690915  44.2342243  24.9178892  36.9943194  46.8663395
  24.3578450  37.0636384  47.6394957  24.3122395  36.8184179  46.1462891
   7.9874101  48.4279922  48.6181581   7.8706485  49.3725354  48.5160272
   7.1666547  48.1253483  49.0067381  17.8750635  43.1530057  39.4638174
  18.7096239  42.7211256  39.2815649  17.7134978  42.9812071  40.3915068
  17.5296527  39.6562171  40.8294513  17.4745331  39.4906442  39.8882957
  16.9042583  40.3638203  40.9856703   2.3189042  34.8930235  54.6555936
   2.9647906  34.3829189  55.1443161   2.1106194  35.6298917  55.2299361
  14.8442435  41.9611082  60.1548076  15.7133594  42.1351735  59.7934711
  14.3649186  42.7805499  60.0323805  10.8392653  29.1570280  40.4079832
  10.8271323  30.1012119  40.5648103  11.7316075  28.9740425  40.1139293
   9.0128615  49.0808183  51.8337510   9.9155862  49.1131794  52.1504005
   8.7865985  48.1508634  51.8483846  10.7682217  47.8339170  48.4947588
   9.8177848  47.8341032  48.3811961  11.0714703  47.0871905  47.9783623
  14.6544772  25.7513056  44.6625769  13.8877168  25.1971543  44.8082451
  15.0655477  25.8234925  45.5239920   6.6586533  32.0397852  58.7530950
   7.5217995  31.6834657  58.9634274   6.0851944  31.7011747  59.4406354
  26.5034910  53.6699708  49.5593351  27.1413320  53.5506456  48.8556691
  26.3855753  54.6180552  49.6181303  23.3124617  53.6227136  49.4954875
  22.9743128  53.5068201  48.6075410  24.1814385  53.2218302  49.4755882
  19.1711432  55.4762613  45.4851766  18.6076297  55.3852550  44.7168054
  19.0563827  54.6562517  45.9654259  23.7944400  54.7761988  55.4541081
  23.7833040  54.3814786  54.5821585  23.9565039  54.0428061  56.0474852
  16.7175864  56.9713804  48.3235987  17.5097156  56.6304629  47.9082286
  16.9572514  57.0808780  49.2438140  24.7510991  59.1433581  40.7966231
  24.0998971  59.7287661  40.4100245  25.5455354  59.6739775  40.8561269
  18.6766618  56.2322718  41.1953366  19.4497494  55.6851705  41.0566241
  19.0292017  57.0966967  41.4067827  20.5151661  57.5599100  54.4020265
  20.2241527  58.4644731  54.2866931  21.1508645  57.6015628  55.1164335
  21.4407868  54.9375949  50.9921625  22.0371440  54.7131971  50.2778588
  21.4982839  54.1960694  51.5947072  21.0132896  52.3915384  38.8271816
  21.2658417  51.8696905  38.0655279  20.0757455  52.2281529  38.9298499
  26.0576179  51.3951162  46.6346559  26.8439268  50.9770585  46.2836976
  26.3214883  52.2997254  46.8028207  26.2286256  56.8324013  41.3335216
  25.5932089  56.9058639  42.0456120  25.8983663  57.4217611  40.6554295
  31.4584606  51.3326395  47.5379537  32.1909778  50.7625612  47.7717367
  30.7023962  50.9447996  47.9786043  20.7329185  54.2943490  41.0296191
  20.6165443  53.6188393  41.6977275  20.8431445  53.8075864  40.2128344
  23.0760726  53.7553637  44.7342880  22.7118933  53.2284258  45.4455801
  23.9327842  53.3652106  44.5609365  28.9810026  45.0447970  51.9974146
  28.6493351  45.9143380  51.7735361  28.3855640  44.7284254  52.6768176
  22.7166213  48.7843537  39.7304228  22.8840615  49.6523773  40.0974699
  22.5263382  48.9470818  38.8065518  25.4741546  57.2460516  51.3970059
  25.1742269  58.1485554  51.2885866  25.1292605  56.9792699  52.2491212
  18.9254027  53.6974312  47.4306763  18.0004524  53.5650526  47.6384455
  19.1738441  54.4768532  47.9276705  28.8738690  49.7643056  49.0767496
  27.9655567  49.6958464  48.7826257  28.8226285  50.2415001  49.9049321
  22.6955434  51.2401194  40.7150895  22.5755059  51.6858245  41.5536375
  22.0008022  51.5886512  40.1564433  16.2862838  53.3407586  48.2650552
  16.4155220  53.5942065  49.1789964  15.6060290  53.9335294  47.9455207
  20.4562326  64.0104836  44.3641026  20.3786355  64.9612661  44.4429507
  19.8523969  63.6650708  45.0215953  22.9479555  51.1832701  57.0202393
  22.1712889  51.7426621  57.0105258  23.5870118  51.6689484  57.5417263
  30.7400336  47.9659494  50.8545370  30.0974716  48.2592027  50.2085164
  30.2355265  47.8512414  51.6598567  28.3940500  51.7122667  41.5431229
  29.3058356  51.9450054  41.3678927  27.8850147  52.2959711  40.9806308
  21.2025928  53.9918155  56.5820360  21.9440612  54.5303199  56.3055184
  20.4962913  54.6184443  56.7391912  26.6781267  56.1347295  55.1792522
  27.0864623  55.6929706  54.4347154  25.9558529  55.5599923  55.4326715
  23.0312337  51.0719902  52.5526079  23.8773533  51.4959315  52.6960728
  22.9710975  50.4153526  53.2464642  27.0010082  56.6948486  48.9344811
  26.3718944  56.8594200  48.2320878  26.6135744  57.1090095  49.7055775
  30.8799314  57.6302924  46.2889174  30.1950352  58.0101825  45.7386208
  30.9643163  58.2398250  47.0221122  26.1811783  48.7324270  54.2107252
  25.9372715  49.4866331  53.6741528  26.4571713  49.1109618  55.0454499
  28.1350245  55.2762883  52.8884518  28.3467141  55.9194643  52.2118899
  28.0879994  54.4425199  52.4206448  25.7376474  47.8880703  49.7921090
  24.8760953  48.1861957  50.0837828  25.7638909  48.1051102  48.8602123
  22.5538044  56.4322894  46.1994896  23.0176389  56.7110597  45.4099518
  22.2894842  55.5306338  46.0167986  19.4462125  55.9794375  49.1374659
  20.0163482  56.4081644  48.4992143  20.0370237  55.6976960  49.8358845
  21.4906930  52.5546046  43.0084461  22.1930973  53.0067090  43.4758387
  21.1587558  51.9129865  43.6364354  19.9387291  51.1457803  57.3835670
  19.3085952  51.8274084  57.6171067  19.8323379  51.0340884  56.4388808
  15.2332264  50.8129599  48.3101594  14.4431318  51.0687127  47.8341705
  15.7243511  51.6277937  48.4153635  29.2496073  58.1534838  51.0606875
  30.0713517  57.7515025  50.7789557  29.2458476  58.0503072  52.0122991
  17.1847009  51.1774178  45.2685071  16.3878173  51.2892872  45.7868567
  16.9572601  51.5160830  44.4025962  23.0152677  57.7018881  53.2167586
  23.0797109  58.1639289  54.0525758  22.3063601  57.0716246  53.3449896
  13.5169967  51.0660089  50.7416585  13.7678005  51.9507099  51.0074161
  14.0529515  50.8864691  49.9691677  37.3402066  54.4973587  47.4091847
  36.5865775  53.9280985  47.2535851  37.4749608  54.4636251  48.3562481
  22.7300695  59.3686989  43.0846566  22.5946369  60.2138525  43.5131414
  23.2710507  59.5706266  42.3212500  19.2168034  45.4478569  59.7460921
  18.8234980  44.8944767  60.4208566  20.0334174  45.7589147  60.1367439
  16.1830092  56.8862427  43.6574491  16.6954612  57.6805677  43.8080056
  16.8352805  56.1888717  43.5908093  17.9924977  60.0028183  45.7397244
  18.1691605  60.9246148  45.5518228  18.7881810  59.6886602  46.1691624
  22.1335995  46.8636448  57.3381178  22.8745709  47.4643601  57.2585640
  22.3653918  46.1214086  56.7799220  17.2777333  52.0492815  55.6159408
  17.1630848  51.1478072  55.9166506  16.4221851  52.2956512  55.2644224
  24.3569171  59.9910555  57.2146908  23.9133025  59.2046934  56.8967813
  25.0186384  60.1789706  56.5490799  19.1156292  61.5206357  51.7407587
  19.6663717  61.3923420  50.9684581  18.2767768  61.8201246  51.3902479
  26.4550409  60.2713355  55.2428309  26.4368884  61.0922236  54.7508579
  27.3770329  60.1467430  55.4678451  22.9123463  57.7857485  56.0851818
  23.4451800  57.0245773  55.8551126  22.3837544  57.4931137  56.8275972
  26.0793158  42.8917551  51.6145460  25.7357427  43.7819192  51.5384570
  26.4472121  42.7019208  50.7515045  14.1479009  55.2151081  44.4334062
  14.9854231  55.6248090  44.2167769  14.3257276  54.2750523  44.4034256
  26.0443441  52.8826162  40.1217895  25.5290064  53.6530766  40.3606282
  25.7720749  52.2091298  40.7450956  23.6290552  47.7275863  45.1803133
  22.7732148  47.3382713  45.0008772  24.0417504  47.8067823  44.3202919
  25.1589698  45.2622206  49.5794693  24.6554494  45.2252341  48.7662498
  25.4520305  46.1714949  49.6391349  21.4032584  45.3460936  48.5860875
  22.2685581  45.1503744  48.2266764  21.4710093  45.1171287  49.5130231
  31.0177715  55.6358516  42.0571068  30.2407158  55.2969676  41.6126230
  31.6969196  55.6411140  41.3826033  25.8329744  50.7553254  41.9477676
  25.5279880  51.0699403  42.7987819  26.7860186  50.8334674  41.9905009
  24.2776176  56.9143477  43.5970630  23.7497537  56.1796237  43.2843867
  23.7763679  57.6918154  43.3510598  29.2569022  55.1092498  48.7137676
  28.5992696  55.7991759  48.8017805  30.0609421  55.4988930  49.0571662
  19.0094903  47.5763144  45.9577241  19.5838655  47.3538325  45.2250434
  19.5965886  47.6451838  46.7105843  28.0674481  53.4636870  46.7641618
  28.5806362  54.0966862  47.2663328  28.7175705  52.8638066  46.3984978
  19.3364491  49.6067605  39.9773127  18.5001803  49.9442291  40.2982401
  19.1969260  49.4716584  39.0400264  21.3117571  44.4504392  44.6852311
  20.6581984  44.1353410  44.0608926  21.2698045  43.8280133  45.4112134
  22.4228776  54.7323687  36.6005603  21.5155838  54.5012941  36.7996752
  22.9199808  53.9361307  36.7879584  25.3296855  63.4421195  39.5202289
  24.6558554  63.7452891  40.1287247  25.7162677  64.2450275  39.1707746
  24.5455312  50.9386326  49.0099958  23.6277873  51.1601273  48.8521646
  24.9615455  51.0132636  48.1511666  25.3290359  52.3377742  44.1402639
  26.0762178  52.8499139  43.8309761  25.5981949  52.0161794  45.0007032
  23.6017009  54.8336282  41.1229593  22.6928229  54.5495315  41.2202063
  23.6312093  55.2535361  40.2632900  28.8336277  58.4442872  44.8920760
  28.3798604  57.6033782  44.9485951  28.2030244  59.0804270  45.2295541
  27.7769196  49.3734858  46.1221428  27.0391953  48.8612244  46.4531671
  28.0295970  48.9335239  45.3104705  27.2769216  60.2819369  45.8270579
  27.5692190  60.8424426  45.1082944  27.7867837  60.5747930  46.5823738
  27.8780824  42.1511110  46.7163197  28.1839701  41.2908473  46.4289112
  28.6033429  42.7428730  46.5162191  14.1705180  52.5541796  45.1044795
  13.9729580  51.9611157  44.3795862  13.6151844  52.2494007  45.8220734
  22.1501904  52.4464903  47.2239388  22.2050513  51.4938739  47.1481865
  21.3393106  52.6024342  47.7080687  23.2993097  56.3745026  38.4617672
  22.8612527  55.6580885  38.0023309  24.0403538  56.6021141  37.9002763
  20.0894263  51.0641963  44.9829767  19.2762129  51.3636133  45.3894959
  20.5853258  50.6697651  45.7004249  22.2402841  61.0599720  46.9164032
  22.1979020  61.2860566  45.9872564  23.1565540  60.8263094  47.0649833
  25.6868475  51.5283787  53.8144661  26.0417863  51.7555260  54.6739127
  26.3340606  51.8602164  53.1921916  31.4166212  54.6502223  44.5193990
  31.2784111  54.8403819  43.5915179  31.0602431  55.4121606  44.9762041
  19.5808338  48.6360318  50.5991002  20.2207718  48.4949077  49.9013965
  18.7485869  48.3494832  50.2229604  31.4435592  56.7178750  49.5305262
  31.8772098  56.6254039  50.3788316  32.1567172  56.6936251  48.8925278
  20.3568642  57.9362749  46.7125995  21.1509241  57.4413069  46.5108570
  19.6460334  57.4080612  46.3493700  25.1763487  60.3180844  51.0638362
  25.2300509  60.8871780  51.8316078  24.3078268  60.4882729  50.6992399
  16.6651406  52.0805830  42.7885747  15.7348994  52.0190286  43.0055709
  16.7608878  51.5581783  41.9922388  16.5836955  48.6060643  45.3763989
  16.8443772  49.5205976  45.2673149  17.4054127  48.1385086  45.5260602
  18.0561880  50.0198400  52.5462813  18.7284933  49.8115763  51.8975462
  17.2291666  49.8220486  52.1068046  32.3051141  56.7602451  52.0638147
  32.4987031  57.6648261  52.3097422  32.2051759  56.3009870  52.8976732
  23.9587452  46.6460341  54.5628474  23.3115367  47.3450291  54.4692951
  24.7288467  47.0796485  54.9304723  27.3666250  56.9109193  57.6379028
  27.2151756  56.6819745  56.7209111  27.3570929  57.8679795  57.6510373
  24.1351586  54.4841106  52.6225294  25.0643646  54.6352266  52.4494261
  23.7142616  54.5725127  51.7673941  22.9339918  58.5091771  50.3923832
  22.7951004  58.1410555  51.2649770  22.1454514  59.0239410  50.2207789
  23.5288070  63.6100867  41.7349368  23.7039826  63.1388910  42.5494991
  22.8420858  64.2366633  41.9630629  24.4845133  57.8873373  47.7812669
  24.1494966  57.8474143  48.6770319  23.9849079  57.2218089  47.3083080
  18.4589377  53.2941003  53.3065251  18.3209175  52.5621242  53.9076790
  19.3694301  53.2049903  53.0249438  27.4204325  55.2329408  38.0549729
  26.8033496  54.5076236  37.9582782  26.9520813  55.9938768  37.7116803
  21.0871678  53.0060963  52.7948930  21.7971296  52.3654155  52.7535549
  21.0440986  53.2573858  53.7175111  29.0758457  59.9428316  55.7155509
  29.0171003  59.2587536  55.0486092  29.4777975  60.6847306  55.2636135
  19.8000612  49.9926181  54.6144570  19.2637969  49.5416919  55.2666166
  19.2117320  50.1272089  53.8715034  18.0949155  66.7590230  48.5089228
  18.3345754  67.3908754  49.1868247  17.2518352  66.4078270  48.7954588
  19.2102871  49.4514832  37.1771033  18.3332337  49.3303633  36.8133280
  19.6860624  48.6600910  36.9249922  29.0775864  57.9067900  53.9469489
  28.1902643  57.5693822  54.0695888  29.6474415  57.1750931  54.1838255
  10.7305011  54.2391992  47.2712541  11.4176051  53.9253722  46.6833556
  10.5753140  55.1433356  46.9979792  15.5339733  49.1282188  51.6997564
  15.4497922  48.5207858  50.9647974  14.7122439  49.6191207  51.7007061
  22.6077017  62.5669352  50.9130732  22.5347189  63.3724324  51.4250037
  22.1654410  62.7661318  50.0878754  22.3966797  61.8041122  44.4233554
  21.6134319  62.3462803  44.5171778  23.0959542  62.3215102  44.8227795
  25.7063447  47.6135752  47.0667759  26.2032146  46.8605714  46.7468830
  24.9350428  47.6500068  46.5010969  33.5593204  53.3176117  48.7086051
  33.5483081  54.2000833  48.3379984  32.6910584  52.9647668  48.5140588
  25.0675701  62.4656186  53.0688891  25.7803673  63.1003651  52.9964792
  24.5765729  62.5620052  52.2528893  26.7893228  56.3707439  44.6406183
  25.8549506  56.4908901  44.4710887  26.9669896  55.4679906  44.3766192
  22.2898416  49.7553135  46.7939444  21.9196203  49.2024175  47.4820349
  22.7857508  49.1511268  46.2414444  30.1765779  52.2124758  45.1756217
  30.6426231  53.0452750  45.1016519  30.6273279  51.7469740  45.8801475
  20.1187614  60.2150630  53.8894462  20.8197074  60.8487113  54.0423856
  19.6482729  60.5565361  53.1290101  28.2442010  58.5568580  42.1742369
  28.5201854  58.4425174  43.0836243  27.3746509  58.1586064  42.1354542
  28.1482442  44.5805345  49.2147118  27.2345522  44.8109572  49.3829325
  28.5775543  44.6643789  50.0661151  27.9188900  52.7695237  51.7147012
  27.2660350  53.0171145  51.0599465  28.2969280  51.9559375  51.3809489
  24.8796074  62.8054930  45.8175182  25.0618469  61.9876586  46.2802935
  25.7029060  63.0222623  45.3800072  25.2138240  61.7323116  43.0790231
  25.7426006  61.2215570  42.4660393  25.4766459  61.4165646  43.9435764
  23.9676473  53.5115048  58.2013049  23.2917110  53.4109178  58.8715424
  24.7904107  53.3554262  58.6649046  15.7155332  59.7486985  50.8225564
  16.3008769  59.0030673  50.9553469  15.5180171  60.0590942  51.7062228
  18.5693988  62.7838232  45.8388007  17.9004363  63.2684360  45.3552047
  18.4306857  63.0307453  46.7531385  10.3072987  52.3192585  49.5430008
  10.3457087  51.7856176  50.3367126   9.8013280  51.7927791  48.9240985
  22.7099256  64.8181976  52.4370665  23.2617564  64.9813597  53.2019750
  23.0505450  65.4086414  51.7650690  17.6863749  47.1657126  53.0392550
  17.7505076  48.0271956  52.6269948  17.6230870  46.5531127  52.3064908
  17.1616022  49.2380258  56.6865584  17.7888061  48.8557335  57.3003109
  16.3043941  49.0194460  57.0521277  27.5610130  59.6443233  58.2919320
  28.1050034  60.2573192  57.7974274  26.9796975  60.2022812  58.8086333
  13.9381565  51.0456687  42.6183939  14.2335006  50.1367366  42.5650993
  13.0369600  51.0244427  42.2964941  25.8467643  62.7663951  49.4234347
  25.7218783  61.9653691  48.9145293  26.5046735  63.2610145  48.9348317
  17.4675812  49.1212684  48.6011488  16.7462397  49.7348651  48.4618961
  18.2569067  49.6570449  48.5228134  27.9102552  60.5672971  51.0513897
  26.9632887  60.4478323  50.9792224  28.2585325  59.6795469  51.1340159
  20.2702125  46.4567110  54.8752139  20.7936527  46.7029407  55.6378449
  20.0514458  47.2887145  54.4555277  15.6669406  48.7270785  42.7423264
  15.3382112  47.8468164  42.5598370  16.0208777  48.6718454  43.6299653
  24.9148985  60.3625688  47.2518250  24.7673948  59.4342395  47.4325820
  25.7402479  60.3845778  46.7675325  18.7811229  49.0143755  43.1098742
  19.1207302  49.5429676  42.3877350  19.2283350  49.3524161  43.8857308
  28.5183107  61.1854246  48.3383122  29.4429654  60.9797108  48.2007574
  28.3498410  60.9370647  49.2472464  21.4754670  47.3980805  52.5601810
  21.1351491  46.5988618  52.9622490  20.7693676  47.6982516  51.9878643
  22.1271142  44.4830118  51.0129133  22.9497211  44.0090596  50.8908023
  22.3709206  45.2620602  51.5127819  20.7679377  47.5118376  41.3092035
  21.4887739  47.8899629  40.8055751  20.1444681  48.2307253  41.4127013
  24.9110499  48.2163525  42.2450367  25.1274114  49.0988163  41.9439195
  24.4304567  47.8249739  41.5156009  19.6509721  51.1749238  48.8221112
  19.5054301  51.4889542  49.7145393  19.1734924  51.7934139  48.2692010
  21.5106104  48.1651786  48.8702001  21.4967672  47.2692880  48.5334299
  22.2278532  48.1722450  49.5040287  23.3632234  48.5989127  50.9155129
  23.1050012  49.5206197  50.9139459  22.8317275  48.2019561  51.6055593
  28.3078423  61.7039914  43.6945214  28.4815301  61.1386336  42.9419066
  28.8007314  62.5040809  43.5124704  14.1255383  53.7154583  51.7608773
  13.5808851  54.4914391  51.8929047  15.0034733  54.0625387  51.6027894
  20.9143000  47.0466167  44.1389571  21.0358911  46.1182813  44.3380459
  20.6245042  47.0604853  43.2267887  23.7834190  44.7321077  47.2756291
  23.8055887  44.7960410  46.3208271  24.2002249  43.8925586  47.4696797
  34.1617814  54.4676337  45.3135514  34.6048960  53.7183662  44.9154637
  33.2844325  54.4586473  44.9309246  29.2953596  61.0206678  40.7942112
  29.9904500  61.6413371  41.0129427  29.6376746  60.1702029  41.0694490
  14.9121405  52.8424479  54.6538930  14.1703141  52.9907114  55.2403560
  14.5914149  53.1032745  53.7905679  31.1945019  58.4706384  42.3229443
  31.7196343  58.8093656  41.5978763  31.1067371  57.5353399  42.1392578
  22.8565067  62.3840457  54.4519320  23.1652194  62.1389604  55.3242019
  23.6540549  62.5887096  53.9638190  22.8785679  64.5378367  46.6824696
  22.4390670  64.0454746  47.3757553  23.6293796  63.9951335  46.4416771
  15.3578018  60.7289908  46.6849324  16.1836038  60.4293680  46.3047968
  15.0072070  59.9597530  47.1339113  20.3259552  60.0816376  48.7546998
  19.7039561  59.4187081  48.4549226  20.9964419  60.1077508  48.0720646
  13.5586624  58.6476234  47.6438258  12.7218532  58.2198409  47.4622259
  13.5310269  58.8408678  48.5809049  20.3984079  48.5598164  58.3479504
  20.4472235  49.4360287  57.9657273  20.9406593  48.0175557  57.7751147
  30.8838925  59.1039287  57.6280641  30.0934469  59.0863426  57.0885140
  30.6472279  59.6427581  58.3829678  31.0036800  55.9531754  54.9413369
  31.0534805  55.7881761  55.8828892  30.8950723  55.0859013  54.5511250
  19.8873059  58.6320299  42.2305458  20.0361179  59.3155764  41.5772131
  20.6939502  58.6125389  42.7454914  28.2940562  51.9362682  56.2572676
  29.1950425  51.7969147  55.9656674  28.3688537  52.1017137  57.1970854
  22.6283368  49.3129536  55.1025862  21.7586677  49.6063103  54.8308451
  22.8642848  49.8969981  55.8233126  32.5054997  58.3728695  55.1855391
  32.2139805  58.7358676  56.0218852  31.8927128  57.6595704  55.0068723
  33.7050679  55.9381575  47.7057961  34.5397570  56.3771379  47.8695522
  33.8409808  55.4620228  46.8866207  30.7542185  53.4961310  53.6535449
  31.2296307  53.6888956  52.8454300  29.8307750  53.5520496  53.4078833
  17.6425692  54.6585477  43.2366527  17.3971733  53.7547807  43.4346737
  17.8121606  54.6602627  42.2946005  25.3322401  45.5309153  52.6191283
  25.8504345  46.2670180  52.2937771  24.9777534  45.8373147  53.4538042
  16.9121339  50.3913835  40.7352689  16.2190584  50.4658190  40.0792725
  16.6673091  49.6274178  41.2574206  25.5834996  41.9509436  48.1392179
  25.8636749  41.2832625  48.7652606  26.3685603  42.1438532  47.6266843
  23.3868464  61.1268430  39.7017206  22.8142431  61.7458617  39.2487678
  23.9601258  61.6767792  40.2357128  29.4543854  50.3727070  51.8863755
  30.4061277  50.4725168  51.9075979  29.2847304  49.5805338  52.3961839
  27.4758233  47.4582653  52.0723156  26.8808166  47.7387666  51.3769644
  27.1907930  47.9476554  52.8439897  26.6065724  61.4105580  40.8325788
  27.5396397  61.3451142  41.0358664  26.5188937  62.2461847  40.3740321
  29.2353741  60.7271450  37.7929736  29.1567372  60.3931314  38.6865494
  30.0563407  61.2193218  37.7921208  31.9331932  53.5933190  51.0006054
  31.9008252  52.6549190  51.1865738  32.5432555  53.6717226  50.2671879
  23.7715263  52.4629243  37.0433258  24.7174367  52.3335451  37.1121676
  23.3929508  51.7243905  37.5202686  32.0826420  50.3844233  51.0464337
  31.5665469  49.6002690  50.8594266  32.9666369  50.0562950  51.2110857
  29.7437147  44.1285249  47.0060150  29.5461968  43.8200337  47.8903482
  30.3536853  44.8546888  47.1358080  37.7508482  54.6549196  50.1412091
  38.4811870  54.3934485  50.7019794  37.1415427  53.9177918  50.1814159
  35.8323779  52.7957059  50.7386542  35.1056942  52.6613024  50.1303034
  35.4171066  53.1033888  51.5443260  23.6553955  56.5146989  58.5033915
  24.5756965  56.6925588  58.6973962  23.6203538  55.5703034  58.3513615
  21.9558180  50.3879219  36.9788144  21.0489635  50.0912332  37.0550857
  22.2334161  50.0909037  36.1122430  12.8736120  51.7085582  47.4287190
  12.5538904  50.8550891  47.1361564  12.3269548  51.9234161  48.1845157
  16.6516028  54.4248023  51.1456696  16.8702037  55.3565131  51.1644730
  17.0641801  54.0655998  51.9311500  23.5720245  44.9316109  43.1332385
  22.7620974  44.5863194  43.5087631  24.2604662  44.6223652  43.7219996
  25.5010794  44.0094156  44.7556681  26.0541832  44.4289609  45.4146705
  25.7380880  43.0829904  44.7979637  21.5243893  49.9981229  60.5359445
  21.4240620  50.9475586  60.4671536  21.3065435  49.6699468  59.6635515
  20.7256964  47.2466154  37.1200123  21.5876128  47.5721053  37.3795940
  20.9107309  46.4597650  36.6073188  12.7424380  55.3288494  49.3980311
  12.0487852  54.9142447  48.8850266  13.4897371  55.3709030  48.8013730
  28.8789601  46.1194681  44.2635346  28.2988270  46.7779485  43.8813398
  28.6125534  45.2972025  43.8522763  27.3293167  45.5199738  46.4656666
  27.8292946  45.6316273  45.6570985  27.9728775  45.2160791  47.1057474
  21.3875163  53.4278368  59.3524507  20.9042245  54.2278728  59.5588396
  21.4736102  53.4386313  58.3991951  14.6561123  55.2606748  47.2746326
  14.6331811  55.3594435  46.3228209  14.9661759  56.1071898  47.5963492
  17.3148501  57.3182903  51.3892941  18.2691754  57.2866845  51.3222872
  17.1161024  56.8573526  52.2043167  17.9047883  55.8884019  53.9563738
  18.7240772  56.3828097  53.9798576  18.1784690  54.9715987  53.9281306
  27.6614479  48.2794771  43.3191694  26.7740334  48.5644422  43.1011889
  28.0768468  48.1188534  42.4718971  31.0129015  48.3041292  47.0346033
  31.7889405  48.7937744  47.3070650  30.2877149  48.7299346  47.4917903
  33.4501574  49.0168911  48.0919974  34.0446064  48.7764647  47.3813282
  33.5228157  48.2976042  48.7193510  15.6698729  62.8602522  48.4063139
  15.5353197  62.1002923  47.8401137  15.2530792  63.5843422  47.9391928
  26.8057692  58.0439446  37.4139714  27.5093542  58.2489448  38.0297370
  26.0820341  58.6116208  37.6788797  27.6355503  53.7949307  43.5341984
  27.5790704  54.2517858  42.6949617  28.1883845  53.0339992  43.3564827
  31.4460309  49.5839039  44.3592104  31.1897243  49.1835675  45.1900311
  30.8213177  50.2982833  44.2342243  35.7572646  52.3235112  46.8663395
  35.1972204  52.3928301  47.6394957  35.1516150  52.1476097  46.1462891
  18.8267855  63.7571839  48.6181581  18.7100239  64.7017272  48.5160272
  18.0060301  63.4545401  49.0067381  28.7144390  58.4821975  39.4638174
  29.5489994  58.0503173  39.2815649  28.5528733  58.3103989  40.3915068
  28.3690282  54.9854088  40.8294513  28.3139086  54.8198360  39.8882957
  27.7436337  55.6930121  40.9856703  13.1582797  50.2222153  54.6555936
  13.8041660  49.7121107  55.1443161  12.9499948  50.9590834  55.2299361
  25.6836189  57.2903000  60.1548076  26.5527349  57.4643652  59.7934711
  25.2042941  58.1097417  60.0323805  21.6786407  44.4862197  40.4079832
  21.6665077  45.4304037  40.5648103  22.5709829  44.3032343  40.1139293
  19.8522369  64.4100101  51.8337510  20.7549616  64.4423711  52.1504005
  19.6259739  63.4800552  51.8483846  21.6075971  63.1631088  48.4947588
  20.6571602  63.1632949  48.3811961  21.9108457  62.4163822  47.9783623
  25.4938527  41.0804974  44.6625769  24.7270923  40.5263461  44.8082451
  25.9049232  41.1526843  45.5239920  17.4980288  47.3689770  58.7530950
  18.3611749  47.0126575  58.9634274  16.9245699  47.0303665  59.4406354
  37.3428665  68.9991626  49.5593351  37.9807075  68.8798373  48.8556691
  37.2249508  69.9472470  49.6181303  34.1518371  68.9519054  49.4954875
  33.8136883  68.8360119  48.6075410  35.0208139  68.5510219  49.4755882
  30.0105187  70.8054531  45.4851766  29.4470052  70.7144467  44.7168054
  29.8957582  69.9854435  45.9654259  34.6338154  70.1053906  55.4541081
  34.6226795  69.7106704  54.5821585  34.7958794  69.3719978  56.0474852
  27.5569619  72.3005722  48.3235987  28.3490911  71.9596547  47.9082286
  27.7966269  72.4100697  49.2438140  35.5904746  74.4725498  40.7966231
  34.9392725  75.0579579  40.4100245  36.3849108  75.0031693  40.8561269
  29.5160373  71.5614635  41.1953366  30.2891249  71.0143622  41.0566241
  29.8685772  72.4258885  41.4067827  31.3545415  72.8891018  54.4020265
  31.0635281  73.7936649  54.2866931  31.9902400  72.9307545  55.1164335
  32.2801622  70.2667866  50.9921625  32.8765194  70.0423889  50.2778588
  32.3376594  69.5252612  51.5947072  31.8526650  67.7207302  38.8271816
  32.1052171  67.1988823  38.0655279  30.9151210  67.5573447  38.9298499
  36.8969933  66.7243080  46.6346559  37.6833023  66.3062503  46.2836976
  37.1608638  67.6289172  46.8028207  37.0680011  72.1615930  41.3335216
  36.4325844  72.2350557  42.0456120  36.7377417  72.7509529  40.6554295
  42.2978360  66.6618313  47.5379537  43.0303532  66.0917530  47.7717367
  41.5417716  66.2739914  47.9786043  31.5722939  69.6235407  41.0296191
  31.4559197  68.9480311  41.6977275  31.6825199  69.1367781  40.2128344
  33.9154480  69.0845555  44.7342880  33.5512687  68.5576176  45.4455801
  34.7721596  68.6944024  44.5609365  39.8203781  60.3739887  51.9974146
  39.4887106  61.2435298  51.7735361  39.2249394  60.0576171  52.6768176
  33.5559967  64.1135454  39.7304228  33.7234369  64.9815691  40.0974699
  33.3657136  64.2762736  38.8065518  36.3135300  72.5752433  51.3970059
  36.0136023  73.4777472  51.2885866  35.9686360  72.3084616  52.2491212
  29.7647782  69.0266230  47.4306763  28.8398278  68.8942444  47.6384455
  30.0132195  69.8060449  47.9276705  39.7132444  65.0934973  49.0767496
  38.8049321  65.0250382  48.7826257  39.6620040  65.5706918  49.9049321
  33.5349188  66.5693112  40.7150895  33.4148813  67.0150163  41.5536375
  32.8401776  66.9178429  40.1564433  27.1256593  68.6699504  48.2650552
  27.2548974  68.9233983  49.1789964  26.4454044  69.2627212  47.9455207
  31.2956080  79.3396754  44.3641026  31.2180110  80.2904579  44.4429507
  30.6917724  78.9942626  45.0215953  33.7873310  66.5124619  57.0202393
  33.0106644  67.0718539  57.0105258  34.4263873  66.9981402  57.5417263
  41.5794091  63.2951412  50.8545370  40.9368471  63.5883945  50.2085164
  41.0749019  63.1804332  51.6598567  39.2334254  67.0414585  41.5431229
  40.1452110  67.2741972  41.3678927  38.7243901  67.6251629  40.9806308
  32.0419682  69.3210072  56.5820360  32.7834367  69.8595116  56.3055184
  31.3356668  69.9476361  56.7391912  37.5175022  71.4639213  55.1792522
  37.9258378  71.0221623  54.4347154  36.7952283  70.8891840  55.4326715
  33.8706092  66.4011820  52.5526079  34.7167287  66.8251233  52.6960728
  33.8104730  65.7445444  53.2464642  37.8403836  72.0240403  48.9344811
  37.2112699  72.1886118  48.2320878  37.4529499  72.4382013  49.7055775
  41.7193068  72.9594841  46.2889174  41.0344107  73.3393743  45.7386208
  41.8036918  73.5690168  47.0221122  37.0205537  64.0616188  54.2107252
  36.7766469  64.8158248  53.6741528  37.2965468  64.4401536  55.0454499
  38.9744000  70.6054800  52.8884518  39.1860895  71.2486560  52.2118899
  38.9273748  69.7717117  52.4206448  36.5770229  63.2172621  49.7921090
  35.7154708  63.5153874  50.0837828  36.6032664  63.4343020  48.8602123
  33.3931798  71.7614811  46.1994896  33.8570144  72.0402514  45.4099518
  33.1288596  70.8598256  46.0167986  30.2855879  71.3086293  49.1374659
  30.8557236  71.7373561  48.4992143  30.8763991  71.0268878  49.8358845
  32.3300684  67.8837964  43.0084461  33.0324728  68.3359008  43.4758387
  31.9981313  67.2421783  43.6364354  30.7781046  66.4749720  57.3835670
  30.1479707  67.1566001  57.6171067  30.6717134  66.3632802  56.4388808
  26.0726018  66.1421517  48.3101594  25.2825072  66.3979045  47.8341705
  26.5637266  66.9569854  48.4153635  40.0889828  73.4826756  51.0606875
  40.9107272  73.0806943  50.7789557  40.0852231  73.3794990  52.0122991
  28.0240764  66.5066096  45.2685071  27.2271927  66.6184790  45.7868567
  27.7966356  66.8452748  44.4025962  33.8546431  73.0310799  53.2167586
  33.9190864  73.4931206  54.0525758  33.1457355  72.4008164  53.3449896
  24.3563721  66.3952007  50.7416585  24.6071760  67.2799017  51.0074161
  24.8923270  66.2156609  49.9691677  48.1795821  69.8265504  47.4091847
  47.4259529  69.2572902  47.2535851  48.3143362  69.7928169  48.3562481
  33.5694449  74.6978906  43.0846566  33.4340124  75.5430442  43.5131414
  34.1104262  74.8998184  42.3212500  30.0561789  60.7770486  59.7460921
  29.6628734  60.2236685  60.4208566  30.8727929  61.0881065  60.1367439
  27.0223846  72.2154345  43.6574491  27.5348367  73.0097595  43.8080056
  27.6746559  71.5180635  43.5908093  28.8318731  75.3320101  45.7397244
  29.0085359  76.2538066  45.5518228  29.6275565  75.0178520  46.1691624
  32.9729750  62.1928365  57.3381178  33.7139463  62.7935519  57.2585640
  33.2047672  61.4506003  56.7799220  28.1171088  67.3784733  55.6159408
  28.0024603  66.4769990  55.9166506  27.2615605  67.6248429  55.2644224
  29.9550047  76.8498275  51.7407587  30.5057472  76.7215338  50.9684581
  29.1161522  77.1493164  51.3902479  37.2944163  75.6005273  55.2428309
  37.2762639  76.4214154  54.7508579  38.2164084  75.4759348  55.4678451
  33.7517218  73.1149402  56.0851818  34.2845554  72.3537691  55.8551126
  33.2231299  72.8223054  56.8275972  36.9186913  58.2209468  51.6145460
  36.5751182  59.1111110  51.5384570  37.2865875  58.0311126  50.7515045
  24.9872763  70.5442999  44.4334062  25.8247985  70.9540007  44.2167769
  25.1651031  69.6042441  44.4034256  36.8837195  68.2118079  40.1217895
  36.3683819  68.9822684  40.3606282  36.6114504  67.5383216  40.7450956
  34.4684306  63.0567780  45.1803133  33.6125903  62.6674631  45.0008772
  34.8811258  63.1359741  44.3202919  35.9983453  60.5914124  49.5794693
  35.4948249  60.5544259  48.7662498  36.2914060  61.5006866  49.6391349
  32.2426339  60.6752853  48.5860875  33.1079336  60.4795662  48.2266764
  32.3103848  60.4463205  49.5130231  41.8571469  70.9650434  42.0571068
  41.0800912  70.6261594  41.6126230  42.5362950  70.9703057  41.3826033
  36.6723498  66.0845172  41.9477676  36.3673634  66.3991321  42.7987819
  37.6253941  66.1626591  41.9905009  35.1169930  72.2435395  43.5970630
  34.5891292  71.5088154  43.2843867  34.6157433  73.0210071  43.3510598
  40.0962776  70.4384415  48.7137676  39.4386451  71.1283677  48.8017805
  40.9003176  70.8280847  49.0571662  29.8488658  62.9055061  45.9577241
  30.4232410  62.6830243  45.2250434  30.4359640  62.9743756  46.7105843
  38.9068235  68.7928788  46.7641618  39.4200117  69.4258780  47.2663328
  39.5569459  68.1929984  46.3984978  30.1758245  64.9359522  39.9773127
  29.3395557  65.2734209  40.2982401  30.0363015  64.8008502  39.0400264
  32.1511326  59.7796310  44.6852311  31.4975738  59.4645327  44.0608926
  32.1091800  59.1572051  45.4112134  33.2622531  70.0615605  36.6005603
  32.3549592  69.8304859  36.7996752  33.7593562  69.2653224  36.7879584
  36.1690609  78.7713112  39.5202289  35.4952308  79.0744809  40.1287247
  36.5556431  79.5742193  39.1707746  35.3849066  66.2678244  49.0099958
  34.4671627  66.4893191  48.8521646  35.8009210  66.3424554  48.1511666
  36.1684114  67.6669659  44.1402639  36.9155933  68.1791057  43.8309761
  36.4375703  67.3453712  45.0007032  34.4410764  70.1628200  41.1229593
  33.5321983  69.8787233  41.2202063  34.4705848  70.5827279  40.2632900
  39.6730031  73.7734790  44.8920760  39.2192358  72.9325699  44.9485951
  39.0423998  74.4096188  45.2295541  38.6162951  64.7026776  46.1221428
  37.8785708  64.1904162  46.4531671  38.8689724  64.2627157  45.3104705
  38.1162971  75.6111286  45.8270579  38.4085945  76.1716343  45.1082944
  38.6261591  75.9039847  46.5823738  38.7174578  57.4803028  46.7163197
  39.0233455  56.6200391  46.4289112  39.4427183  58.0720648  46.5162191
  25.0098934  67.8833714  45.1044795  24.8123334  67.2903075  44.3795862
  24.4545598  67.5785924  45.8220734  32.9895658  67.7756821  47.2239388
  33.0444268  66.8230657  47.1481865  32.1786860  67.9316260  47.7080687
  34.1386852  71.7036944  38.4617672  33.7006282  70.9872803  38.0023309
  34.8797293  71.9313059  37.9002763  30.9288018  66.3933880  44.9829767
  30.1155883  66.6928051  45.3894959  31.4247012  65.9989569  45.7004249
  33.0796596  76.3891637  46.9164032  33.0372775  76.6152484  45.9872564
  33.9959295  76.1555012  47.0649833  36.5262230  66.8575705  53.8144661
  36.8811617  67.0847178  54.6739127  37.1734361  67.1894082  53.1921916
  42.2559967  69.9794141  44.5193990  42.1177865  70.1695737  43.5915179
  41.8996185  70.7413524  44.9762041  30.4202093  63.9652236  50.5991002
  31.0601472  63.8240995  49.9013965  29.5879623  63.6786749  50.2229604
  42.2829346  72.0470668  49.5305262  42.7165853  71.9545957  50.3788316
  42.9960927  72.0228168  48.8925278  31.1962397  73.2654666  46.7125995
  31.9902995  72.7704986  46.5108570  30.4854089  72.7372529  46.3493700
  36.0157241  75.6472762  51.0638362  36.0694263  76.2163698  51.8316078
  35.1472022  75.8174647  50.6992399  27.5045160  67.4097748  42.7885747
  26.5742748  67.3482204  43.0055709  27.6002632  66.8873701  41.9922388
  27.4230709  63.9352561  45.3763989  27.6837526  64.8497894  45.2673149
  28.2447881  63.4677003  45.5260602  28.8955634  65.3490318  52.5462813
  29.5678688  65.1407680  51.8975462  28.0685421  65.1512404  52.1068046
  43.1444896  72.0894368  52.0638147  43.3380786  72.9940179  52.3097422
  43.0445514  71.6301787  52.8976732  34.7981206  61.9752259  54.5628474
  34.1509121  62.6742209  54.4692951  35.5682222  62.4088403  54.9304723
  38.2060004  72.2401111  57.6379028  38.0545511  72.0111663  56.7209111
  38.1964684  73.1971713  57.6510373  34.9745341  69.8133024  52.6225294
  35.9037401  69.9644183  52.4494261  34.5536371  69.9017045  51.7673941
  33.7733673  73.8383688  50.3923832  33.6344758  73.4702473  51.2649770
  32.9848269  74.3531328  50.2207789  34.3681825  78.9392785  41.7349368
  34.5433580  78.4680828  42.5494991  33.6814613  79.5658551  41.9630629
  35.3238888  73.2165291  47.7812669  34.9888720  73.1766061  48.6770319
  34.8242833  72.5510007  47.3083080  29.2983132  68.6232921  53.3065251
  29.1602930  67.8913160  53.9076790  30.2088055  68.5341821  53.0249438
  38.2598079  70.5621325  38.0549729  37.6427250  69.8368154  37.9582782
  37.7914568  71.3230686  37.7116803  31.9265432  68.3352880  52.7948930
  32.6365051  67.6946073  52.7535549  31.8834741  68.5865775  53.7175111
  39.9152211  75.2720234  55.7155509  39.8564757  74.5879454  55.0486092
  40.3171729  76.0139224  55.2636135  30.6394366  65.3218098  54.6144570
  30.1031723  64.8708837  55.2666166  30.0511075  65.4564007  53.8715034
  28.9342910  82.0882148  48.5089228  29.1739508  82.7200672  49.1868247
  28.0912106  81.7370188  48.7954588  30.0496625  64.7806750  37.1771033
  29.1726092  64.6595550  36.8133280  30.5254378  63.9892828  36.9249922
  39.9169618  73.2359818  53.9469489  39.0296397  72.8985739  54.0695888
  40.4868169  72.5042849  54.1838255  21.5698765  69.5683909  47.2712541
  22.2569805  69.2545639  46.6833556  21.4146894  70.4725274  46.9979792
  26.3733488  64.4574106  51.6997564  26.2891676  63.8499775  50.9647974
  25.5516194  64.9483124  51.7007061  33.4470772  77.8961270  50.9130732
  33.3740943  78.7016241  51.4250037  33.0048165  78.0953236  50.0878754
  33.2360551  77.1333040  44.4233554  32.4528073  77.6754720  44.5171778
  33.9353296  77.6507020  44.8227795  36.5457201  62.9427669  47.0667759
  37.0425901  62.1897632  46.7468830  35.7744183  62.9791986  46.5010969
  44.3986959  68.6468035  48.7086051  44.3876835  69.5292750  48.3379984
  43.5304338  68.2939586  48.5140588  35.9069455  77.7948104  53.0688891
  36.6197427  78.4295569  52.9964792  35.4159484  77.8911970  52.2528893
  37.6286982  71.6999357  44.6406183  36.6943261  71.8200819  44.4710887
  37.8063651  70.7971823  44.3766192  33.1292170  65.0845052  46.7939444
  32.7589958  64.5316093  47.4820349  33.6251263  64.4803186  46.2414444
  41.0159533  67.5416676  45.1756217  41.4819986  68.3744668  45.1016519
  41.4667034  67.0761658  45.8801475  30.9581369  75.5442547  53.8894462
  31.6590828  76.1779030  54.0423856  30.4876484  75.8857279  53.1290101
  39.0835765  73.8860497  42.1742369  39.3595608  73.7717092  43.0836243
  38.2140263  73.4877982  42.1354542  38.9876196  59.9097263  49.2147118
  38.0739276  60.1401490  49.3829325  39.4169298  59.9935707  50.0661151
  38.7582655  68.0987155  51.7147012  38.1054105  68.3463062  51.0599465
  39.1363035  67.2851293  51.3809489  35.7189829  78.1346848  45.8175182
  35.9012223  77.3168504  46.2802935  36.5422815  78.3514540  45.3800072
  36.0531994  77.0615033  43.0790231  36.5819761  76.5507488  42.4660393
  36.3160214  76.7457563  43.9435764  34.8070228  68.8406966  58.2013049
  34.1310865  68.7401095  58.8715424  35.6297862  68.6846180  58.6649046
  26.5549087  75.0778903  50.8225564  27.1402524  74.3322590  50.9553469
  26.3573925  75.3882859  51.7062228  29.4087742  78.1130150  45.8388007
  28.7398117  78.5976278  45.3552047  29.2700612  78.3599370  46.7531385
  21.1466742  67.6484503  49.5430008  21.1850841  67.1148093  50.3367126
  20.6407034  67.1219708  48.9240985  33.5493011  80.1473893  52.4370665
  34.1011319  80.3105515  53.2019750  33.8899204  80.7378331  51.7650690
  28.5257504  62.4949043  53.0392550  28.5898830  63.3563874  52.6269948
  28.4624624  61.8823045  52.3064908  28.0009776  64.5672176  56.6865584
  28.6281815  64.1849253  57.3003109  27.1437695  64.3486378  57.0521277
  24.7775319  66.3748605  42.6183939  25.0728760  65.4659283  42.5650993
  23.8763355  66.3536344  42.2964941  36.6861398  78.0955869  49.4234347
  36.5612537  77.2945609  48.9145293  37.3440489  78.5902062  48.9348317
  28.3069566  64.4504601  48.6011488  27.5856152  65.0640569  48.4618961
  29.0962822  64.9862366  48.5228134  38.7496306  75.8964889  51.0513897
  37.8026642  75.7770240  50.9792224  39.0979079  75.0087387  51.1340159
  31.1095880  61.7859028  54.8752139  31.6330281  62.0321324  55.6378449
  30.8908213  62.6179063  54.4555277  26.5063161  64.0562703  42.7423264
  26.1775867  63.1760081  42.5598370  26.8602531  64.0010371  43.6299653
  35.7542740  75.6917605  47.2518250  35.6067702  74.7634313  47.4325820
  36.5796233  75.7137696  46.7675325  29.6204984  64.3435672  43.1098742
  29.9601056  64.8721594  42.3877350  30.0677104  64.6816078  43.8857308
  39.3576861  76.5146164  48.3383122  40.2823409  76.3089025  48.2007574
  39.1892165  76.2662565  49.2472464  32.3148425  62.7272723  52.5601810
  31.9745245  61.9280536  52.9622490  31.6087431  63.0274434  51.9878643
  32.9664897  59.8122035  51.0129133  33.7890966  59.3382514  50.8908023
  33.2102960  60.5912519  51.5127819  31.6073131  62.8410294  41.3092035
  32.3281494  63.2191547  40.8055751  30.9838435  63.5599171  41.4127013
  35.7504254  63.5455443  42.2450367  35.9667868  64.4280081  41.9439195
  35.2698321  63.1541656  41.5156009  30.4903475  66.5041156  48.8221112
  30.3448056  66.8181459  49.7145393  30.0128679  67.1226056  48.2692010
  32.3499858  63.4943704  48.8702001  32.3361427  62.5984797  48.5334299
  33.0672286  63.5014368  49.5040287  34.2025989  63.9281044  50.9155129
  33.9443767  64.8498115  50.9139459  33.6711029  63.5311479  51.6055593
  39.1472178  77.0331831  43.6945214  39.3209055  76.4678254  42.9419066
  39.6401069  77.8332726  43.5124704  24.9649137  69.0446501  51.7608773
  24.4202606  69.8206308  51.8929047  25.8428487  69.3917305  51.6027894
  31.7536754  62.3758084  44.1389571  31.8752665  61.4474731  44.3380459
  31.4638796  62.3896770  43.2267887  34.6227944  60.0612995  47.2756291
  34.6449641  60.1252328  46.3208271  35.0396003  59.2217503  47.4696797
  45.0011569  69.7968254  45.3135514  45.4442715  69.0475580  44.9154637
  44.1238079  69.7878391  44.9309246  40.1347350  76.3498596  40.7942112
  40.8298255  76.9705289  41.0129427  40.4770500  75.4993947  41.0694490
  25.7515159  68.1716397  54.6538930  25.0096895  68.3199032  55.2403560
  25.4307904  68.4324662  53.7905679  42.0338773  73.7998301  42.3229443
  42.5590097  74.1385574  41.5978763  41.9461126  72.8645317  42.1392578
  33.6958822  77.7132375  54.4519320  34.0045948  77.4681522  55.3242019
  34.4934304  77.9179013  53.9638190  33.7179434  79.8670285  46.6824696
  33.2784424  79.3746663  47.3757553  34.4687551  79.3243252  46.4416771
  26.1971773  76.0581826  46.6849324  27.0229793  75.7585597  46.3047968
  25.8465825  75.2889448  47.1339113  31.1653306  75.4108294  48.7546998
  30.5433315  74.7478999  48.4549226  31.8358173  75.4369426  48.0720646
  24.3980378  73.9768152  47.6438258  23.5612286  73.5490326  47.4622259
  24.3704023  74.1700595  48.5809049  31.2377834  63.8890082  58.3479504
  31.2865989  64.7652205  57.9657273  31.7800348  63.3467475  57.7751147
  41.7232679  74.4331205  57.6280641  40.9328223  74.4155344  57.0885140
  41.4866034  74.9719499  58.3829678  41.8430554  71.2823671  54.9413369
  41.8928559  71.1173679  55.8828892  41.7344478  70.4150930  54.5511250
  30.7266813  73.9612217  42.2305458  30.8754933  74.6447681  41.5772131
  31.5333256  73.9417307  42.7454914  39.1334317  67.2654599  56.2572676
  40.0344179  67.1261064  55.9656674  39.2082291  67.4309054  57.1970854
  33.4677122  64.6421454  55.1025862  32.5980431  64.9355020  54.8308451
  33.7036602  65.2261899  55.8233126  43.3448751  73.7020613  55.1855391
  43.0533559  74.0650593  56.0218852  42.7320882  72.9887621  55.0068723
  44.5444433  71.2673493  47.7057961  45.3791325  71.7063297  47.8695522
  44.6803562  70.7912146  46.8866207  41.5935939  68.8253228  53.6535449
  42.0690061  69.0180874  52.8454300  40.6701505  68.8812413  53.4078833
  28.4819446  69.9877395  43.2366527  28.2365488  69.0839725  43.4346737
  28.6515361  69.9894545  42.2946005  36.1716156  60.8601071  52.6191283
  36.6898100  61.5962098  52.2937771  35.8171289  61.1665064  53.4538042
  27.7515094  65.7205752  40.7352689  27.0584338  65.7950107  40.0792725
  27.5066845  64.9566096  41.2574206  36.4228750  57.2801354  48.1392179
  36.7030504  56.6124543  48.7652606  37.2079357  57.4730449  47.6266843
  34.2262219  76.4560348  39.7017206  33.6536186  77.0750535  39.2487678
  34.7995012  77.0059709  40.2357128  40.2937608  65.7018988  51.8863755
  41.2455031  65.8017085  51.9075979  40.1241059  64.9097256  52.3961839
  38.3151988  62.7874571  52.0723156  37.7201920  63.0679584  51.3769644
  38.0301685  63.2768472  52.8439897  37.4459478  76.7397498  40.8325788
  38.3790152  76.6743059  41.0358664  37.3582691  77.5753765  40.3740321
  40.0747495  76.0563368  37.7929736  39.9961127  75.7223232  38.6865494
  40.8957162  76.5485136  37.7921208  42.7725686  68.9225107  51.0006054
  42.7402006  67.9841108  51.1865738  43.3826310  69.0009144  50.2671879
  34.6109017  67.7921160  37.0433258  35.5568122  67.6627368  37.1121676
  34.2323262  67.0535822  37.5202686  42.9220175  65.7136151  51.0464337
  42.4059223  64.9294607  50.8594266  43.8060123  65.3854867  51.2110857
  40.5830902  59.4577166  47.0060150  40.3855723  59.1492254  47.8903482
  41.1930607  60.1838805  47.1358080  48.5902236  69.9841114  50.1412091
  49.3205625  69.7226402  50.7019794  47.9809182  69.2469836  50.1814159
  46.6717533  68.1248977  50.7386542  45.9450697  67.9904942  50.1303034
  46.2564820  68.4325805  51.5443260  34.4947710  71.8438906  58.5033915
  35.4150719  72.0217505  58.6973962  34.4597293  70.8994952  58.3513615
  32.7951934  65.7171137  36.9788144  31.8883390  65.4204249  37.0550857
  33.0727915  65.4200955  36.1122430  23.7129875  67.0377500  47.4287190
  23.3932659  66.1842808  47.1361564  23.1663303  67.2526078  48.1845157
  27.4909782  69.7539941  51.1456696  27.7095792  70.6857049  51.1644730
  27.9035556  69.3947915  51.9311500  34.4114000  60.2608026  43.1332385
  33.6014728  59.9155111  43.5087631  35.0998417  59.9515570  43.7219996
  36.3404548  59.3386073  44.7556681  36.8935587  59.7581527  45.4146705
  36.5774635  58.4121821  44.7979637  32.3637647  65.3273147  60.5359445
  32.2634374  66.2767504  60.4671536  32.1459190  64.9991386  59.6635515
  31.5650719  62.5758072  37.1200123  32.4269883  62.9012970  37.3795940
  31.7501063  61.7889568  36.6073188  23.5818135  70.6580412  49.3980311
  22.8881606  70.2434364  48.8850266  24.3291126  70.7000948  48.8013730
  39.7183355  61.4486598  44.2635346  39.1382024  62.1071402  43.8813398
  39.4519288  60.6263943  43.8522763  38.1686922  60.8491656  46.4656666
  38.6686700  60.9608191  45.6570985  38.8122530  60.5452709  47.1057474
  32.2268918  68.7570286  59.3524507  31.7435999  69.5570646  59.5588396
  32.3129857  68.7678231  58.3991951  25.4954877  70.5898665  47.2746326
  25.4725565  70.6886353  46.3228209  25.8055514  71.4363816  47.5963492
  28.1542255  72.6474820  51.3892941  29.1085509  72.6158763  51.3222872
  27.9554779  72.1865444  52.2043167  28.7441637  71.2175936  53.9563738
  29.5634526  71.7120015  53.9798576  29.0178445  70.3007905  53.9281306
  38.5008233  63.6086689  43.3191694  37.6134088  63.8936339  43.1011889
  38.9162222  63.4480452  42.4718971  41.8522769  63.6333210  47.0346033
  42.6283160  64.1229662  47.3070650  41.1270904  64.0591264  47.4917903
  44.2895328  64.3460829  48.0919974  44.8839819  64.1056565  47.3813282
  44.3621912  63.6267959  48.7193510  26.5092484  78.1894440  48.4063139
  26.3746952  77.4294841  47.8401137  26.0924546  78.9135340  47.9391928
  37.6451447  73.3731363  37.4139714  38.3487297  73.5781366  38.0297370
  36.9214096  73.9408125  37.6788797  38.4749257  69.1241225  43.5341984
  38.4184458  69.5809776  42.6949617  39.0277600  68.3631909  43.3564827
  42.2854063  64.9130957  44.3592104  42.0290997  64.5127592  45.1900311
  41.6606931  65.6274750  44.2342243  46.5966401  67.6527030  46.8663395
  46.0365959  67.7220219  47.6394957  45.9909904  67.4768014  46.1462891
  29.6661610  79.0863757  48.6181581  29.5493994  80.0309189  48.5160272
  28.8454056  78.7837318  49.0067381  39.5538144  73.8113893  39.4638174
  40.3883748  73.3795091  39.2815649  39.3922487  73.6395906  40.3915068
  39.2084036  70.3146006  40.8294513  39.1532840  70.1490277  39.8882957
  38.5830092  71.0222039  40.9856703  23.9976551  65.5514070  54.6555936
  24.6435415  65.0413024  55.1443161  23.7893702  66.2882752  55.2299361
  32.5180162  59.8154115  40.4079832  32.5058832  60.7595955  40.5648103
  33.4103584  59.6324260  40.1139293  30.6916124  79.7392019  51.8337510
  31.5943371  79.7715629  52.1504005  30.4653494  78.8092470  51.8483846
  32.4469726  78.4923005  48.4947588  31.4965357  78.4924867  48.3811961
  32.7502212  77.7455740  47.9783623  36.3332281  56.4096892  44.6625769
  35.5664677  55.8555378  44.8082451  36.7442986  56.4818760  45.5239920
  28.3374042  62.6981687  58.7530950  29.2005504  62.3418492  58.9634274
  27.7639453  62.3595582  59.4406354  48.1822419  84.3283544  49.5593351
  48.8200829  84.2090291  48.8556691  48.0643262  85.2764388  49.6181303
  44.9912126  84.2810972  49.4954875  44.6530637  84.1652037  48.6075410
  45.8601894  83.8802137  49.4755882  40.8498941  86.1346448  45.4851766
  40.2863806  86.0436385  44.7168054  40.7351336  85.3146353  45.9654259
  45.4731909  85.4345824  55.4541081  45.4620549  85.0398622  54.5821585
  45.6352548  84.7011896  56.0474852  38.3963373  87.6297640  48.3235987
  39.1884665  87.2888464  47.9082286  38.6360023  87.7392615  49.2438140
  46.4298500  89.8017416  40.7966231  45.7786480  90.3871496  40.4100245
  47.2242863  90.3323611  40.8561269  40.3554127  86.8906553  41.1953366
  41.1285003  86.3435540  41.0566241  40.7079526  87.7550802  41.4067827
  42.1939170  88.2182935  54.4020265  41.9029036  89.1228566  54.2866931
  42.8296154  88.2599463  55.1164335  43.1195377  85.5959784  50.9921625
  43.7158949  85.3715806  50.2778588  43.1770348  84.8544529  51.5947072
  42.6920405  83.0499219  38.8271816  42.9445926  82.5280740  38.0655279
  41.7544964  82.8865365  38.9298499  47.7363688  82.0534998  46.6346559
  48.5226777  81.6354421  46.2836976  48.0002392  82.9581090  46.8028207
  47.9073765  87.4907848  41.3335216  47.2719598  87.5642474  42.0456120
  47.5771172  88.0801447  40.6554295  53.1372115  81.9910231  47.5379537
  53.8697287  81.4209448  47.7717367  52.3811471  81.6031831  47.9786043
  42.4116694  84.9527325  41.0296191  42.2952952  84.2772229  41.6977275
  42.5218954  84.4659699  40.2128344  44.7548235  84.4137472  44.7342880
  44.3906442  83.8868093  45.4455801  45.6115351  84.0235941  44.5609365
  50.6597535  75.7031805  51.9974146  50.3280860  76.5727216  51.7735361
  50.0643149  75.3868089  52.6768176  44.3953722  79.4427372  39.7304228
  44.5628124  80.3107608  40.0974699  44.2050891  79.6054654  38.8065518
  47.1529055  87.9044351  51.3970059  46.8529778  88.8069390  51.2885866
  46.8080114  87.6376534  52.2491212  40.6041536  84.3558148  47.4306763
  39.6792033  84.2234362  47.6384455  40.8525949  85.1352367  47.9276705
  50.5526199  80.4226891  49.0767496  49.6443076  80.3542299  48.7826257
  50.5013794  80.8998836  49.9049321  44.3742942  81.8985029  40.7150895
  44.2542568  82.3442080  41.5536375  43.6795531  82.2470347  40.1564433
  37.9650347  83.9991421  48.2650552  38.0942728  84.2525900  49.1789964
  37.2847799  84.5919129  47.9455207  42.1349835  94.6688671  44.3641026
  42.0573864  95.6196496  44.4429507  41.5311478  94.3234544  45.0215953
  44.6267064  81.8416537  57.0202393  43.8500398  82.4010457  57.0105258
  45.2657627  82.3273320  57.5417263  52.4187845  78.6243329  50.8545370
  51.7762225  78.9175863  50.2085164  51.9142774  78.5096250  51.6598567
  50.0728009  82.3706503  41.5431229  50.9845865  82.6033889  41.3678927
  49.5637656  82.9543547  40.9806308  42.8813437  84.6501990  56.5820360
  43.6228121  85.1887034  56.3055184  42.1750422  85.2768279  56.7391912
  48.3568776  86.7931130  55.1792522  48.7652132  86.3513541  54.4347154
  47.6346038  86.2183758  55.4326715  44.7099846  81.7303737  52.5526079
  45.5561042  82.1543151  52.6960728  44.6498484  81.0737362  53.2464642
  48.6797591  87.3532321  48.9344811  48.0506453  87.5178035  48.2320878
  48.2923253  87.7673931  49.7055775  52.5586823  88.2886759  46.2889174
  51.8737861  88.6685660  45.7386208  52.6430672  88.8982086  47.0221122
  47.8599292  79.3908106  54.2107252  47.6160224  80.1450166  53.6741528
  48.1359222  79.7693453  55.0454499  49.8137754  85.9346718  52.8884518
  50.0254650  86.5778478  52.2118899  49.7667503  85.1009035  52.4206448
  47.4163983  78.5464539  49.7921090  46.5548462  78.8445792  50.0837828
  47.4426418  78.7634938  48.8602123  44.2325553  87.0906729  46.1994896
  44.6963898  87.3694432  45.4099518  43.9682351  86.1890174  46.0167986
  41.1249634  86.6378211  49.1374659  41.6950991  87.0665479  48.4992143
  41.7157746  86.3560795  49.8358845  43.1694439  83.2129882  43.0084461
  43.8718482  83.6650925  43.4758387  42.8375067  82.5713700  43.6364354
  41.6174800  81.8041638  57.3835670  40.9873461  82.4857919  57.6171067
  41.5110888  81.6924720  56.4388808  36.9119773  81.4713434  48.3101594
  36.1218827  81.7270963  47.8341705  37.4031020  82.2861772  48.4153635
  50.9283582  88.8118673  51.0606875  51.7501026  88.4098861  50.7789557
  50.9245985  88.7086908  52.0122991  38.8634518  81.8358013  45.2685071
  38.0665682  81.9476708  45.7868567  38.6360110  82.1744666  44.4025962
  44.6940186  88.3602717  53.2167586  44.7584618  88.8223124  54.0525758
  43.9851110  87.7300082  53.3449896  35.1957476  81.7243925  50.7416585
  35.4465514  82.6090935  51.0074161  35.7317024  81.5448526  49.9691677
  59.0189575  85.1557422  47.4091847  58.2653284  84.5864820  47.2535851
  59.1537117  85.1220086  48.3562481  44.4088204  90.0270824  43.0846566
  44.2733878  90.8722360  43.5131414  44.9498016  90.2290102  42.3212500
  37.8617601  87.5446262  43.6574491  38.3742121  88.3389512  43.8080056
  38.5140314  86.8472553  43.5908093  39.6712486  90.6612018  45.7397244
  39.8479114  91.5829983  45.5518228  40.4669319  90.3470438  46.1691624
  43.8123504  77.5220283  57.3381178  44.5533218  78.1227436  57.2585640
  44.0441427  76.7797921  56.7799220  38.9564842  82.7076650  55.6159408
  38.8418357  81.8061908  55.9166506  38.1009360  82.9540347  55.2644224
  46.0356680  90.6494391  57.2146908  45.5920534  89.8630769  56.8967813
  46.6973893  90.8373541  56.5490799  40.7943801  92.1790192  51.7407587
  41.3451226  92.0507256  50.9684581  39.9555277  92.4785081  51.3902479
  48.1337918  90.9297191  55.2428309  48.1156393  91.7506072  54.7508579
  49.0557838  90.8051266  55.4678451  44.5910972  88.4441320  56.0851818
  45.1239309  87.6829608  55.8551126  44.0625053  88.1514972  56.8275972
  47.7580667  73.5501386  51.6145460  47.4144936  74.4403028  51.5384570
  48.1259630  73.3603044  50.7515045  35.8266518  85.8734917  44.4334062
  36.6641740  86.2831925  44.2167769  36.0044785  84.9334359  44.4034256
  47.7230950  83.5409997  40.1217895  47.2077573  84.3114602  40.3606282
  47.4508258  82.8675133  40.7450956  45.3078061  78.3859698  45.1803133
  44.4519657  77.9966548  45.0008772  45.7205013  78.4651659  44.3202919
  46.8377207  75.9206041  49.5794693  46.3342003  75.8836176  48.7662498
  47.1307814  76.8298784  49.6391349  43.0820093  76.0044771  48.5860875
  43.9473090  75.8087580  48.2266764  43.1497602  75.7755123  49.5130231
  52.6965224  86.2942352  42.0571068  51.9194667  85.9553511  41.6126230
  53.3756705  86.2994975  41.3826033  47.5117253  81.4137089  41.9477676
  47.2067389  81.7283238  42.7987819  48.4647695  81.4918509  41.9905009
  45.9563685  87.5727313  43.5970630  45.4285046  86.8380072  43.2843867
  45.4551188  88.3501989  43.3510598  50.9356531  85.7676333  48.7137676
  50.2780205  86.4575594  48.8017805  51.7396930  86.1572765  49.0571662
  40.6882412  78.2346979  45.9577241  41.2626164  78.0122160  45.2250434
  41.2753395  78.3035673  46.7105843  49.7461990  84.1220706  46.7641618
  50.2593871  84.7550698  47.2663328  50.3963214  83.5221901  46.3984978
  41.0152000  80.2651440  39.9773127  40.1789312  80.6026126  40.2982401
  40.8756769  80.1300420  39.0400264  42.9905080  75.1088228  44.6852311
  42.3369492  74.7937245  44.0608926  42.9485554  74.4863968  45.4112134
  44.1016285  85.3907523  36.6005603  43.1943347  85.1596776  36.7996752
  44.5987317  84.5945142  36.7879584  47.0084364  94.1005030  39.5202289
  46.3346063  94.4036727  40.1287247  47.3950186  94.9034110  39.1707746
  46.2242821  81.5970161  49.0099958  45.3065382  81.8185108  48.8521646
  46.6402964  81.6716472  48.1511666  47.0077868  82.9961577  44.1402639
  47.7549687  83.5082974  43.8309761  47.2769458  82.6745630  45.0007032
  45.2804518  85.4920118  41.1229593  44.3715738  85.2079151  41.2202063
  45.3099602  85.9119196  40.2632900  50.5123786  89.1026707  44.8920760
  50.0586113  88.2617617  44.9485951  49.8817753  89.7388106  45.2295541
  49.4556705  80.0318693  46.1221428  48.7179462  79.5196079  46.4531671
  49.7083479  79.5919075  45.3104705  48.9556725  90.9403204  45.8270579
  49.2479699  91.5008261  45.1082944  49.4655346  91.2331765  46.5823738
  49.5568333  72.8094945  46.7163197  49.8627210  71.9492309  46.4289112
  50.2820938  73.4012565  46.5162191  35.8492689  83.2125632  45.1044795
  35.6517089  82.6194993  44.3795862  35.2939353  82.9077842  45.8220734
  43.8289412  83.1048738  47.2239388  43.8838022  82.1522575  47.1481865
  43.0180615  83.2608177  47.7080687  44.9780606  87.0328861  38.4617672
  44.5400036  86.3164720  38.0023309  45.7191047  87.2604976  37.9002763
  41.7681772  81.7225798  44.9829767  40.9549638  82.0219969  45.3894959
  42.2640767  81.3281487  45.7004249  43.9190350  91.7183555  46.9164032
  43.8766529  91.9444401  45.9872564  44.8353049  91.4846930  47.0649833
  47.3655984  82.1867623  53.8144661  47.7205372  82.4139096  54.6739127
  48.0128115  82.5185999  53.1921916  53.0953721  85.3086058  44.5193990
  52.9571620  85.4987654  43.5915179  52.7389940  86.0705441  44.9762041
  41.2595847  79.2944154  50.5991002  41.8995226  79.1532913  49.9013965
  40.4273378  79.0078667  50.2229604  53.1223101  87.3762585  49.5305262
  53.5559607  87.2837875  50.3788316  53.8354681  87.3520086  48.8925278
  42.0356151  88.5946584  46.7125995  42.8296750  88.0996904  46.5108570
  41.3247843  88.0664447  46.3493700  46.8550996  90.9764680  51.0638362
  46.9088018  91.5455616  51.8316078  45.9865777  91.1466565  50.6992399
  38.3438915  82.7389666  42.7885747  37.4136503  82.6774121  43.0055709
  38.4396387  82.2165618  41.9922388  38.2624464  79.2644479  45.3763989
  38.5231281  80.1789812  45.2673149  39.0841636  78.7968921  45.5260602
  39.7349389  80.6782236  52.5462813  40.4072442  80.4699598  51.8975462
  38.9079175  80.4804322  52.1068046  53.9838650  87.4186286  52.0638147
  54.1774540  88.3232097  52.3097422  53.8839268  86.9593705  52.8976732
  45.6374961  77.3044177  54.5628474  44.9902876  78.0034126  54.4692951
  46.4075976  77.7380321  54.9304723  49.0453759  87.5693029  57.6379028
  48.8939265  87.3403581  56.7209111  49.0358438  88.5263630  57.6510373
  45.8139095  85.1424942  52.6225294  46.7431155  85.2936101  52.4494261
  45.3930125  85.2308962  51.7673941  44.6127427  89.1675606  50.3923832
  44.4738513  88.7994390  51.2649770  43.8242023  89.6823245  50.2207789
  45.2075579  94.2684702  41.7349368  45.3827335  93.7972746  42.5494991
  44.5208367  94.8950469  41.9630629  46.1632642  88.5457209  47.7812669
  45.8282475  88.5057979  48.6770319  45.6636588  87.8801925  47.3083080
  40.1376886  83.9524839  53.3065251  39.9996684  83.2205078  53.9076790
  41.0481810  83.8633739  53.0249438  49.0991834  85.8913243  38.0549729
  48.4821004  85.1660071  37.9582782  48.6308322  86.6522603  37.7116803
  42.7659187  83.6644798  52.7948930  43.4758805  83.0237990  52.7535549
  42.7228495  83.9157693  53.7175111  50.7545966  90.6012151  55.7155509
  50.6958512  89.9171371  55.0486092  51.1565484  91.3431141  55.2636135
  41.4788121  80.6510016  54.6144570  40.9425478  80.2000754  55.2666166
  40.8904829  80.7855925  53.8715034  39.7736664  97.4174065  48.5089228
  40.0133263  98.0492589  49.1868247  38.9305861  97.0662105  48.7954588
  40.8890380  80.1098667  37.1771033  40.0119846  79.9887468  36.8133280
  41.3648133  79.3184746  36.9249922  50.7563373  88.5651735  53.9469489
  49.8690152  88.2277657  54.0695888  51.3261924  87.8334767  54.1838255
  32.4092520  84.8975827  47.2712541  33.0963560  84.5837557  46.6833556
  32.2540649  85.8017192  46.9979792  37.2127242  79.7866024  51.6997564
  37.1285431  79.1791693  50.9647974  36.3909948  80.2775042  51.7007061
  44.2864526  93.2253188  50.9130732  44.2134698  94.0308159  51.4250037
  43.8441919  93.4245153  50.0878754  44.0754306  92.4624958  44.4233554
  43.2921828  93.0046638  44.5171778  44.7747051  92.9798937  44.8227795
  47.3850956  78.2719587  47.0667759  47.8819655  77.5189549  46.7468830
  46.6137937  78.3083904  46.5010969  55.2380713  83.9759953  48.7086051
  55.2270590  84.8584668  48.3379984  54.3698093  83.6231504  48.5140588
  46.7463210  93.1240022  53.0688891  47.4591182  93.7587487  52.9964792
  46.2553238  93.2203888  52.2528893  48.4680737  87.0291274  44.6406183
  47.5337015  87.1492737  44.4710887  48.6457405  86.1263741  44.3766192
  43.9685925  80.4136970  46.7939444  43.5983712  79.8608011  47.4820349
  44.4645017  79.8095104  46.2414444  51.8553288  82.8708594  45.1756217
  52.3213740  83.7036585  45.1016519  52.3060788  82.4053575  45.8801475
  41.7975123  90.8734465  53.8894462  42.4984583  91.5070948  54.0423856
  41.3270238  91.2149197  53.1290101  49.9229519  89.2152415  42.1742369
  50.1989363  89.1009010  43.0836243  49.0534018  88.8169900  42.1354542
  49.8269951  75.2389181  49.2147118  48.9133030  75.4693407  49.3829325
  50.2563052  75.3227625  50.0661151  49.5976409  83.4279073  51.7147012
  48.9447859  83.6754980  51.0599465  49.9756789  82.6143211  51.3809489
  46.5583583  93.4638766  45.8175182  46.7405978  92.6460422  46.2802935
  47.3816569  93.6806458  45.3800072  46.8925749  92.3906951  43.0790231
  47.4213515  91.8799405  42.4660393  47.1553968  92.0749481  43.9435764
  45.6463982  84.1698884  58.2013049  44.9704619  84.0693013  58.8715424
  46.4691616  84.0138097  58.6649046  37.3942841  90.4070820  50.8225564
  37.9796278  89.6614508  50.9553469  37.1967680  90.7174777  51.7062228
  40.2481497  93.4422068  45.8388007  39.5791872  93.9268195  45.3552047
  40.1094366  93.6891288  46.7531385  31.9860496  82.9776420  49.5430008
  32.0244596  82.4440011  50.3367126  31.4800789  82.4511626  48.9240985
  44.3886765  95.4765811  52.4370665  44.9405073  95.6397433  53.2019750
  44.7292959  96.0670249  51.7650690  39.3651258  77.8240961  53.0392550
  39.4292585  78.6855792  52.6269948  39.3018379  77.2114963  52.3064908
  38.8403531  79.8964093  56.6865584  39.4675570  79.5141171  57.3003109
  37.9831450  79.6778295  57.0521277  49.2397639  90.3027069  58.2919320
  49.7837543  90.9157027  57.7974274  48.6584484  90.8606647  58.8086333
  35.6169074  81.7040523  42.6183939  35.9122515  80.7951201  42.5650993
  34.7157109  81.6828262  42.2964941  47.5255152  93.4247787  49.4234347
  47.4006292  92.6237526  48.9145293  48.1834243  93.9193980  48.9348317
  39.1463321  79.7796519  48.6011488  38.4249906  80.3932487  48.4618961
  39.9356576  80.3154284  48.5228134  49.5890061  91.2256807  51.0513897
  48.6420396  91.1062158  50.9792224  49.9372834  90.3379305  51.1340159
  41.9489634  77.1150946  54.8752139  42.4724036  77.3613242  55.6378449
  41.7301967  77.9470980  54.4555277  37.3456915  79.3854620  42.7423264
  37.0169621  78.5051999  42.5598370  37.6996286  79.3302289  43.6299653
  46.5936494  91.0209523  47.2518250  46.4461456  90.0926230  47.4325820
  47.4189988  91.0429614  46.7675325  40.4598738  79.6727590  43.1098742
  40.7994811  80.2013511  42.3877350  40.9070859  80.0107996  43.8857308
  50.1970616  91.8438082  48.3383122  51.1217163  91.6380943  48.2007574
  50.0285919  91.5954483  49.2472464  43.1542179  78.0564641  52.5601810
  42.8139000  77.2572454  52.9622490  42.4481185  78.3566352  51.9878643
  43.8058651  75.1413953  51.0129133  44.6284720  74.6674431  50.8908023
  44.0496715  75.9204437  51.5127819  42.4466885  78.1702212  41.3092035
  43.1675248  78.5483464  40.8055751  41.8232190  78.8891088  41.4127013
  46.5898008  78.8747361  42.2450367  46.8061623  79.7571998  41.9439195
  46.1092076  78.4833574  41.5156009  41.3297230  81.8333074  48.8221112
  41.1841810  82.1473377  49.7145393  40.8522433  82.4517974  48.2692010
  43.1893613  78.8235622  48.8702001  43.1755181  77.9276715  48.5334299
  43.9066041  78.8306286  49.5040287  45.0419743  79.2572962  50.9155129
  44.7837521  80.1790033  50.9139459  44.5104784  78.8603397  51.6055593
  49.9865932  92.3623749  43.6945214  50.1602810  91.7970172  42.9419066
  50.4794823  93.1624644  43.5124704  35.8042892  84.3738418  51.7608773
  35.2596360  85.1498226  51.8929047  36.6822242  84.7209223  51.6027894
  42.5930509  77.7050002  44.1389571  42.7146420  76.7766648  44.3380459
  42.3032551  77.7188688  43.2267887  45.4621699  75.3904913  47.2756291
  45.4843396  75.4544246  46.3208271  45.8789758  74.5509421  47.4696797
  55.8405323  85.1260172  45.3135514  56.2836469  84.3767497  44.9154637
  54.9631834  85.1170308  44.9309246  50.9741105  91.6790514  40.7942112
  51.6692009  92.2997206  41.0129427  51.3164255  90.8285865  41.0694490
  36.5908914  83.5008314  54.6538930  35.8490650  83.6490950  55.2403560
  36.2701658  83.7616580  53.7905679  52.8732528  89.1290219  42.3229443
  53.3983852  89.4677492  41.5978763  52.7854880  88.1937234  42.1392578
  44.5352576  93.0424293  54.4519320  44.8439703  92.7973439  55.3242019
  45.3328058  93.2470931  53.9638190  44.5573188  95.1962202  46.6824696
  44.1178179  94.7038581  47.3757553  45.3081305  94.6535170  46.4416771
  37.0365527  91.3873743  46.6849324  37.8623547  91.0877515  46.3047968
  36.6859579  90.6181366  47.1339113  42.0047061  90.7400211  48.7546998
  41.3827070  90.0770916  48.4549226  42.6751928  90.7661343  48.0720646
  35.2374133  89.3060070  47.6438258  34.4006041  88.8782244  47.4622259
  35.2097778  89.4992513  48.5809049  42.0771588  79.2181999  58.3479504
  42.1259744  80.0944122  57.9657273  42.6194102  78.6759392  57.7751147
  52.5626434  89.7623123  57.6280641  51.7721977  89.7447262  57.0885140
  52.3259788  90.3011416  58.3829678  52.6824309  86.6115589  54.9413369
  52.7322314  86.4465597  55.8828892  52.5738232  85.7442848  54.5511250
  41.5660568  89.2904135  42.2305458  41.7148688  89.9739599  41.5772131
  42.3727011  89.2709225  42.7454914  49.9728071  82.5946517  56.2572676
  50.8737934  82.4552982  55.9656674  50.0476046  82.7600972  57.1970854
  44.3070877  79.9713372  55.1025862  43.4374186  80.2646938  54.8308451
  44.5430357  80.5553817  55.8233126  54.1842506  89.0312531  55.1855391
  53.8927314  89.3942511  56.0218852  53.5714637  88.3179539  55.0068723
  55.3838188  86.5965410  47.7057961  56.2185079  87.0355214  47.8695522
  55.5197317  86.1204064  46.8866207  52.4329694  84.1545145  53.6535449
  52.9083816  84.3472792  52.8454300  51.5095259  84.2104331  53.4078833
  39.3213201  85.3169312  43.2366527  39.0759242  84.4131642  43.4346737
  39.4909115  85.3186463  42.2946005  47.0109910  76.1892989  52.6191283
  47.5291854  76.9254016  52.2937771  46.6565043  76.4956982  53.4538042
  38.5908848  81.0497670  40.7352689  37.8978093  81.1242025  40.0792725
  38.3460600  80.2858014  41.2574206  47.2622505  72.6093271  48.1392179
  47.5424258  71.9416460  48.7652606  48.0473111  72.8022367  47.6266843
  45.0655973  91.7852265  39.7017206  44.4929940  92.4042452  39.2487678
  45.6388767  92.3351627  40.2357128  51.1331363  81.0310905  51.8863755
  52.0848786  81.1309003  51.9075979  50.9634813  80.2389174  52.3961839
  49.1545742  78.1166489  52.0723156  48.5595674  78.3971501  51.3769644
  48.8695439  78.6060389  52.8439897  48.2853233  92.0689415  40.8325788
  49.2183906  92.0034977  41.0358664  48.1976446  92.9045682  40.3740321
  50.9141250  91.3855286  37.7929736  50.8354881  91.0515149  38.6865494
  51.7350916  91.8777054  37.7921208  53.6119441  84.2517025  51.0006054
  53.5795761  83.3133026  51.1865738  54.2220064  84.3301062  50.2671879
  45.4502772  83.1213078  37.0433258  46.3961876  82.9919286  37.1121676
  45.0717017  82.3827740  37.5202686  53.7613929  81.0428068  51.0464337
  53.2452978  80.2586525  50.8594266  54.6453878  80.7146785  51.2110857
  51.4224656  74.7869084  47.0060150  51.2249477  74.4784172  47.8903482
  52.0324362  75.5130723  47.1358080  59.4295991  85.3133032  50.1412091
  60.1599379  85.0518320  50.7019794  58.8202936  84.5761754  50.1814159
  57.5111288  83.4540894  50.7386542  56.7844451  83.3196859  50.1303034
  57.0958575  83.7617723  51.5443260  45.3341464  87.1730824  58.5033915
  46.2544474  87.3509423  58.6973962  45.2991047  86.2286869  58.3513615
  43.6345689  81.0463054  36.9788144  42.7277144  80.7496167  37.0550857
  43.9121670  80.7492872  36.1122430  34.5523629  82.3669418  47.4287190
  34.2326413  81.5134726  47.1361564  34.0057057  82.5817996  48.1845157
  38.3303537  85.0831859  51.1456696  38.5489546  86.0148967  51.1644730
  38.7429310  84.7239833  51.9311500  45.2507754  75.5899944  43.1332385
  44.4408483  75.2447029  43.5087631  45.9392171  75.2807488  43.7219996
  47.1798303  74.6677991  44.7556681  47.7329341  75.0873444  45.4146705
  47.4168389  73.7413739  44.7979637  43.2031402  80.6565065  60.5359445
  43.1028129  81.6059421  60.4671536  42.9852944  80.3283303  59.6635515
  42.4044473  77.9049990  37.1200123  43.2663637  78.2304888  37.3795940
  42.5894817  77.1181485  36.6073188  34.4211889  85.9872329  49.3980311
  33.7275361  85.5726282  48.8850266  35.1684880  86.0292866  48.8013730
  50.5577110  76.7778516  44.2635346  49.9775779  77.4363320  43.8813398
  50.2913042  75.9555861  43.8522763  49.0080676  76.1783574  46.4656666
  49.5080455  76.2900108  45.6570985  49.6516284  75.8744627  47.1057474
  43.0662672  84.0862203  59.3524507  42.5829754  84.8862563  59.5588396
  43.1523611  84.0970148  58.3991951  36.3348632  85.9190583  47.2746326
  36.3119320  86.0178270  46.3228209  36.6449268  86.7655734  47.5963492
  38.9936010  87.9766738  51.3892941  39.9479263  87.9450680  51.3222872
  38.7948533  87.5157362  52.2043167  39.5835392  86.5467854  53.9563738
  40.4028281  87.0411933  53.9798576  39.8572199  85.6299822  53.9281306
  49.3401988  78.9378606  43.3191694  48.4527843  79.2228257  43.1011889
  49.7555977  78.7772370  42.4718971  52.6916524  78.9625127  47.0346033
  53.4676914  79.4521580  47.3070650  51.9664658  79.3883182  47.4917903
  55.1289083  79.6752747  48.0919974  55.7233573  79.4348483  47.3813282
  55.2015666  78.9559877  48.7193510  37.3486238  93.5186358  48.4063139
  37.2140706  92.7586758  47.8401137  36.9318301  94.2427257  47.9391928
  48.4845201  88.7023281  37.4139714  49.1881051  88.9073284  38.0297370
  47.7607850  89.2700043  37.6788797  49.3143012  84.4533142  43.5341984
  49.2578213  84.9101694  42.6949617  49.8671354  83.6923827  43.3564827
  53.1247817  80.2422874  44.3592104  52.8684752  79.8419510  45.1900311
  52.5000686  80.9566668  44.2342243  57.4360155  82.9818947  46.8663395
  56.8759713  83.0512137  47.6394957  56.8303659  82.8059932  46.1462891
  40.5055364  94.4155675  48.6181581  40.3887748  95.3601107  48.5160272
  39.6847810  94.1129236  49.0067381  50.3931899  89.1405810  39.4638174
  51.2277503  88.7087009  39.2815649  50.2316242  88.9687824  40.3915068
  50.0477791  85.6437924  40.8294513  49.9926595  85.4782195  39.8882957
  49.4223846  86.3513956  40.9856703  34.8370306  80.8805988  54.6555936
  35.4829169  80.3704942  55.1443161  34.6287457  81.6174670  55.2299361
  47.3623698  87.9486835  60.1548076  48.2314858  88.1227488  59.7934711
  46.8830450  88.7681252  60.0323805  43.3573916  75.1446033  40.4079832
  43.3452586  76.0887873  40.5648103  44.2497338  74.9616178  40.1139293
  41.5309878  95.0683936  51.8337510  42.4337125  95.1007547  52.1504005
  41.3047248  94.1384387  51.8483846  43.2863480  93.8214923  48.4947588
  42.3359111  93.8216785  48.3811961  43.5895966  93.0747658  47.9783623
  47.1726036  71.7388809  44.6625769  46.4058432  71.1847296  44.8082451
  47.5836741  71.8110678  45.5239920  59.0216174  99.6575461  49.5593351
  59.6594584  99.5382209  48.8556691  58.9037017 100.6056305  49.6181303
  55.8305880  99.6102889  49.4954875  55.4924392  99.4943954  48.6075410
  56.6995648  99.2094055  49.4755882  51.6892696 101.4638366  45.4851766
  51.1257561 101.3728303  44.7168054  51.5745091 100.6438270  45.9654259
  56.3125663 100.7637741  55.4541081  56.3014304 100.3690539  54.5821585
  56.4746303 100.0303814  56.0474852  49.2357128 102.9589558  48.3235987
  50.0278420 102.6180382  47.9082286  49.4753778 103.0684533  49.2438140
  57.2692254 105.1309334  40.7966231  56.6180234 105.7163414  40.4100245
  58.0636617 105.6615529  40.8561269  51.1947882 102.2198471  41.1953366
  51.9678758 101.6727458  41.0566241  51.5473281 103.0842720  41.4067827
  53.0332924 103.5474853  54.4020265  52.7422790 104.4520484  54.2866931
  53.6689909 103.5891381  55.1164335  53.9589131 100.9251702  50.9921625
  54.5552703 100.7007724  50.2778588  54.0164103 100.1836447  51.5947072
  53.5314159  98.3791137  38.8271816  53.7839680  97.8572658  38.0655279
  52.5938719  98.2157282  38.9298499  58.5757442  97.3826915  46.6346559
  59.3620532  96.9646338  46.2836976  58.8396147  98.2873007  46.8028207
  58.7467520 102.8199766  41.3335216  58.1113353 102.8934392  42.0456120
  58.4164926 103.4093364  40.6554295  63.9765869  97.3202148  47.5379537
  64.7091041  96.7501365  47.7717367  63.2205225  96.9323749  47.9786043
  53.2510448 100.2819243  41.0296191  53.1346706  99.6064146  41.6977275
  53.3612708  99.7951617  40.2128344  55.5941989  99.7429390  44.7342880
  55.2300196  99.2160011  45.4455801  56.4509105  99.3527859  44.5609365
  61.4991290  91.0323723  51.9974146  61.1674615  91.9019134  51.7735361
  60.9036903  90.7160007  52.6768176  55.2347476  94.7719290  39.7304228
  55.4021878  95.6399526  40.0974699  55.0444645  94.9346571  38.8065518
  57.9922809 103.2336269  51.3970059  57.6923532 104.1361307  51.2885866
  57.6473869 102.9668452  52.2491212  51.4435291  99.6850065  47.4306763
  50.5185787  99.5526279  47.6384455  51.6919704 100.4644285  47.9276705
  61.3919953  95.7518809  49.0767496  60.4836830  95.6834217  48.7826257
  61.3407549  96.2290754  49.9049321  55.2136697  97.2276947  40.7150895
  55.0936322  97.6733998  41.5536375  54.5189285  97.5762265  40.1564433
  48.8044102  99.3283339  48.2650552  48.9336483  99.5817818  49.1789964
  48.1241553  99.9211047  47.9455207  52.9743589 109.9980589  44.3641026
  52.8967619 110.9488414  44.4429507  52.3705233 109.6526461  45.0215953
  55.4660819  97.1708454  57.0202393  54.6894153  97.7302374  57.0105258
  56.1051382  97.6565237  57.5417263  63.2581599  93.9535247  50.8545370
  62.6155980  94.2467780  50.2085164  62.7536528  93.8388167  51.6598567
  60.9121763  97.6998420  41.5431229  61.8239619  97.9325807  41.3678927
  60.4031410  98.2835465  40.9806308  53.7207191  99.9793908  56.5820360
  54.4621876 100.5178952  56.3055184  53.0144177 100.6060196  56.7391912
  59.1962531 102.1223048  55.1792522  59.6045887 101.6805459  54.4347154
  58.4739792 101.5475676  55.4326715  55.5493601  97.0595655  52.5526079
  56.3954796  97.4835068  52.6960728  55.4892239  96.4029279  53.2464642
  59.5191345 102.6824239  48.9344811  58.8900208 102.8469953  48.2320878
  59.1317008 103.0965848  49.7055775  63.3980577 103.6178677  46.2889174
  62.7131616 103.9977578  45.7386208  63.4824427 104.2274003  47.0221122
  58.6993046  94.7200023  54.2107252  58.4553978  95.4742084  53.6741528
  58.9752977  95.0985371  55.0454499  60.6531509 101.2638636  52.8884518
  60.8648404 101.9070396  52.2118899  60.6061257 100.4300952  52.4206448
  58.2557738  93.8756456  49.7921090  57.3942217  94.1737710  50.0837828
  58.2820173  94.0926855  48.8602123  55.0719307 102.4198647  46.1994896
  55.5357653 102.6986350  45.4099518  54.8076105 101.5182091  46.0167986
  51.9643388 101.9670128  49.1374659  52.5344745 102.3957397  48.4992143
  52.5551500 101.6852713  49.8358845  54.0088193  98.5421799  43.0084461
  54.7112237  98.9942843  43.4758387  53.6768822  97.9005618  43.6364354
  52.4568555  97.1333556  57.3835670  51.8267215  97.8149837  57.6171067
  52.3504643  97.0216637  56.4388808  47.7513527  96.8005352  48.3101594
  46.9612581  97.0562880  47.8341705  48.2424775  97.6153690  48.4153635
  61.7677337 104.1410591  51.0606875  62.5894781 103.7390778  50.7789557
  61.7639740 104.0378825  52.0122991  49.7028273  97.1649931  45.2685071
  48.9059436  97.2768625  45.7868567  49.4753865  97.5036583  44.4025962
  55.5333940 103.6894634  53.2167586  55.5978373 104.1515042  54.0525758
  54.8244864 103.0591999  53.3449896  46.0351230  97.0535842  50.7416585
  46.2859269  97.9382852  51.0074161  46.5710779  96.8740444  49.9691677
  69.8583330 100.4849340  47.4091847  69.1047038  99.9156738  47.2535851
  69.9930871 100.4512004  48.3562481  55.2481958 105.3562742  43.0846566
  55.1127633 106.2014278  43.5131414  55.7891771 105.5582019  42.3212500
  51.7349298  91.4354322  59.7460921  51.3416243  90.8820520  60.4208566
  52.5515438  91.7464900  60.1367439  48.7011355 102.8738180  43.6574491
  49.2135876 103.6681430  43.8080056  49.3534068 102.1764470  43.5908093
  50.5106240 105.9903936  45.7397244  50.6872868 106.9121901  45.5518228
  51.3063074 105.6762355  46.1691624  54.6517259  92.8512201  57.3381178
  55.3926972  93.4519354  57.2585640  54.8835181  92.1089839  56.7799220
  49.7958597  98.0368568  55.6159408  49.6812112  97.1353825  55.9166506
  48.9403114  98.2832265  55.2644224  56.8750434 105.9786308  57.2146908
  56.4314289 105.1922687  56.8967813  57.5367648 106.1665459  56.5490799
  51.6337556 107.5082110  51.7407587  52.1844981 107.3799173  50.9684581
  50.7949031 107.8076999  51.3902479  58.9731672 106.2589108  55.2428309
  58.9550148 107.0797989  54.7508579  59.8951593 106.1343184  55.4678451
  55.4304727 103.7733238  56.0851818  55.9633063 103.0121526  55.8551126
  54.9018808 103.4806890  56.8275972  58.5974422  88.8793304  51.6145460
  58.2538691  89.7694945  51.5384570  58.9653384  88.6894961  50.7515045
  46.6660272 101.2026834  44.4334062  47.5035494 101.6123843  44.2167769
  46.8438540 100.2626276  44.4034256  58.5624704  98.8701915  40.1217895
  58.0471328  99.6406519  40.3606282  58.2902013  98.1967051  40.7450956
  56.1471815  93.7151616  45.1803133  55.2913412  93.3258466  45.0008772
  56.5598767  93.7943576  44.3202919  57.6770962  91.2497959  49.5794693
  57.1735758  91.2128094  48.7662498  57.9701569  92.1590702  49.6391349
  53.9213848  91.3336689  48.5860875  54.7866845  91.1379497  48.2266764
  53.9891357  91.1047040  49.5130231  63.5358978 101.6234269  42.0571068
  62.7588421 101.2845429  41.6126230  64.2150459 101.6286893  41.3826033
  58.3511007  96.7429007  41.9477676  58.0461143  97.0575156  42.7987819
  59.3041450  96.8210427  41.9905009  56.7957439 102.9019230  43.5970630
  56.2678801 102.1671990  43.2843867  56.2944942 103.6793907  43.3510598
  61.7750285 101.0968251  48.7137676  61.1173960 101.7867512  48.8017805
  62.5790685 101.4864683  49.0571662  51.5276167  93.5638897  45.9577241
  52.1019919  93.3414078  45.2250434  52.1147149  93.6327591  46.7105843
  60.5855744  99.4512623  46.7641618  61.0987626 100.0842615  47.2663328
  61.2356968  98.8513819  46.3984978  51.8545754  95.5943358  39.9773127
  51.0183066  95.9318044  40.2982401  51.7150524  95.4592337  39.0400264
  53.8298835  90.4380145  44.6852311  53.1763247  90.1229163  44.0608926
  53.7879309  89.8155886  45.4112134  54.9410039 100.7199441  36.6005603
  54.0337101 100.4888694  36.7996752  55.4381071  99.9237060  36.7879584
  57.8478118 109.4296948  39.5202289  57.1739817 109.7328644  40.1287247
  58.2343940 110.2326028  39.1707746  57.0636575  96.9262079  49.0099958
  56.1459136  97.1477026  48.8521646  57.4796719  97.0008389  48.1511666
  57.8471623  98.3253495  44.1402639  58.5943442  98.8374892  43.8309761
  58.1163212  98.0037547  45.0007032  56.1198273 100.8212035  41.1229593
  55.2109492 100.5371068  41.2202063  56.1493357 101.2411114  40.2632900
  61.3517540 104.4318625  44.8920760  60.8979867 103.5909535  44.9485951
  60.7211507 105.0680023  45.2295541  60.2950460  95.3610611  46.1221428
  59.5573217  94.8487997  46.4531671  60.5477233  94.9210993  45.3104705
  59.7950480 106.2695122  45.8270579  60.0873454 106.8300179  45.1082944
  60.3049100 106.5623683  46.5823738  60.3962087  88.1386863  46.7163197
  60.7020964  87.2784226  46.4289112  61.1214692  88.7304483  46.5162191
  46.6886443  98.5417549  45.1044795  46.4910843  97.9486910  44.3795862
  46.1333107  98.2369760  45.8220734  54.6683167  98.4340656  47.2239388
  54.7231777  97.4814492  47.1481865  53.8574369  98.5900095  47.7080687
  55.8174361 102.3620779  38.4617672  55.3793791 101.6456638  38.0023309
  56.5584802 102.5896894  37.9002763  52.6075527  97.0517716  44.9829767
  51.7943392  97.3511886  45.3894959  53.1034521  96.6573404  45.7004249
  54.7584105 107.0475473  46.9164032  54.7160284 107.2736319  45.9872564
  55.6746804 106.8138847  47.0649833  58.2049739  97.5159540  53.8144661
  58.5599126  97.7431013  54.6739127  58.8521870  97.8477917  53.1921916
  63.9347476 100.6377976  44.5193990  63.7965374 100.8279572  43.5915179
  63.5783694 101.3997359  44.9762041  52.0989602  94.6236071  50.5991002
  52.7388981  94.4824830  49.9013965  51.2667132  94.3370585  50.2229604
  63.9616855 102.7054503  49.5305262  64.3953362 102.6129792  50.3788316
  64.6748436 102.6812004  48.8925278  52.8749906 103.9238502  46.7125995
  53.6690504 103.4288822  46.5108570  52.1641598 103.3956365  46.3493700
  57.6944750 106.3056597  51.0638362  57.7481772 106.8747534  51.8316078
  56.8259531 106.4758482  50.6992399  49.1832669  98.0681583  42.7885747
  48.2530257  98.0066039  43.0055709  49.2790141  97.5457536  41.9922388
  49.1018218  94.5936396  45.3763989  49.3625035  95.5081729  45.2673149
  49.9235390  94.1260839  45.5260602  50.5743143  96.0074153  52.5462813
  51.2466197  95.7991516  51.8975462  49.7472930  95.8096239  52.1068046
  64.8232405 102.7478204  52.0638147  65.0168295 103.6524014  52.3097422
  64.7233023 102.2885623  52.8976732  56.4768715  92.6336094  54.5628474
  55.8296630  93.3326044  54.4692951  57.2469731  93.0672238  54.9304723
  59.8847513 102.8984946  57.6379028  59.7333020 102.6695498  56.7209111
  59.8752193 103.8555548  57.6510373  56.6532850 100.4716859  52.6225294
  57.5824910 100.6228019  52.4494261  56.2323880 100.5600880  51.7673941
  55.4521182 104.4967524  50.3923832  55.3132267 104.1286308  51.2649770
  54.6635778 105.0115163  50.2207789  56.0469334 109.5976620  41.7349368
  56.2221089 109.1264663  42.5494991  55.3602122 110.2242386  41.9630629
  57.0026397 103.8749126  47.7812669  56.6676229 103.8349896  48.6770319
  56.5030342 103.2093842  47.3083080  50.9770641  99.2816756  53.3065251
  50.8390439  98.5496995  53.9076790  51.8875564  99.1925656  53.0249438
  59.9385588 101.2205161  38.0549729  59.3214759 100.4951989  37.9582782
  59.4702077 101.9814521  37.7116803  53.6052941  98.9936716  52.7948930
  54.3152560  98.3529908  52.7535549  53.5622249  99.2449611  53.7175111
  61.5939720 105.9304069  55.7155509  61.5352266 105.2463289  55.0486092
  61.9959238 106.6723059  55.2636135  52.3181875  95.9801934  54.6144570
  51.7819232  95.5292672  55.2666166  51.7298584  96.1147842  53.8715034
  50.6130419 112.7465983  48.5089228  50.8527017 113.3784507  49.1868247
  49.7699615 112.3954023  48.7954588  51.7284134  95.4390585  37.1771033
  50.8513601  95.3179386  36.8133280  52.2041887  94.6476663  36.9249922
  61.5957127 103.8943653  53.9469489  60.7083906 103.5569575  54.0695888
  62.1655678 103.1626684  54.1838255  43.2486274 100.2267745  47.2712541
  43.9357314  99.9129475  46.6833556  43.0934403 101.1309109  46.9979792
  48.0520997  95.1157941  51.6997564  47.9679185  94.5083611  50.9647974
  47.2303703  95.6066960  51.7007061  55.1258281 108.5545105  50.9130732
  55.0528452 109.3600077  51.4250037  54.6835674 108.7537071  50.0878754
  54.9148060 107.7916875  44.4233554  54.1315582 108.3338556  44.5171778
  55.6140805 108.3090855  44.8227795  58.2244710  93.6011505  47.0667759
  58.7213410  92.8481467  46.7468830  57.4531692  93.6375821  46.5010969
  66.0774468  99.3051870  48.7086051  66.0664344 100.1876586  48.3379984
  65.2091847  98.9523421  48.5140588  57.5856964 108.4531939  53.0688891
  58.2984936 109.0879404  52.9964792  57.0946993 108.5495805  52.2528893
  59.3074491 102.3583192  44.6406183  58.3730770 102.4784654  44.4710887
  59.4851160 101.4555659  44.3766192  54.8079679  95.7428888  46.7939444
  54.4377467  95.1899928  47.4820349  55.3038772  95.1387021  46.2414444
  62.6947042  98.2000511  45.1756217  63.1607495  99.0328503  45.1016519
  63.1454543  97.7345493  45.8801475  52.6368878 106.2026383  53.8894462
  53.3378337 106.8362866  54.0423856  52.1663993 106.5441114  53.1290101
  60.7623274 104.5444333  42.1742369  61.0383117 104.4300927  43.0836243
  59.8927772 104.1461817  42.1354542  60.6663705  90.5681098  49.2147118
  59.7526785  90.7985325  49.3829325  61.0956807  90.6519542  50.0661151
  60.4370164  98.7570990  51.7147012  59.7841614  99.0046898  51.0599465
  60.8150544  97.9435128  51.3809489  57.3977338 108.7930683  45.8175182
  57.5799732 107.9752339  46.2802935  58.2210324 109.0098376  45.3800072
  57.7319503 107.7198869  43.0790231  58.2607269 107.2091323  42.4660393
  57.9947723 107.4041399  43.9435764  56.4857737  99.4990801  58.2013049
  55.8098374  99.3984931  58.8715424  57.3085371  99.3430015  58.6649046
  48.2336596 105.7362738  50.8225564  48.8190033 104.9906426  50.9553469
  48.0361434 106.0466695  51.7062228  51.0875251 108.7713985  45.8388007
  50.4185626 109.2560113  45.3552047  50.9488121 109.0183206  46.7531385
  42.8254251  98.3068338  49.5430008  42.8638350  97.7731929  50.3367126
  42.3194543  97.7803544  48.9240985  55.2280520 110.8057729  52.4370665
  55.7798828 110.9689350  53.2019750  55.5686713 111.3962167  51.7650690
  50.2045013  93.1532879  53.0392550  50.2686339  94.0147709  52.6269948
  50.1412133  92.5406880  52.3064908  49.6797285  95.2256011  56.6865584
  50.3069324  94.8433088  57.3003109  48.8225204  95.0070213  57.0521277
  60.0791394 105.6318986  58.2919320  60.6231298 106.2448945  57.7974274
  59.4978239 106.1898565  58.8086333  46.4562828  97.0332440  42.6183939
  46.7516269  96.1243119  42.5650993  45.5550864  97.0120180  42.2964941
  58.3648907 108.7539704  49.4234347  58.2400046 107.9529444  48.9145293
  59.0227998 109.2485898  48.9348317  49.9857075  95.1088437  48.6011488
  49.2643661  95.7224405  48.4618961  50.7750331  95.6446202  48.5228134
  60.4283815 106.5548724  51.0513897  59.4814151 106.4354076  50.9792224
  60.7766588 105.6671222  51.1340159  52.7883389  92.4442863  54.8752139
  53.3117790  92.6905160  55.6378449  52.5695722  93.2762898  54.4555277
  48.1850670  94.7146538  42.7423264  47.8563376  93.8343917  42.5598370
  48.5390040  94.6594207  43.6299653  57.4330249 106.3501441  47.2518250
  57.2855211 105.4218148  47.4325820  58.2583742 106.3721531  46.7675325
  51.2992493  95.0019508  43.1098742  51.6388565  95.5305429  42.3877350
  51.7464613  95.3399914  43.8857308  61.0364370 107.1729999  48.3383122
  61.9610918 106.9672861  48.2007574  60.8679674 106.9246401  49.2472464
  53.9935934  93.3856558  52.5601810  53.6532754  92.5864371  52.9622490
  53.2874940  93.6858269  51.9878643  54.6452405  90.4705871  51.0129133
  55.4678475  89.9966349  50.8908023  54.8890469  91.2496355  51.5127819
  53.2860640  93.4994129  41.3092035  54.0069002  93.8775382  40.8055751
  52.6625944  94.2183006  41.4127013  57.4291763  94.2039278  42.2450367
  57.6455377  95.0863916  41.9439195  56.9485830  93.8125492  41.5156009
  52.1690984  97.1624991  48.8221112  52.0235565  97.4765295  49.7145393
  51.6916188  97.7809892  48.2692010  54.0287367  94.1527539  48.8702001
  54.0148936  93.2568633  48.5334299  54.7459795  94.1598203  49.5040287
  55.8813498  94.5864880  50.9155129  55.6231276  95.5081950  50.9139459
  55.3498538  94.1895314  51.6055593  60.8259687 107.6915667  43.6945214
  60.9996564 107.1262089  42.9419066  61.3188578 108.4916562  43.5124704
  46.6436646  99.7030336  51.7608773  46.0990114 100.4790144  51.8929047
  47.5215996 100.0501140  51.6027894  53.4324263  93.0341920  44.1389571
  53.5540174  92.1058566  44.3380459  53.1426305  93.0480606  43.2267887
  56.3015453  90.7196830  47.2756291  56.3237150  90.7836163  46.3208271
  56.7183512  89.8801339  47.4696797  66.6799078 100.4552090  45.3135514
  67.1230224  99.7059415  44.9154637  65.8025588 100.4462226  44.9309246
  61.8134859 107.0082431  40.7942112  62.5085764 107.6289124  41.0129427
  62.1558009 106.1577782  41.0694490  47.4302668  98.8300232  54.6538930
  46.6884404  98.9782867  55.2403560  47.1095413  99.0908498  53.7905679
  63.7126282 104.4582137  42.3229443  64.2377606 104.7969409  41.5978763
  63.6248635 103.5229152  42.1392578  55.3746331 108.3716210  54.4519320
  55.6833457 108.1265357  55.3242019  56.1721813 108.5762849  53.9638190
  55.3966943 110.5254120  46.6824696  54.9571933 110.0330499  47.3757553
  56.1475060 109.9827088  46.4416771  47.8759282 106.7165661  46.6849324
  48.7017302 106.4169433  46.3047968  47.5253334 105.9473283  47.1339113
  52.8440815 106.0692129  48.7546998  52.2220824 105.4062834  48.4549226
  53.5145682 106.0953261  48.0720646  46.0767887 104.6351987  47.6438258
  45.2399795 104.2074162  47.4622259  46.0491532 104.8284431  48.5809049
  52.9165343  94.5473917  58.3479504  52.9653498  95.4236040  57.9657273
  53.4587857  94.0051310  57.7751147  63.4020188 105.0915040  57.6280641
  62.6115732 105.0739179  57.0885140  63.1653543 105.6303334  58.3829678
  63.5218063 101.9407507  54.9413369  63.5716068 101.7757514  55.8828892
  63.4131987 101.0734766  54.5511250  52.4054322 104.6196052  42.2305458
  52.5542442 105.3031517  41.5772131  53.2120765 104.6001142  42.7454914
  60.8121826  97.9238435  56.2572676  61.7131688  97.7844900  55.9656674
  60.8869800  98.0892890  57.1970854  55.1464631  95.3005290  55.1025862
  54.2767940  95.5938856  54.8308451  55.3824111  95.8845735  55.8233126
  65.0236260 104.3604448  55.1855391  64.7321068 104.7234429  56.0218852
  64.4108391 103.6471457  55.0068723  66.2231942 101.9257328  47.7057961
  67.0578834 102.3647132  47.8695522  66.3591071 101.4495981  46.8866207
  63.2723448  99.4837063  53.6535449  63.7477570  99.6764709  52.8454300
  62.3489014  99.5396249  53.4078833  50.1606955 100.6461230  43.2366527
  49.9152997  99.7423560  43.4346737  50.3302870 100.6478381  42.2946005
  57.8503665  91.5184906  52.6191283  58.3685609  92.2545933  52.2937771
  57.4958798  91.8248900  53.4538042  49.4302603  96.3789588  40.7352689
  48.7371847  96.4533943  40.0792725  49.1854354  95.6149931  41.2574206
  58.1016259  87.9385189  48.1392179  58.3818013  87.2708378  48.7652606
  58.8866866  88.1314285  47.6266843  55.9049728 107.1144183  39.7017206
  55.3323695 107.7334370  39.2487678  56.4782521 107.6643545  40.2357128
  61.9725117  96.3602823  51.8863755  62.9242540  96.4600921  51.9075979
  61.8028568  95.5681092  52.3961839  59.9939497  93.4458406  52.0723156
  59.3989429  93.7263419  51.3769644  59.7089194  93.9352307  52.8439897
  59.1246987 107.3981333  40.8325788  60.0577660 107.3326895  41.0358664
  59.0370200 108.2337600  40.3740321  61.7535004 106.7147203  37.7929736
  61.6748636 106.3807067  38.6865494  62.5744671 107.2068971  37.7921208
  64.4513195  99.5808943  51.0006054  64.4189515  98.6424943  51.1865738
  65.0613819  99.6592979  50.2671879  56.2896526  98.4504996  37.0433258
  57.2355631  98.3211204  37.1121676  55.9110771  97.7119658  37.5202686
  64.6007684  96.3719986  51.0464337  64.0846732  95.5878443  50.8594266
  65.4847632  96.0438703  51.2110857  62.2618411  90.1161002  47.0060150
  62.0643232  89.8076090  47.8903482  62.8718116  90.8422641  47.1358080
  70.2689745 100.6424950  50.1412091  70.9993134 100.3810238  50.7019794
  69.6596691  99.9053671  50.1814159  68.3505042  98.7832812  50.7386542
  67.6238206  98.6488777  50.1303034  67.9352329  99.0909641  51.5443260
  56.1735219 102.5022742  58.5033915  57.0938228 102.6801341  58.6973962
  56.1384802 101.5578787  58.3513615  54.4739443  96.3754972  36.9788144
  53.5670899  96.0788085  37.0550857  54.7515424  96.0784790  36.1122430
  45.3917384  97.6961335  47.4287190  45.0720168  96.8426644  47.1361564
  44.8450812  97.9109914  48.1845157  49.1697291 100.4123776  51.1456696
  49.3883301 101.3440884  51.1644730  49.5823065 100.0531751  51.9311500
  56.0901509  90.9191862  43.1332385  55.2802237  90.5738947  43.5087631
  56.7785926  90.6099405  43.7219996  58.0192057  89.9969909  44.7556681
  58.5723096  90.4165362  45.4146705  58.2562144  89.0705657  44.7979637
  54.0425156  95.9856982  60.5359445  53.9421883  96.9351339  60.4671536
  53.8246698  95.6575221  59.6635515  53.2438228  93.2341907  37.1200123
  54.1057392  93.5596806  37.3795940  53.4288572  92.4473403  36.6073188
  45.2605644 101.3164247  49.3980311  44.5669115 100.9018200  48.8850266
  46.0078635 101.3584783  48.8013730  61.3970864  92.1070434  44.2635346
  60.8169533  92.7655238  43.8813398  61.1306797  91.2847778  43.8522763
  59.8474431  91.5075491  46.4656666  60.3474209  91.6192026  45.6570985
  60.4910039  91.2036544  47.1057474  53.9056427  99.4154121  59.3524507
  53.4223508 100.2154481  59.5588396  53.9917366  99.4262066  58.3991951
  47.1742386 101.2482501  47.2746326  47.1513074 101.3470188  46.3228209
  47.4843023 102.0947651  47.5963492  49.8329764 103.3058656  51.3892941
  50.7873018 103.2742598  51.3222872  49.6342288 102.8449279  52.2043167
  50.4229146 101.8759772  53.9563738  51.2422035 102.3703850  53.9798576
  50.6965954 100.9591740  53.9281306  60.1795742  94.2670524  43.3191694
  59.2921597  94.5520175  43.1011889  60.5949731  94.1064287  42.4718971
  63.5310278  94.2917045  47.0346033  64.3070669  94.7813498  47.3070650
  62.8058413  94.7175099  47.4917903  65.9682837  95.0044664  48.0919974
  66.5627328  94.7640400  47.3813282  66.0409421  94.2851795  48.7193510
  48.1879993 108.8478275  48.4063139  48.0534461 108.0878676  47.8401137
  47.7712055 109.5719175  47.9391928  59.3238956 104.0315199  37.4139714
  60.0274806 104.2365201  38.0297370  58.6001605 104.5991961  37.6788797
  60.1536766  99.7825060  43.5341984  60.0971967 100.2393611  42.6949617
  60.7065109  99.0215745  43.3564827  63.9641572  95.5714792  44.3592104
  63.7078506  95.1711428  45.1900311  63.3394440  96.2858586  44.2342243
  68.2753910  98.3110865  46.8663395  67.7153468  98.3804054  47.6394957
  67.6697413  98.1351850  46.1462891  51.3449119 109.7447592  48.6181581
  51.2281503 110.6893025  48.5160272  50.5241565 109.4421154  49.0067381
  61.2325653 104.4697728  39.4638174  62.0671257 104.0378926  39.2815649
  61.0709996 104.2979742  40.3915068  60.8871545 100.9729841  40.8294513
  60.8320349 100.8074113  39.8882957  60.2617601 101.6805874  40.9856703
  45.6764060  96.2097906  54.6555936  46.3222924  95.6996860  55.1443161
  45.4681211  96.9466587  55.2299361  58.2017453 103.2778753  60.1548076
  59.0708612 103.4519405  59.7934711  57.7224204 104.0973170  60.0323805
  54.1967671  90.4737950  40.4079832  54.1846341  91.4179790  40.5648103
  55.0891093  90.2908096  40.1139293  52.3703633 110.3975854  51.8337510
  53.2730879 110.4299464  52.1504005  52.1441003 109.4676305  51.8483846
  54.1257235 109.1506841  48.4947588  53.1752866 109.1508702  48.3811961
  54.4289721 108.4039575  47.9783623  58.0119790  87.0680727  44.6625769
  57.2452186  86.5139214  44.8082451  58.4230495  87.1402596  45.5239920
  50.0161551  93.3565523  58.7530950  50.8793013  93.0002328  58.9634274
  49.4426962  93.0179418  59.4406354  69.8609928 114.9867379  49.5593351
  70.4988338 114.8674126  48.8556691  69.7430771 115.9348223  49.6181303
  66.6699635 114.9394807  49.4954875  66.3318146 114.8235872  48.6075410
  67.5389403 114.5385972  49.4755882  62.5286450 116.7930284  45.4851766
  61.9651315 116.7020221  44.7168054  62.4138845 115.9730188  45.9654259
  67.1519418 116.0929659  55.4541081  67.1408058 115.6982457  54.5821585
  67.3140057 115.3595732  56.0474852  60.0750882 118.2881475  48.3235987
  60.8672174 117.9472300  47.9082286  60.3147532 118.3976450  49.2438140
  68.1086009 120.4601251  40.7966231  67.4573989 121.0455332  40.4100245
  68.9030372 120.9907446  40.8561269  62.0341636 117.5490388  41.1953366
  62.8072512 117.0019376  41.0566241  62.3867035 118.4134638  41.4067827
  63.8726679 118.8766771  54.4020265  63.5816545 119.7812402  54.2866931
  64.5083663 118.9183298  55.1164335  64.7982886 116.2543619  50.9921625
  65.3946458 116.0299642  50.2778588  64.8557857 115.5128365  51.5947072
  64.3707914 113.7083055  38.8271816  64.6233435 113.1864576  38.0655279
  63.4332473 113.5449200  38.9298499  69.4151197 112.7118833  46.6346559
  70.2014286 112.2938256  46.2836976  69.6789901 113.6164925  46.8028207
  69.5861274 118.1491683  41.3335216  68.9507107 118.2226310  42.0456120
  69.2558681 118.7385282  40.6554295  74.8159624 112.6494066  47.5379537
  75.5484796 112.0793283  47.7717367  74.0598980 112.2615667  47.9786043
  64.0904203 115.6111161  41.0296191  63.9740461 114.9356064  41.6977275
  64.2006463 115.1243534  40.2128344  66.4335744 115.0721308  44.7342880
  66.0693951 114.5451929  45.4455801  67.2902860 114.6819777  44.5609365
  72.3385044 106.3615640  51.9974146  72.0068369 107.2311051  51.7735361
  71.7430658 106.0451924  52.6768176  66.0741231 110.1011207  39.7304228
  66.2415633 110.9691444  40.0974699  65.8838400 110.2638489  38.8065518
  68.8316564 118.5628186  51.3970059  68.5317287 119.4653225  51.2885866
  68.4867623 118.2960369  52.2491212  62.2829045 115.0141983  47.4306763
  61.3579542 114.8818197  47.6384455  62.5313458 115.7936202  47.9276705
  72.2313708 111.0810726  49.0767496  71.3230585 111.0126135  48.7826257
  72.1801303 111.5582671  49.9049321  66.0530451 112.5568865  40.7150895
  65.9330077 113.0025916  41.5536375  65.3583040 112.9054182  40.1564433
  59.6437856 114.6575257  48.2650552  59.7730237 114.9109736  49.1789964
  58.9635308 115.2502965  47.9455207  63.8137344 125.3272507  44.3641026
  63.7361373 126.2780332  44.4429507  63.2098987 124.9818379  45.0215953
  66.3054573 112.5000372  57.0202393  65.5287907 113.0594292  57.0105258
  66.9445136 112.9857155  57.5417263  74.0975354 109.2827165  50.8545370
  73.4549734 109.5759698  50.2085164  73.5930282 109.1680085  51.6598567
  71.7515518 113.0290338  41.5431229  72.6633374 113.2617725  41.3678927
  71.2425165 113.6127382  40.9806308  64.5600946 115.3085825  56.5820360
  65.3015630 115.8470869  56.3055184  63.8537931 115.9352114  56.7391912
  70.0356285 117.4514966  55.1792522  70.4439641 117.0097376  54.4347154
  69.3133547 116.8767593  55.4326715  66.3887355 112.3887573  52.5526079
  67.2348551 112.8126986  52.6960728  66.3285993 111.7321197  53.2464642
  70.3585100 118.0116156  48.9344811  69.7293962 118.1761871  48.2320878
  69.9710762 118.4257766  49.7055775  74.2374332 118.9470594  46.2889174
  73.5525370 119.3269496  45.7386208  74.3218181 119.5565921  47.0221122
  69.5386801 110.0491941  54.2107252  69.2947733 110.8034001  53.6741528
  69.8146731 110.4277289  55.0454499  71.4925263 116.5930553  52.8884518
  71.7042159 117.2362313  52.2118899  71.4455012 115.7592870  52.4206448
  69.0951492 109.2048374  49.7921090  68.2335971 109.5029628  50.0837828
  69.1213927 109.4218773  48.8602123  65.9113062 117.7490565  46.1994896
  66.3751407 118.0278268  45.4099518  65.6469860 116.8474009  46.0167986
  62.8037143 117.2962046  49.1374659  63.3738500 117.7249314  48.4992143
  63.3945255 117.0144631  49.8358845  64.8481948 113.8713717  43.0084461
  65.5505991 114.3234761  43.4758387  64.5162576 113.2297536  43.6364354
  63.2962309 112.4625474  57.3835670  62.6660970 113.1441754  57.6171067
  63.1898397 112.3508555  56.4388808  58.5907282 112.1297270  48.3101594
  57.8006336 112.3854798  47.8341705  59.0818529 112.9445607  48.4153635
  72.6071091 119.4702509  51.0606875  73.4288535 119.0682696  50.7789557
  72.6033494 119.3670743  52.0122991  60.5422027 112.4941849  45.2685071
  59.7453190 112.6060543  45.7868567  60.3147619 112.8328501  44.4025962
  66.3727695 119.0186552  53.2167586  66.4372127 119.4806959  54.0525758
  65.6638619 118.3883917  53.3449896  56.8744985 112.3827760  50.7416585
  57.1253023 113.2674770  51.0074161  57.4104533 112.2032362  49.9691677
  80.6977084 115.8141257  47.4091847  79.9440793 115.2448655  47.2535851
  80.8324626 115.7803922  48.3562481  66.0875712 120.6854660  43.0846566
  65.9521387 121.5306195  43.5131414  66.6285525 120.8873937  42.3212500
  62.5743052 106.7646239  59.7460921  62.1809998 106.2112438  60.4208566
  63.3909192 107.0756818  60.1367439  59.5405110 118.2030098  43.6574491
  60.0529630 118.9973348  43.8080056  60.1927823 117.5056388  43.5908093
  61.3499995 121.3195854  45.7397244  61.5266623 122.2413819  45.5518228
  62.1456828 121.0054273  46.1691624  65.4911013 108.1804118  57.3381178
  66.2320726 108.7811272  57.2585640  65.7228936 107.4381756  56.7799220
  60.6352351 113.3660486  55.6159408  60.5205866 112.4645743  55.9166506
  59.7796869 113.6124182  55.2644224  67.7144189 121.3078226  57.2146908
  67.2708043 120.5214605  56.8967813  68.3761402 121.4957377  56.5490799
  62.4731310 122.8374028  51.7407587  63.0238735 122.7091091  50.9684581
  61.6342786 123.1368917  51.3902479  69.8125427 121.5881026  55.2428309
  69.7943902 122.4089907  54.7508579  70.7345347 121.4635101  55.4678451
  66.2698481 119.1025155  56.0851818  66.8026818 118.3413444  55.8551126
  65.7412562 118.8098807  56.8275972  69.4368176 104.2085221  51.6145460
  69.0932445 105.0986863  51.5384570  69.8047139 104.0186879  50.7515045
  57.5054027 116.5318752  44.4334062  58.3429249 116.9415760  44.2167769
  57.6832294 115.5918194  44.4034256  69.4018459 114.1993833  40.1217895
  68.8865082 114.9698437  40.3606282  69.1295767 113.5258969  40.7450956
  66.9865570 109.0443533  45.1803133  66.1307166 108.6550384  45.0008772
  67.3992522 109.1235494  44.3202919  68.5164716 106.5789877  49.5794693
  68.0129512 106.5420012  48.7662498  68.8095323 107.4882619  49.6391349
  64.7607602 106.6628606  48.5860875  65.6260599 106.4671415  48.2266764
  64.8285111 106.4338958  49.5130231  74.3752733 116.9526187  42.0571068
  73.5982176 116.6137347  41.6126230  75.0544214 116.9578810  41.3826033
  69.1904762 112.0720925  41.9477676  68.8854898 112.3867074  42.7987819
  70.1435204 112.1502344  41.9905009  67.6351194 118.2311148  43.5970630
  67.1072555 117.4963907  43.2843867  67.1338697 119.0085824  43.3510598
  72.6144040 116.4260168  48.7137676  71.9567714 117.1159430  48.8017805
  73.4184439 116.8156600  49.0571662  62.3669921 108.8930814  45.9577241
  62.9413673 108.6705996  45.2250434  62.9540904 108.9619509  46.7105843
  71.4249499 114.7804541  46.7641618  71.9381380 115.4134533  47.2663328
  72.0750723 114.1805737  46.3984978  62.6939509 110.9235275  39.9773127
  61.8576821 111.2609962  40.2982401  62.5544278 110.7884255  39.0400264
  64.6692589 105.7672063  44.6852311  64.0157001 105.4521080  44.0608926
  64.6273063 105.1447804  45.4112134  65.7803794 116.0491358  36.6005603
  64.8730856 115.8180612  36.7996752  66.2774826 115.2528977  36.7879584
  68.6871873 124.7588865  39.5202289  68.0133572 125.0620562  40.1287247
  69.0737695 125.5617946  39.1707746  67.9030329 112.2553997  49.0099958
  66.9852891 112.4768944  48.8521646  68.3190473 112.3300307  48.1511666
  68.6865377 113.6545412  44.1402639  69.4337196 114.1666810  43.8309761
  68.9556967 113.3329465  45.0007032  66.9592027 116.1503953  41.1229593
  66.0503247 115.8662986  41.2202063  66.9887111 116.5703032  40.2632900
  72.1911295 119.7610543  44.8920760  71.7373622 118.9201452  44.9485951
  71.5605262 120.3971941  45.2295541  71.1344214 110.6902529  46.1221428
  70.3966971 110.1779915  46.4531671  71.3870988 110.2502910  45.3104705
  70.6344234 121.5987039  45.8270579  70.9267208 122.1592096  45.1082944
  71.1442855 121.8915600  46.5823738  71.2355842 103.4678781  46.7163197
  71.5414719 102.6076144  46.4289112  71.9608447 104.0596401  46.5162191
  57.5280198 113.8709467  45.1044795  57.3304598 113.2778828  44.3795862
  56.9726862 113.5661677  45.8220734  65.5076921 113.7632574  47.2239388
  65.5625531 112.8106410  47.1481865  64.6968123 113.9192013  47.7080687
  66.6568115 117.6912697  38.4617672  66.2187545 116.9748556  38.0023309
  67.3978556 117.9188812  37.9002763  63.4469281 112.3809633  44.9829767
  62.6337147 112.6803804  45.3894959  63.9428276 111.9865322  45.7004249
  65.5977859 122.3767390  46.9164032  65.5554038 122.6028237  45.9872564
  66.5140558 122.1430765  47.0649833  69.0443493 112.8451458  53.8144661
  69.3992881 113.0722931  54.6739127  69.6915624 113.1769835  53.1921916
  74.7741230 115.9669894  44.5193990  74.6359129 116.1571490  43.5915179
  74.4177449 116.7289277  44.9762041  62.9383356 109.9527989  50.5991002
  63.5782735 109.8116748  49.9013965  62.1060887 109.6662502  50.2229604
  74.8010610 118.0346421  49.5305262  75.2347116 117.9421710  50.3788316
  75.5142190 118.0103921  48.8925278  63.7143660 119.2530419  46.7125995
  64.5084259 118.7580739  46.5108570  63.0035352 118.7248282  46.3493700
  68.5338505 121.6348515  51.0638362  68.5875527 122.2039451  51.8316078
  67.6653286 121.8050400  50.6992399  60.0226424 113.3973501  42.7885747
  59.0924012 113.3357957  43.0055709  60.1183895 112.8749454  41.9922388
  59.9411973 109.9228314  45.3763989  60.2018790 110.8373647  45.2673149
  60.7629145 109.4552756  45.5260602  61.4136898 111.3366071  52.5462813
  62.0859951 111.1283433  51.8975462  60.5866684 111.1388157  52.1068046
  75.6626159 118.0770121  52.0638147  75.8562049 118.9815932  52.3097422
  75.5626777 117.6177540  52.8976732  67.3162470 107.9628012  54.5628474
  66.6690385 108.6617962  54.4692951  68.0863485 108.3964156  54.9304723
  70.7241268 118.2276864  57.6379028  70.5726774 117.9987416  56.7209111
  70.7145947 119.1847466  57.6510373  67.4926604 115.8008777  52.6225294
  68.4218664 115.9519937  52.4494261  67.0717634 115.8892798  51.7673941
  66.2914936 119.8259441  50.3923832  66.1526022 119.4578226  51.2649770
  65.5029532 120.3407081  50.2207789  66.8863088 124.9268538  41.7349368
  67.0614844 124.4556581  42.5494991  66.1995876 125.5534304  41.9630629
  67.8420151 119.2041044  47.7812669  67.5069984 119.1641814  48.6770319
  67.3424097 118.5385760  47.3083080  61.8164395 114.6108674  53.3065251
  61.6784193 113.8788913  53.9076790  62.7269319 114.5217574  53.0249438
  70.7779343 116.5497078  38.0549729  70.1608513 115.8243907  37.9582782
  70.3095831 117.3106439  37.7116803  64.4446696 114.3228633  52.7948930
  65.1546314 113.6821826  52.7535549  64.4016004 114.5741528  53.7175111
  72.4333474 121.2595987  55.7155509  72.3746021 120.5755207  55.0486092
  72.8352993 122.0014977  55.2636135  63.1575630 111.3093851  54.6144570
  62.6212987 110.8584590  55.2666166  62.5692338 111.4439760  53.8715034
  62.5677889 110.7682503  37.1771033  61.6907355 110.6471303  36.8133280
  63.0435642 109.9768581  36.9249922  72.4350882 119.2235571  53.9469489
  71.5477661 118.8861492  54.0695888  73.0049433 118.4918602  54.1838255
  54.0880029 115.5559662  47.2712541  54.7751069 115.2421392  46.6833556
  53.9328158 116.4601027  46.9979792  58.8914751 110.4449859  51.6997564
  58.8072940 109.8375529  50.9647974  58.0697457 110.9358877  51.7007061
  65.9652035 123.8837023  50.9130732  65.8922207 124.6891995  51.4250037
  65.5229428 124.0828989  50.0878754  65.7541815 123.1208793  44.4233554
  64.9709337 123.6630473  44.5171778  66.4534560 123.6382773  44.8227795
  69.0638465 108.9303422  47.0667759  69.5607164 108.1773385  46.7468830
  68.2925446 108.9667739  46.5010969  76.9168222 114.6343788  48.7086051
  76.9058099 115.5168503  48.3379984  76.0485602 114.2815339  48.5140588
  68.4250719 123.7823857  53.0688891  69.1378691 124.4171322  52.9964792
  67.9340747 123.8787723  52.2528893  70.1468246 117.6875110  44.6406183
  69.2124524 117.8076572  44.4710887  70.3244914 116.7847576  44.3766192
  65.6473434 111.0720805  46.7939444  65.2771221 110.5191846  47.4820349
  66.1432526 110.4678939  46.2414444  73.5340797 113.5292429  45.1756217
  74.0001249 114.3620421  45.1016519  73.9848297 113.0637411  45.8801475
  63.4762632 121.5318301  53.8894462  64.1772092 122.1654783  54.0423856
  63.0057747 121.8733032  53.1290101  71.6017028 119.8736250  42.1742369
  71.8776872 119.7592845  43.0836243  70.7321527 119.4753735  42.1354542
  71.5057460 105.8973016  49.2147118  70.5920539 106.1277243  49.3829325
  71.9350561 105.9811460  50.0661151  71.2763918 114.0862908  51.7147012
  70.6235368 114.3338815  51.0599465  71.6544298 113.2727046  51.3809489
  68.2371092 124.1222601  45.8175182  68.4193487 123.3044257  46.2802935
  69.0604078 124.3390293  45.3800072  68.5713258 123.0490786  43.0790231
  69.1001024 122.5383241  42.4660393  68.8341477 122.7333316  43.9435764
  67.3251491 114.8282719  58.2013049  66.6492128 114.7276848  58.8715424
  68.1479125 114.6721933  58.6649046  59.0730350 121.0654656  50.8225564
  59.6583787 120.3198343  50.9553469  58.8755189 121.3758612  51.7062228
  61.9269005 124.1005903  45.8388007  61.2579381 124.5852031  45.3552047
  61.7881875 124.3475123  46.7531385  53.6648005 113.6360256  49.5430008
  53.7032105 113.1023846  50.3367126  53.1588298 113.1095461  48.9240985
  66.0674274 126.1349646  52.4370665  66.6192582 126.2981268  53.2019750
  66.4080468 126.7254084  51.7650690  61.0438767 108.4824796  53.0392550
  61.1080094 109.3439627  52.6269948  60.9805888 107.8698798  52.3064908
  60.5191040 110.5547929  56.6865584  61.1463079 110.1725006  57.3003109
  59.6618959 110.3362131  57.0521277  70.9185148 120.9610904  58.2919320
  71.4625052 121.5740862  57.7974274  70.3371993 121.5190482  58.8086333
  57.2956583 112.3624358  42.6183939  57.5910024 111.4535036  42.5650993
  56.3944618 112.3412097  42.2964941  69.2042661 124.0831622  49.4234347
  69.0793801 123.2821362  48.9145293  69.8621752 124.5777815  48.9348317
  60.8250830 110.4380354  48.6011488  60.1037415 111.0516322  48.4618961
  61.6144085 110.9738119  48.5228134  71.2677570 121.8840642  51.0513897
  70.3207905 121.7645993  50.9792224  71.6160343 120.9963140  51.1340159
  63.6277143 107.7734781  54.8752139  64.1511545 108.0197078  55.6378449
  63.4089476 108.6054816  54.4555277  59.0244424 110.0438456  42.7423264
  58.6957130 109.1635834  42.5598370  59.3783795 109.9886124  43.6299653
  68.2724003 121.6793358  47.2518250  68.1248965 120.7510066  47.4325820
  69.0977497 121.7013449  46.7675325  62.1386247 110.3311425  43.1098742
  62.4782320 110.8597347  42.3877350  62.5858368 110.6691831  43.8857308
  71.8758125 122.5021917  48.3383122  72.8004672 122.2964778  48.2007574
  71.7073428 122.2538318  49.2472464  64.8329688 108.7148476  52.5601810
  64.4926509 107.9156289  52.9622490  64.1268694 109.0150187  51.9878643
  65.4846160 105.7997789  51.0129133  66.3072229 105.3258267  50.8908023
  65.7284224 106.5788272  51.5127819  64.1254394 108.8286047  41.3092035
  64.8462757 109.2067300  40.8055751  63.5019699 109.5474924  41.4127013
  68.2685517 109.5331196  42.2450367  68.4849132 110.4155834  41.9439195
  67.7879585 109.1417409  41.5156009  63.0084739 112.4916909  48.8221112
  62.8629319 112.8057212  49.7145393  62.5309942 113.1101809  48.2692010
  64.8681122 109.4819457  48.8702001  64.8542690 108.5860550  48.5334299
  65.5853550 109.4890121  49.5040287  66.7207252 109.9156797  50.9155129
  66.4625030 110.8373868  50.9139459  66.1892293 109.5187232  51.6055593
  71.6653441 123.0207584  43.6945214  71.8390319 122.4554007  42.9419066
  72.1582332 123.8208479  43.5124704  57.4830401 115.0322254  51.7608773
  56.9383869 115.8082062  51.8929047  58.3609751 115.3793058  51.6027894
  64.2718018 108.3633837  44.1389571  64.3933929 107.4350484  44.3380459
  63.9820060 108.3772523  43.2267887  67.1409208 106.0488748  47.2756291
  67.1630905 106.1128081  46.3208271  67.5577267 105.2093256  47.4696797
  77.5192832 115.7844007  45.3135514  77.9623978 115.0351333  44.9154637
  76.6419343 115.7754144  44.9309246  72.6528614 122.3374349  40.7942112
  73.3479518 122.9581042  41.0129427  72.9951764 121.4869700  41.0694490
  58.2696423 114.1592150  54.6538930  57.5278159 114.3074785  55.2403560
  57.9489167 114.4200415  53.7905679  74.5520037 119.7874054  42.3229443
  75.0771361 120.1261327  41.5978763  74.4642389 118.8521070  42.1392578
  66.2140085 123.7008128  54.4519320  66.5227212 123.4557275  55.3242019
  67.0115567 123.9054767  53.9638190  66.2360697 125.8546038  46.6824696
  65.7965688 125.3622416  47.3757553  66.9868814 125.3119005  46.4416771
  58.7153036 122.0457579  46.6849324  59.5411056 121.7461350  46.3047968
  58.3647088 121.2765201  47.1339113  63.6834570 121.3984047  48.7546998
  63.0614579 120.7354752  48.4549226  64.3539437 121.4245179  48.0720646
  56.9161641 119.9643905  47.6438258  56.0793550 119.5366079  47.4622259
  56.8885287 120.1576348  48.5809049  63.7559097 109.8765835  58.3479504
  63.8047253 110.7527958  57.9657273  64.2981611 109.3343228  57.7751147
  74.2413943 120.4206958  57.6280641  73.4509486 120.4031097  57.0885140
  74.0047297 120.9595252  58.3829678  74.3611818 117.2699424  54.9413369
  74.4109823 117.1049432  55.8828892  74.2525741 116.4026683  54.5511250
  63.2448077 119.9487970  42.2305458  63.3936197 120.6323434  41.5772131
  64.0514520 119.9293060  42.7454914  71.6515580 113.2530352  56.2572676
  72.5525443 113.1136817  55.9656674  71.7263555 113.4184807  57.1970854
  65.9858386 110.6297207  55.1025862  65.1161695 110.9230773  54.8308451
  66.2217866 111.2137652  55.8233126  75.8630015 119.6896366  55.1855391
  75.5714823 120.0526346  56.0218852  75.2502146 118.9763374  55.0068723
  77.0625697 117.2549246  47.7057961  77.8972588 117.6939050  47.8695522
  77.1984826 116.7787899  46.8866207  74.1117203 114.8128981  53.6535449
  74.5871324 115.0056627  52.8454300  73.1882768 114.8688166  53.4078833
  61.0000709 115.9753148  43.2366527  60.7546751 115.0715478  43.4346737
  61.1696624 115.9770298  42.2946005  68.6897419 106.8476824  52.6191283
  69.2079363 107.5837851  52.2937771  68.3352552 107.1540817  53.4538042
  60.2696357 111.7081505  40.7352689  59.5765602 111.7825860  40.0792725
  60.0248109 110.9441849  41.2574206  68.9410014 103.2677107  48.1392179
  69.2211767 102.6000296  48.7652606  69.7260620 103.4606202  47.6266843
  66.7443482 122.4436101  39.7017206  66.1717449 123.0626288  39.2487678
  67.3176276 122.9935462  40.2357128  72.8118872 111.6894741  51.8863755
  73.7636295 111.7892838  51.9075979  72.6422322 110.8973009  52.3961839
  70.8333251 108.7750324  52.0723156  70.2383183 109.0555337  51.3769644
  70.5482948 109.2644225  52.8439897  69.9640742 122.7273251  40.8325788
  70.8971415 122.6618812  41.0358664  69.8763955 123.5629518  40.3740321
  72.5928758 122.0439121  37.7929736  72.5142390 121.7098985  38.6865494
  73.4138425 122.5360889  37.7921208  75.2906950 114.9100860  51.0006054
  75.2583270 113.9716861  51.1865738  75.9007573 114.9884897  50.2671879
  67.1290281 113.7796913  37.0433258  68.0749385 113.6503121  37.1121676
  66.7504525 113.0411575  37.5202686  75.4401438 111.7011904  51.0464337
  74.9240487 110.9170360  50.8594266  76.3241387 111.3730620  51.2110857
  73.1012165 105.4452919  47.0060150  72.9036986 105.1368008  47.8903482
  73.7111871 106.1714558  47.1358080  81.1083500 115.9716867  50.1412091
  81.8386888 115.7102155  50.7019794  80.4990445 115.2345589  50.1814159
  79.1898797 114.1124730  50.7386542  78.4631960 113.9780695  50.1303034
  78.7746084 114.4201558  51.5443260  67.0128973 117.8314659  58.5033915
  67.9331983 118.0093258  58.6973962  66.9778556 116.8870705  58.3513615
  65.3133198 111.7046890  36.9788144  64.4064653 111.4080002  37.0550857
  65.5909179 111.4076708  36.1122430  56.2311138 113.0253253  47.4287190
  55.9113922 112.1718561  47.1361564  55.6844566 113.2401831  48.1845157
  60.0091046 115.7415694  51.1456696  60.2277055 116.6732802  51.1644730
  60.4216819 115.3823669  51.9311500  66.9295263 106.2483779  43.1332385
  66.1195992 105.9030864  43.5087631  67.6179680 105.9391323  43.7219996
  68.8585812 105.3261826  44.7556681  69.4116850 105.7457280  45.4146705
  69.0955898 104.3997574  44.7979637  64.8818911 111.3148900  60.5359445
  64.7815638 112.2643257  60.4671536  64.6640453 110.9867139  59.6635515
  64.0831982 108.5633825  37.1200123  64.9451146 108.8888723  37.3795940
  64.2682326 107.7765321  36.6073188  56.0999398 116.6456165  49.3980311
  55.4062870 116.2310117  48.8850266  56.8472389 116.6876701  48.8013730
  72.2364619 107.4362351  44.2635346  71.6563288 108.0947155  43.8813398
  71.9700551 106.6139696  43.8522763  70.6868185 106.8367409  46.4656666
  71.1867964 106.9483944  45.6570985  71.3303793 106.5328462  47.1057474
  64.7450181 114.7446039  59.3524507  64.2617263 115.5446399  59.5588396
  64.8311120 114.7553984  58.3991951  58.0136141 116.5774418  47.2746326
  57.9906829 116.6762106  46.3228209  58.3236777 117.4239569  47.5963492
  60.6723518 118.6350573  51.3892941  61.6266772 118.6034516  51.3222872
  60.4736042 118.1741197  52.2043167  61.2622901 117.2051689  53.9563738
  62.0815790 117.6995768  53.9798576  61.5359708 116.2883658  53.9281306
  71.0189497 109.5962442  43.3191694  70.1315352 109.8812092  43.1011889
  71.4343486 109.4356205  42.4718971  74.3704033 109.6208963  47.0346033
  75.1464423 110.1105415  47.3070650  73.6452167 110.0467017  47.4917903
  76.8076592 110.3336582  48.0919974  77.4021082 110.0932318  47.3813282
  76.8803175 109.6143713  48.7193510  59.0273747 124.1770193  48.4063139
  58.8928215 123.4170594  47.8401137  58.6105810 124.9011093  47.9391928
  70.1632710 119.3607116  37.4139714  70.8668560 119.5657119  38.0297370
  69.4395359 119.9283878  37.6788797  70.9930521 115.1116978  43.5341984
  70.9365722 115.5685529  42.6949617  71.5458863 114.3507662  43.3564827
  74.8035326 110.9006710  44.3592104  74.5472261 110.5003345  45.1900311
  74.1788195 111.6150503  44.2342243  79.1147664 113.6402783  46.8663395
  78.5547222 113.7095972  47.6394957  78.5091168 113.4643767  46.1462891
  62.1842873 125.0739510  48.6181581  62.0675257 126.0184942  48.5160272
  61.3635319 124.7713071  49.0067381  72.0719408 119.7989646  39.4638174
  72.9065012 119.3670844  39.2815649  71.9103751 119.6271659  40.3915068
  71.7265300 116.3021759  40.8294513  71.6714104 116.1366030  39.8882957
  71.1011355 117.0097792  40.9856703  56.5157815 111.5389823  54.6555936
  57.1616678 111.0288777  55.1443161  56.3074966 112.2758505  55.2299361
  69.0411207 118.6070671  60.1548076  69.9102367 118.7811323  59.7934711
  68.5617959 119.4265088  60.0323805  65.0361425 105.8029868  40.4079832
  65.0240095 106.7471708  40.5648103  65.9284847 105.6200013  40.1139293
  63.2097387 125.7267772  51.8337510  64.1124634 125.7591382  52.1504005
  62.9834757 124.7968223  51.8483846  64.9650989 124.4798758  48.4947588
  64.0146620 124.4800620  48.3811961  65.2683475 123.7331493  47.9783623
  68.8513545 102.3972645  44.6625769  68.0845941 101.8431131  44.8082451
  69.2624250 102.4694513  45.5239920  60.8555306 108.6857440  58.7530950
  61.7186767 108.3294245  58.9634274  60.2820717 108.3471335  59.4406354
  80.7003683 130.3159297  49.5593351  81.3382093 130.1966044  48.8556691
  80.5824526 131.2640141  49.6181303  77.5093389 130.2686725  49.4954875
  77.1711901 130.1527790  48.6075410  78.3783157 129.8677890  49.4755882
  77.9913172 131.4221577  55.4541081  77.9801813 131.0274375  54.5821585
  78.1533812 130.6887649  56.0474852  75.2101668 129.0374972  38.8271816
  75.4627189 128.5156494  38.0655279  74.2726228 128.8741118  38.9298499
  80.2544951 128.0410751  46.6346559  81.0408040 127.6230174  46.2836976
  80.5183656 128.9456843  46.8028207  85.6553378 127.9785984  47.5379537
  86.3878550 127.4085201  47.7717367  84.8992734 127.5907584  47.9786043
  77.2729498 130.4013225  44.7342880  76.9087705 129.8743846  45.4455801
  78.1296614 130.0111694  44.5609365  83.1778799 121.6907558  51.9974146
  82.8462124 122.5602969  51.7735361  82.5824412 121.3743842  52.6768176
  76.9134985 125.4303125  39.7304228  77.0809387 126.2983361  40.0974699
  76.7232154 125.5930407  38.8065518  83.0707462 126.4102644  49.0767496
  82.1624339 126.3418053  48.7826257  83.0195058 126.8874589  49.9049321
  76.8924206 127.8860782  40.7150895  76.7723831 128.3317833  41.5536375
  76.1976794 128.2346100  40.1564433  77.1448328 127.8292290  57.0202393
  76.3681662 128.3886210  57.0105258  77.7838891 128.3149073  57.5417263
  84.9369108 124.6119082  50.8545370  84.2943489 124.9051616  50.2085164
  84.4324037 124.4972003  51.6598567  82.5909272 128.3582256  41.5431229
  83.5027128 128.5909642  41.3678927  82.0818919 128.9419300  40.9806308
  80.8750040 132.7806883  55.1792522  81.2833396 132.3389294  54.4347154
  80.1527301 132.2059511  55.4326715  77.2281110 127.7179490  52.5526079
  78.0742305 128.1418904  52.6960728  77.1679748 127.0613115  53.2464642
  80.3780555 125.3783859  54.2107252  80.1341487 126.1325919  53.6741528
  80.6540486 125.7569206  55.0454499  82.3319018 131.9222471  52.8884518
  82.5435913 132.5654231  52.2118899  82.2848766 131.0884788  52.4206448
  79.9345247 124.5340292  49.7921090  79.0729726 124.8321545  50.0837828
  79.9607682 124.7510691  48.8602123  75.6875702 129.2005635  43.0084461
  76.3899746 129.6526678  43.4758387  75.3556331 128.5589453  43.6364354
  74.1356064 127.7917391  57.3835670  73.5054724 128.4733672  57.6171067
  74.0292152 127.6800473  56.4388808  69.4301036 127.4589187  48.3101594
  68.6400090 127.7146716  47.8341705  69.9212284 128.2737525  48.4153635
  71.3815782 127.8233766  45.2685071  70.5846945 127.9352461  45.7868567
  71.1541374 128.1620419  44.4025962  73.4136807 122.0938157  59.7460921
  73.0203752 121.5404356  60.4208566  74.2302947 122.4048736  60.1367439
  76.3304768 123.5096036  57.3381178  77.0714481 124.1103189  57.2585640
  76.5622690 122.7673674  56.7799220  71.4746106 128.6952403  55.6159408
  71.3599621 127.7937661  55.9166506  70.6190623 128.9416100  55.2644224
  80.2761931 119.5377139  51.6145460  79.9326200 120.4278781  51.5384570
  80.6440893 119.3478797  50.7515045  80.2412213 129.5285750  40.1217895
  79.7258837 130.2990355  40.3606282  79.9689522 128.8550886  40.7450956
  77.8259324 124.3735451  45.1803133  76.9700921 123.9842301  45.0008772
  78.2386276 124.4527412  44.3202919  79.3558471 121.9081794  49.5794693
  78.8523267 121.8711929  48.7662498  79.6489078 122.8174537  49.6391349
  75.6001357 121.9920524  48.5860875  76.4654354 121.7963333  48.2266764
  75.6678866 121.7630876  49.5130231  80.0298516 127.4012842  41.9477676
  79.7248652 127.7158991  42.7987819  80.9828959 127.4794262  41.9905009
  73.2063676 124.2222732  45.9577241  73.7807428 123.9997913  45.2250434
  73.7934658 124.2911426  46.7105843  82.2643253 130.1096459  46.7641618
  82.7775135 130.7426451  47.2663328  82.9144477 129.5097654  46.3984978
  73.5333263 126.2527193  39.9773127  72.6970575 126.5901879  40.2982401
  73.3938033 126.1176173  39.0400264  75.5086344 121.0963981  44.6852311
  74.8550756 120.7812998  44.0608926  75.4666818 120.4739721  45.4112134
  76.6197548 131.3783276  36.6005603  75.7124610 131.1472529  36.7996752
  77.1168580 130.5820895  36.7879584  78.7424084 127.5845914  49.0099958
  77.8246645 127.8060861  48.8521646  79.1584228 127.6592225  48.1511666
  79.5259132 128.9837330  44.1402639  80.2730951 129.4958727  43.8309761
  79.7950721 128.6621383  45.0007032  77.7985782 131.4795871  41.1229593
  76.8897001 131.1954904  41.2202063  77.8280866 131.8994949  40.2632900
  81.9737969 126.0194446  46.1221428  81.2360726 125.5071832  46.4531671
  82.2264742 125.5794828  45.3104705  82.0749596 118.7970698  46.7163197
  82.3808473 117.9368062  46.4289112  82.8002201 119.3888318  46.5162191
  76.3470676 129.0924491  47.2239388  76.4019286 128.1398328  47.1481865
  75.5361878 129.2483930  47.7080687  74.2863036 127.7101551  44.9829767
  73.4730901 128.0095722  45.3894959  74.7822030 127.3157240  45.7004249
  79.8837248 128.1743376  53.8144661  80.2386635 128.4014849  54.6739127
  80.5309379 128.5061752  53.1921916  73.7777111 125.2819907  50.5991002
  74.4176490 125.1408666  49.9013965  72.9454641 124.9954420  50.2229604
  70.8620178 128.7265419  42.7885747  69.9317766 128.6649874  43.0055709
  70.9577650 128.2041372  41.9922388  70.7805727 125.2520232  45.3763989
  71.0412544 126.1665565  45.2673149  71.6022899 124.7844674  45.5260602
  72.2530652 126.6657989  52.5462813  72.9253706 126.4575351  51.8975462
  71.4260439 126.4680075  52.1068046  78.1556224 123.2919930  54.5628474
  77.5084139 123.9909879  54.4692951  78.9257240 123.7256074  54.9304723
  78.3320359 131.1300695  52.6225294  79.2612419 131.2811854  52.4494261
  77.9111389 131.2184715  51.7673941  72.6558150 129.9400592  53.3065251
  72.5177948 129.2080831  53.9076790  73.5663073 129.8509492  53.0249438
  81.6173097 131.8788996  38.0549729  81.0002268 131.1535824  37.9582782
  81.1489586 132.6398356  37.7116803  75.2840450 129.6520551  52.7948930
  75.9940069 129.0113743  52.7535549  75.2409758 129.9033446  53.7175111
  73.9969384 126.6385769  54.6144570  73.4606741 126.1876507  55.2666166
  73.4086093 126.7731678  53.8715034  73.4071643 126.0974420  37.1771033
  72.5301110 125.9763221  36.8133280  73.8829396 125.3060499  36.9249922
  69.7308506 125.7741777  51.6997564  69.6466694 125.1667446  50.9647974
  68.9091212 126.2650795  51.7007061  79.9032219 124.2595340  47.0667759
  80.4000919 123.5065302  46.7468830  79.1319201 124.2959657  46.5010969
  76.4867188 126.4012723  46.7939444  76.1164976 125.8483764  47.4820349
  76.9826281 125.7970857  46.2414444  84.3734551 128.8584347  45.1756217
  84.8395004 129.6912338  45.1016519  84.8242052 128.3929328  45.8801475
  82.3451214 121.2264934  49.2147118  81.4314294 121.4569161  49.3829325
  82.7744316 121.3103378  50.0661151  82.1157673 129.4154826  51.7147012
  81.4629123 129.6630733  51.0599465  82.4938053 128.6018964  51.3809489
  78.1645246 130.1574637  58.2013049  77.4885883 130.0568766  58.8715424
  78.9872880 130.0013850  58.6649046  71.8832522 123.8116714  53.0392550
  71.9473848 124.6731545  52.6269948  71.8199642 123.1990716  52.3064908
  71.3584794 125.8839846  56.6865584  71.9856833 125.5016924  57.3003109
  70.5012713 125.6654048  57.0521277  68.1350337 127.6916276  42.6183939
  68.4303778 126.7826954  42.5650993  67.2338373 127.6704015  42.2964941
  71.6644584 125.7672272  48.6011488  70.9431170 126.3808240  48.4618961
  72.4537840 126.3030037  48.5228134  74.4670898 123.1026699  54.8752139
  74.9905299 123.3488995  55.6378449  74.2483231 123.9346733  54.4555277
  69.8638179 125.3730373  42.7423264  69.5350885 124.4927752  42.5598370
  70.2177549 125.3178042  43.6299653  72.9780002 125.6603343  43.1098742
  73.3176074 126.1889264  42.3877350  73.4252122 125.9983749  43.8857308
  75.6723443 124.0440394  52.5601810  75.3320263 123.2448207  52.9622490
  74.9662449 124.3442105  51.9878643  76.3239914 121.1289706  51.0129133
  77.1465984 120.6550184  50.8908023  76.5677978 121.9080190  51.5127819
  74.9648149 124.1577965  41.3092035  75.6856511 124.5359217  40.8055751
  74.3413453 124.8766841  41.4127013  79.1079272 124.8623114  42.2450367
  79.3242886 125.7447751  41.9439195  78.6273339 124.4709327  41.5156009
  73.8478493 127.8208827  48.8221112  73.7023074 128.1349130  49.7145393
  73.3703697 128.4393727  48.2692010  75.7074876 124.8111375  48.8702001
  75.6936445 123.9152468  48.5334299  76.4247304 124.8182039  49.5040287
  77.5601007 125.2448715  50.9155129  77.3018785 126.1665786  50.9139459
  77.0286047 124.8479150  51.6055593  75.1111772 123.6925755  44.1389571
  75.2327683 122.7642401  44.3380459  74.8213814 123.7064441  43.2267887
  77.9802962 121.3780666  47.2756291  78.0024659 121.4419999  46.3208271
  78.3971021 120.5385174  47.4696797  74.5952852 125.2057752  58.3479504
  74.6441007 126.0819875  57.9657273  75.1375366 124.6635146  57.7751147
  82.4909335 128.5822270  56.2572676  83.3919197 128.4428735  55.9656674
  82.5657309 128.7476725  57.1970854  76.8252140 125.9589125  55.1025862
  75.9555449 126.2522691  54.8308451  77.0611620 126.5429570  55.8233126
  84.9510957 130.1420898  53.6535449  85.4265079 130.3348545  52.8454300
  84.0276523 130.1980084  53.4078833  79.5291174 122.1768742  52.6191283
  80.0473118 122.9129769  52.2937771  79.1746307 122.4832735  53.4538042
  71.1090112 127.0373423  40.7352689  70.4159356 127.1117778  40.0792725
  70.8641863 126.2733767  41.2574206  79.7803768 118.5969024  48.1392179
  80.0605522 117.9292213  48.7652606  80.5654375 118.7898120  47.6266843
  83.6512626 127.0186658  51.8863755  84.6030049 127.1184756  51.9075979
  83.4816077 126.2264927  52.3961839  81.6727006 124.1042242  52.0723156
  81.0776938 124.3847254  51.3769644  81.3876703 124.5936142  52.8439897
  77.9684035 129.1088831  37.0433258  78.9143140 128.9795039  37.1121676
  77.5898280 128.3703493  37.5202686  86.2795193 127.0303821  51.0464337
  85.7634241 126.2462278  50.8594266  87.1635141 126.7022538  51.2110857
  83.9405920 120.7744837  47.0060150  83.7430741 120.4659925  47.8903482
  84.5505625 121.5006476  47.1358080  76.1526952 127.0338807  36.9788144
  75.2458408 126.7371920  37.0550857  76.4302933 126.7368625  36.1122430
  77.7689018 121.5775697  43.1332385  76.9589746 121.2322782  43.5087631
  78.4573435 121.2683241  43.7219996  79.6979566 120.6553744  44.7556681
  80.2510605 121.0749197  45.4146705  79.9349653 119.7289492  44.7979637
  75.7212665 126.6440818  60.5359445  75.6209392 127.5935174  60.4671536
  75.5034207 126.3159056  59.6635515  74.9225737 123.8925743  37.1200123
  75.7844901 124.2180641  37.3795940  75.1076081 123.1057238  36.6073188
  83.0758373 122.7654269  44.2635346  82.4957042 123.4239073  43.8813398
  82.8094306 121.9431614  43.8522763  81.5261940 122.1659327  46.4656666
  82.0261718 122.2775861  45.6570985  82.1697548 121.8620380  47.1057474
  75.5843935 130.0737956  59.3524507  75.1011017 130.8738316  59.5588396
  75.6704875 130.0845901  58.3991951  81.8583251 124.9254359  43.3191694
  80.9709106 125.2104010  43.1011889  82.2737240 124.7648123  42.4718971
  85.2097787 124.9500880  47.0346033  85.9858178 125.4397333  47.3070650
  84.4845922 125.3758935  47.4917903  87.6470346 125.6628500  48.0919974
  88.2414837 125.4224236  47.3813282  87.7196930 124.9435630  48.7193510
  81.8324275 130.4408895  43.5341984  81.7759476 130.8977447  42.6949617
  82.3852618 129.6799580  43.3564827  85.6429081 126.2298627  44.3592104
  85.3866015 125.8295263  45.1900311  85.0181949 126.9442421  44.2342243
  82.5659054 131.6313677  40.8294513  82.5107858 131.4657948  39.8882957
  81.9405110 132.3389710  40.9856703  67.3551569 126.8681741  54.6555936
  68.0010433 126.3580695  55.1443161  67.1468720 127.6050423  55.2299361
  75.8755180 121.1321786  40.4079832  75.8633850 122.0763626  40.5648103
  76.7678602 120.9491931  40.1139293  79.6907299 117.7264562  44.6625769
  78.9239695 117.1723049  44.8082451  80.1018004 117.7986431  45.5239920
  71.6949060 124.0149358  58.7530950  72.5580522 123.6586163  58.9634274
  71.1214471 123.6763253  59.4406354  15.6641157  15.3469913  36.2838657
  16.3019567  15.2276661  35.5801997  15.5462000  16.2950757  36.3426610
  12.4730863  15.2997341  36.2200182  12.1349375  15.1838406  35.3320717
  13.3420632  14.8988506  36.2001188  12.9550646  16.4532193  42.1786388
  12.9439287  16.0584991  41.3066891  13.1171286  15.7198266  42.7720159
   5.8782111  18.6484009  35.0481293   6.6703403  18.3074834  34.6327593
   6.1178761  18.7578984  35.9683447   9.6757908  19.2369305  41.1265572
   9.3847773  20.1414936  41.0112238  10.3114892  19.2785833  41.8409641
  10.6014114  16.6146153  37.7166931  11.1977687  16.3902176  37.0023894
  10.6589086  15.8730899  38.3192379  20.6190853  13.0096600  34.2624844
  21.3516025  12.4395817  34.4962673  19.8630208  12.6218201  34.7031350
  18.1416273   6.7218174  38.7219453  17.8099598   7.5913585  38.4980668
  17.5461886   6.4054458  39.4013483  14.6347793  18.9230720  38.1215365
  14.3348516  19.8255759  38.0131173  14.2898852  18.6562904  38.9736518
  18.0344936  11.4413261  35.8012803  17.1261814  11.3728669  35.5071564
  17.9832532  11.9185206  36.6294628   9.6168572  25.6875041  31.0886333
   9.5392602  26.6382866  31.1674814   9.0130216  25.3420913  31.7461259
  12.1085802  12.8602906  43.7447700  11.3319136  13.4196826  43.7350565
  12.7476365  13.3459689  44.2662570  19.9006583   9.6429699  37.5790677
  19.2580963   9.9362232  36.9330471  19.3961511   9.5282619  38.3843873
  10.3632174  15.6688360  43.3065667  11.1046859  16.2073404  43.0300490
   9.6569160  16.2954648  43.4637219  15.8387514  17.8117500  41.9037828
  16.2470870  17.3699911  41.1592461  15.1164776  17.2370128  42.1572021
  12.1918584  12.7490107  39.2771385  13.0379779  13.1729520  39.4206034
  12.1317222  12.0923731  39.9709948  16.1616329  18.3718691  35.6590117
  15.5325191  18.5364405  34.9566185  15.7741991  18.7860300  36.4301081
  20.0405561  19.3073129  33.0134481  19.3556599  19.6872030  32.4631514
  20.1249410  19.9168455  33.7466429  15.3418029  10.4094475  40.9352559
  15.0978961  11.1636536  40.3986835  15.6177960  10.7879823  41.7699806
  17.2956492  16.9533088  39.6129825  17.5073387  17.5964847  38.9364206
  17.2486241  16.1195404  39.1451755  11.7144291  18.1093099  32.9240202
  12.1782636  18.3880802  32.1344825  11.4501089  17.2076543  32.7413293
   8.6068372  17.6564580  35.8619966   9.1769729  18.0851849  35.2237450
   9.1976484  17.3747165  36.5604151   9.0993538  12.8228008  44.1080977
   8.4692199  13.5044289  44.3416374   8.9929626  12.7111089  43.1634115
  18.4102320  19.8305043  37.7852182  19.2319764  19.4285230  37.5034864
  18.4064723  19.7273277  38.7368298  12.1758924  19.3789086  39.9412892
  12.2403356  19.8409493  40.7771064  11.4669848  18.7486451  40.0695202
  26.5008313  16.1743791  34.1337153  25.7472022  15.6051190  33.9781158
  26.6355854  16.1406456  35.0807788   7.1531223  21.6798388  32.4642551
   7.3297852  22.6016353  32.2763535   7.9488057  21.3656807  32.8936931
  13.5175418  21.6680760  43.9392215  13.0739272  20.8817139  43.6213119
  14.1792631  21.8559911  43.2736106   8.2762539  23.1976562  38.4652893
   8.8269964  23.0693625  37.6929887   7.4374015  23.4971451  38.1147786
  15.6156656  21.9483560  41.9673616  15.5975131  22.7692441  41.4753885
  16.5376576  21.8237635  42.1923757  12.0729710  19.4627690  42.8097124
  12.6058047  18.7015978  42.5796432  11.5443791  19.1701341  43.5521279
  18.4175269  16.7862703  35.4382983  17.7598943  17.4761964  35.5263111
  19.2215668  17.1759135  35.7816969  17.2280727  15.1407075  33.4886924
  17.7412609  15.7737067  33.9908634  17.8781951  14.5408271  33.1230285
  13.7061558  12.6156531  35.7345265  12.7884120  12.8371478  35.5766953
  14.1221702  12.6902841  34.8756972  17.9942524  20.1213077  31.6166067
  17.5404851  19.2803987  31.6731258  17.3636490  20.7574475  31.9540847
  16.4375463  21.9589573  32.5515885  16.7298437  22.5194631  31.8328251
  16.9474083  22.2518134  33.3069044  11.4009088  22.7369925  33.6409338
  11.3585267  22.9630771  32.7117870  12.3171787  22.5033299  33.7895140
  14.8474722  13.2053992  40.5389968  15.2024110  13.4325465  41.3984433
  15.4946853  13.5372369  39.9167223  20.5772459  16.3272428  31.2439297
  20.4390357  16.5174024  30.3160486  20.2208678  17.0891811  31.7007348
  20.6041838  18.3948955  36.2550568  21.0378345  18.3024244  37.1033622
  21.3173419  18.3706455  35.6170584   9.5174889  19.6132954  33.4371301
  10.3115487  19.1183274  33.2353876   8.8066581  19.0850817  33.0739007
  14.3369733  21.9951049  37.7883669  14.3906756  22.5641985  38.5561385
  13.4684515  22.1652934  37.4237706  21.4657388  18.4372656  38.7883454
  21.6593278  19.3418466  39.0342729  21.3658006  17.9780075  39.6222039
  16.5272497  18.5879398  44.3624334  16.3758003  18.3589950  43.4454418
  16.5177176  19.5450000  44.3755679  13.2957833  16.1611311  39.3470601
  14.2249893  16.3122471  39.1739568  12.8748863  16.2495332  38.4919247
  12.0946165  20.1861976  37.1169138  11.9557251  19.8180760  37.9895076
  11.3060761  20.7009615  36.9453096  12.6894317  25.2871072  28.4594675
  12.8646073  24.8159115  29.2740297  12.0027105  25.9136838  28.6875936
  13.6451380  19.5643578  34.5057976  13.3101213  19.5244348  35.4015626
  13.1455326  18.8988294  34.0328386   7.6195624  14.9711208  40.0310557
   7.4815422  14.2391447  40.6322096   8.5300547  14.8820108  39.7494745
  10.2477925  14.6831168  39.5194237  10.9577543  14.0424360  39.4780855
  10.2047233  14.9344062  40.4420418  18.2364703  21.6198521  42.4400816
  18.1777249  20.9357741  41.7731399  18.6384222  22.3617511  41.9881442
   7.2555402  28.4360435  35.2334535   7.4952000  29.0678959  35.9113554
   6.4124599  28.0848475  35.5199894  18.2382111  19.5838105  40.6714796
  17.3508889  19.2464027  40.7941195  18.8080662  18.8521136  40.9083561
  11.7683264  24.2439557  37.6376039  11.6953435  25.0494529  38.1495344
  11.3260657  24.4431523  36.8124060  11.5573044  23.4811327  31.1478861
  10.7740565  24.0233007  31.2417085  12.2565789  23.9985307  31.5473102
  22.7199451  14.9946322  35.4331357  22.7089327  15.8771038  35.0625290
  21.8516831  14.6417873  35.2385894  14.2281947  24.1426391  39.7934198
  14.9409920  24.7773856  39.7210099  13.7371976  24.2390257  38.9774199
  15.9499474  18.0477644  31.3651489  15.0155753  18.1679106  31.1956194
  16.1276143  17.1450111  31.1011499  19.3372026  13.8894963  31.9001523
  19.8032478  14.7222955  31.8261826  19.7879526  13.4239945  32.6046782
   9.2793861  21.8920835  40.6139768   9.9803321  22.5257318  40.7669163
   8.8088976  22.2335566  39.8535408  17.0795147  14.4465442  38.4392319
  16.4266597  14.6941350  37.7844772  17.4575527  13.6329580  38.1054796
  14.0402321  24.4825135  32.5420489  14.2224715  23.6646791  33.0048241
  14.8635307  24.6992828  32.1045379  14.3744486  23.4093320  29.8035538
  14.9032253  22.8985775  29.1905700  14.6372706  23.0935851  30.6681071
  13.1282720  15.1885253  44.9258356  12.4523357  15.0879383  45.5960731
  13.9510354  15.0324467  45.3894353   4.8761579  21.4257190  37.5470871
   5.4615016  20.6800878  37.6798775   4.6786418  21.7361146  38.4307535
   7.7300234  24.4608437  32.5633314   7.0610610  24.9454565  32.0797354
   7.5913104  24.7077658  33.4776692  11.8705503  26.4952181  39.1615972
  12.4223811  26.6583802  39.9265057  12.2111696  27.0856618  38.4895997
  16.7216377  21.3213438  45.0164626  17.2656281  21.9343396  44.5219581
  16.1403222  21.8793017  45.5331639  15.0073890  24.4434156  36.1479654
  14.8825030  23.6423896  35.6390600  15.6652981  24.9380350  35.6593624
  17.0708799  22.2443176  37.7759204  16.1239134  22.1248527  37.7037531
  17.4191572  21.3565674  37.8585466  14.0755232  22.0395893  33.9763556
  13.9280194  21.1112600  34.1571126  14.9008725  22.0615983  33.4920632
  17.6789354  22.8624451  35.0628429  18.6035901  22.6567313  34.9252880
  17.5104657  22.6140852  35.9717771  17.4684670  23.3810119  30.4190521
  17.6421547  22.8156541  29.6664373  17.9613561  24.1811014  30.2370011
  23.3224061  16.1446542  32.0380820  23.7655207  15.3953867  31.6399944
  22.4450571  16.1356678  31.6554552  18.4559842  22.6976883  27.5187419
  19.1510747  23.3183576  27.7374733  18.7982993  21.8472234  27.7939797
  20.3551266  20.1476589  29.0474750  20.8802590  20.4863861  28.3224070
  20.2673618  19.2123604  28.8637884  12.0171314  24.0610662  41.1764626
  12.3258441  23.8159809  42.0487326  12.8146796  24.2657301  40.6883496
  12.0391926  26.2148572  33.4070003  11.5996917  25.7224951  34.1002859
  12.7900043  25.6721540  33.1662078   4.5184265  22.4060113  33.4094631
   5.3442285  22.1063885  33.0293274   4.1678317  21.6367735  33.8584420
   9.4865798  21.7586581  35.4792304   8.8645808  21.0957286  35.1794532
  10.1570665  21.7847713  34.7965952  20.0445172  20.7809492  44.3525948
  19.2540715  20.7633631  43.8130447  19.8078526  21.3197786  45.1074984
  20.1643047  17.6301959  41.6658676  20.2141052  17.4651966  42.6074199
  20.0556970  16.7629218  41.2756557  17.4546809  13.6132887  42.9817983
  18.3556672  13.4739352  42.6901981  17.5294784  13.7787341  43.9216160
  11.7889614  10.9899741  41.8271169  10.9192924  11.2833307  41.5553758
  12.0249095  11.5740186  42.5478433  21.6661243  20.0498900  41.9100698
  21.3746052  20.4128881  42.7464159  21.0533375  19.3365908  41.7314030
  22.8656926  17.6151780  34.4303268  23.7003817  18.0541584  34.5940828
  23.0016055  17.1390433  33.6111514  19.9148432  15.1731515  40.3780756
  20.3902553  15.3659161  39.5699607  18.9913997  15.2290701  40.1324139
  18.6150101  12.0497275  38.6109061  19.5667524  12.1495373  38.6321285
  18.4453551  11.2575543  39.1207146  16.6364480   9.1352858  38.7968462
  16.0414412   9.4157871  38.1014951  16.3514177   9.6246759  39.5685203
  21.0938178  15.2703395  37.7251361  21.0614499  14.3319395  37.9111045
  21.7038802  15.3487431  36.9917186  21.2432667  12.0614438  37.7709644
  20.7271716  11.2772895  37.5839573  22.1272615  11.7333155  37.9356164
  26.9114728  16.3319401  36.8657398  27.6418117  16.0704690  37.4265101
  26.3021674  15.5948123  36.9059466  24.9930025  14.4727264  37.4631849
  24.2663189  14.3383229  36.8548340  24.5777312  14.7804093  38.2688567
  12.8160202  18.1917194  45.2279222  13.7363211  18.3695793  45.4219268
  12.7809785  17.2473239  45.0758921   5.8122274  16.1018228  37.8702003
   6.0308284  17.0335336  37.8890037   6.2248048  15.7426203  38.6556807
  10.6850140  11.6751434  47.2604752  10.5846867  12.6245791  47.1916843
  10.4671682  11.3469673  46.3880822  10.5481410  15.1048573  46.0769814
  10.0648492  15.9048933  46.2833703  10.6342349  15.1156518  45.1237258
   6.4754747  18.9953108  38.1138247   7.4298001  18.9637050  38.0468179
   6.2767271  18.5343731  38.9288473   7.0654129  17.5654224  40.6809045
   7.8847018  18.0598302  40.7043882   7.3390937  16.6486192  40.6526613
  20.1735262   9.9811497  33.7591340  20.9495652  10.4707949  34.0315957
  19.4483396  10.4069551  34.2163209  22.6107820  10.6939116  34.8165280
  23.2052311  10.4534852  34.1058589  22.6834404   9.9746247  35.4438817
   4.8304976  24.5372727  35.1308445   4.6959444  23.7773128  34.5646443
   4.4137038  25.2613627  34.6637234  24.9178893  14.0005317  33.5908702
  24.3578451  14.0698506  34.3640264  24.3122396  13.8246302  32.8708198
   7.9874102  25.4342044  35.3426888   7.8706486  26.3787477  35.2405578
   7.1666548  25.1315606  35.7312687  14.8442436  18.9673205  46.8793383
  15.7133595  19.1413857  46.5180018  14.3649187  19.7867622  46.7569112
   9.0128616  26.0870306  38.5582816   9.9155863  26.1193916  38.8749311
   8.7865986  25.1570757  38.5729152  10.7682218  24.8401293  35.2192895
   9.8177849  24.8403154  35.1057267  11.0714704  24.0934027  34.7028930
  26.5034912  30.6761831  36.2838657  27.1413322  30.5568578  35.5801997
  26.3855754  31.6242675  36.3426610  23.3124618  30.6289259  36.2200182
  22.9743129  30.5130324  35.3320717  24.1814386  30.2280424  36.2001188
  19.1711434  32.4824735  32.2097073  18.6076299  32.3914672  31.4413361
  19.0563829  31.6624640  32.6899566  23.7944401  31.7824111  42.1786388
  23.7833042  31.3876909  41.3066891  23.9565040  31.0490183  42.7720159
  16.7175865  33.9775927  35.0481293  17.5097157  33.6366752  34.6327593
  16.9572516  34.0870902  35.9683447  24.7510992  36.1495703  27.5211538
  24.0998972  36.7349784  27.1345552  25.5455355  36.6801898  27.5806575
  18.6766619  33.2384840  27.9198672  19.4497495  32.6913827  27.7811548
  19.0292018  34.1029090  28.1313134  20.5151662  34.5661223  41.1265572
  20.2241528  35.4706853  41.0112238  21.1508646  34.6077750  41.8409641
  21.4407869  31.9438071  37.7166931  22.0371441  31.7194094  37.0023894
  21.4982840  31.2022817  38.3192379  21.0132897  29.3977506  25.5517122
  21.2658418  28.8759028  24.7900585  20.0757456  29.2343652  25.6543806
  26.0576180  28.4013285  33.3591865  26.8439269  27.9832708  33.0082282
  26.3214884  29.3059377  33.5273514  26.2286257  33.8386135  28.0580522
  25.5932090  33.9120762  28.7701427  25.8983664  34.4279734  27.3799601
  31.4584607  28.3388518  34.2624844  32.1909779  27.7687735  34.4962673
  30.7023963  27.9510118  34.7031350  20.7329186  31.3005612  27.7541497
  20.6165444  30.6250516  28.4222581  20.8431446  30.8137986  26.9373650
  23.0760727  30.7615760  31.4588186  22.7118934  30.2346380  32.1701108
  23.9327843  30.3714229  31.2854672  28.9810028  22.0510092  38.7219453
  28.6493352  22.9205503  38.4980668  28.3855641  21.7346376  39.4013483
  22.7166214  25.7905659  26.4549535  22.8840616  26.6585896  26.8220006
  22.5263383  25.9532941  25.5310824  25.4741547  34.2522638  38.1215365
  25.1742270  35.1547677  38.0131173  25.1292607  33.9854821  38.9736518
  18.9254029  30.7036435  34.1552070  18.0004525  30.5712649  34.3629761
  19.1738442  31.4830654  34.6522012  28.8738691  26.7705178  35.8012803
  27.9655568  26.7020587  35.5071564  28.8226287  27.2477123  36.6294628
  22.6955435  28.2463317  27.4396202  22.5755060  28.6920367  28.2781682
  22.0008023  28.5948634  26.8809740  16.2862840  30.3469708  34.9895859
  16.4155221  30.6004187  35.9035270  15.6060291  30.9397416  34.6700514
  20.4562327  41.0166958  31.0886333  20.3786357  41.9674784  31.1674814
  19.8523970  40.6712831  31.7461259  22.9479557  28.1894824  43.7447700
  22.1712891  28.7488744  43.7350565  23.5870120  28.6751607  44.2662570
  30.7400337  24.9721617  37.5790677  30.0974718  25.2654150  36.9330471
  30.2355266  24.8574537  38.3843873  28.3940501  28.7184790  28.2676536
  29.3058357  28.9512177  28.0924233  27.8850148  29.3021834  27.7051614
  21.2025929  30.9980277  43.3065667  21.9440613  31.5365321  43.0300490
  20.4962914  31.6246566  43.4637219  26.6781269  33.1409418  41.9037828
  27.0864625  32.6991828  41.1592461  25.9558530  32.5662045  42.1572021
  23.0312339  28.0782024  39.2771385  23.8773534  28.5021438  39.4206034
  22.9710976  27.4215649  39.9709948  27.0010083  33.7010608  35.6590117
  26.3718946  33.8656322  34.9566185  26.6135745  34.1152218  36.4301081
  30.8799315  34.6365046  33.0134481  30.1950353  35.0163948  32.4631514
  30.9643164  35.2460373  33.7466429  26.1811784  25.7386393  40.9352559
  25.9372716  26.4928453  40.3986835  26.4571714  26.1171740  41.7699806
  28.1350247  32.2825005  39.6129825  28.3467142  32.9256765  38.9364206
  28.0879995  31.4487322  39.1451755  25.7376476  24.8942826  36.5166397
  24.8760955  25.1924079  36.8083134  25.7638910  25.1113225  35.5847429
  22.5538045  33.4385016  32.9240202  23.0176391  33.7172719  32.1344825
  22.2894843  32.5368461  32.7413293  19.4462126  32.9856498  35.8619966
  20.0163483  33.4143766  35.2237450  20.0370238  32.7039083  36.5604151
  21.4906931  29.5608169  29.7329767  22.1930975  30.0129212  30.2003694
  21.1587560  28.9191988  30.3609661  19.9387293  28.1519925  44.1080977
  19.3085953  28.8336206  44.3416374  19.8323381  28.0403007  43.1634115
  15.2332265  27.8191721  35.0346901  14.4431319  28.0749250  34.5587012
  15.7243513  28.6340059  35.1398942  29.2496075  35.1596961  37.7852182
  30.0713518  34.7577148  37.5034864  29.2458478  35.0565195  38.7368298
  17.1847011  28.1836301  31.9930378  16.3878174  28.2954995  32.5113873
  16.9572603  28.5222953  31.1271268  23.0152678  34.7081004  39.9412892
  23.0797111  35.1701411  40.7771064  22.3063602  34.0778369  40.0695202
  13.5169968  28.0722212  37.4661892  13.7678007  28.9569222  37.7319468
  14.0529517  27.8926813  36.6936984  37.3402068  31.5035709  34.1337153
  36.5865776  30.9343107  33.9781158  37.4749609  31.4698374  35.0807788
  22.7300696  36.3749111  29.8091873  22.5946371  37.2200647  30.2376721
  23.2710508  36.5768389  29.0457806  19.2168035  22.4540691  46.4706228
  18.8234981  21.9006890  47.1453872  20.0334176  22.7651270  46.8612745
  16.1830093  33.8924549  30.3819798  16.6954614  34.6867800  30.5325362
  16.8352806  33.1950840  30.3153399  17.9924978  37.0090306  32.4642551
  18.1691606  37.9308270  32.2763535  18.7881811  36.6948725  32.8936931
  22.1335996  23.8698570  44.0626484  22.8745710  24.4705723  43.9830947
  22.3653919  23.1276208  43.5044527  17.2777334  29.0554938  42.3404714
  17.1630850  28.1540195  42.6411813  16.4221852  29.3018634  41.9889531
  24.3569172  36.9972678  43.9392215  23.9133026  36.2109056  43.6213119
  25.0186386  37.1851828  43.2736106  19.1156293  38.5268480  38.4652893
  19.6663718  38.3985543  37.6929887  18.2767769  38.8263369  38.1147786
  26.4550410  37.2775478  41.9673616  26.4368886  38.0984359  41.4753885
  27.3770330  37.1529553  42.1923757  22.9123464  34.7919607  42.8097124
  23.4451801  34.0307896  42.5796432  22.3837545  34.4993259  43.5521279
  26.0793159  19.8979673  38.3390766  25.7357429  20.7881315  38.2629877
  26.4472122  19.7081331  37.4760351  14.1479010  32.2213204  31.1579368
  14.9854232  32.6310212  30.9413076  14.3257278  31.2812646  31.1279562
  26.0443442  29.8888284  26.8463201  25.5290066  30.6592889  27.0851589
  25.7720751  29.2153421  27.4696263  23.6290553  24.7337985  31.9048440
  22.7732149  24.3444836  31.7254078  24.0417505  24.8129946  31.0448225
  25.1589700  22.2684328  36.3039999  24.6554495  22.2314464  35.4907805
  25.4520307  23.1777071  36.3636656  21.4032586  22.3523058  35.3106181
  22.2685582  22.1565867  34.9512071  21.4710095  22.1233410  36.2375538
  31.0177716  32.6420639  28.7816375  30.2407159  32.3031799  28.3371537
  31.6969197  32.6473262  28.1071340  25.8329745  27.7615376  28.6722982
  25.5279881  28.0761526  29.5233126  26.7860187  27.8396796  28.7150315
  24.2776177  33.9205600  30.3215936  23.7497539  33.1858359  30.0089174
  23.7763680  34.6980276  30.0755905  29.2569023  32.1154620  35.4382983
  28.5992698  32.8053882  35.5263111  30.0609422  32.5051052  35.7816969
  19.0094905  24.5825266  32.6822548  19.5838657  24.3600448  31.9495741
  19.5965887  24.6513961  33.4351149  28.0674482  30.4698993  33.4886924
  28.5806364  31.1028985  33.9908634  28.7175706  29.8700188  33.1230285
  19.3364492  26.6129727  26.7018433  18.5001804  26.9504414  27.0227708
  19.1969261  26.4778707  25.7645570  21.3117572  21.4566515  31.4097617
  20.6581985  21.1415532  30.7854232  21.2698047  20.8342255  32.1357440
  22.4228777  31.7385810  23.3250909  21.5155839  31.5075064  23.5242058
  22.9199809  30.9423429  23.5124891  25.3296856  40.4483317  26.2447596
  24.6558555  40.7515014  26.8532553  25.7162678  41.2512398  25.8953053
  24.5455313  27.9448449  35.7345265  23.6277874  28.1663396  35.5766953
  24.9615456  28.0194759  34.8756972  25.3290361  29.3439864  30.8647945
  26.0762179  29.8561261  30.5555067  25.5981950  29.0223917  31.7252339
  23.6017011  31.8398405  27.8474900  22.6928230  31.5557438  27.9447369
  23.6312095  32.2597484  26.9878206  28.8336278  35.4504994  31.6166067
  28.3798605  34.6095904  31.6731258  28.2030245  36.0866393  31.9540847
  27.7769198  26.3796980  32.8466735  27.0391954  25.8674367  33.1776977
  28.0295971  25.9397362  32.0350011  27.2769217  37.2881491  32.5515885
  27.5692192  37.8486548  31.8328251  27.7867838  37.5810052  33.3069044
  27.8780825  19.1573232  33.4408504  28.1839702  18.2970596  33.1534419
  28.6033430  19.7490853  33.2407498  14.1705181  29.5603919  31.8290102
  13.9729581  28.9673280  31.1041168  13.6151845  29.2556129  32.5466041
  22.1501905  29.4527026  33.9484695  22.2050515  28.5000862  33.8727171
  21.3393107  29.6086465  34.4325993  23.2993099  33.3807149  25.1862978
  22.8612528  32.6643008  24.7268615  24.0403539  33.6083263  24.6248070
  20.0894265  28.0704085  31.7075074  19.2762130  28.3698256  32.1140266
  20.5853259  27.6759774  32.4249556  22.2402843  38.0661842  33.6409338
  22.1979021  38.2922689  32.7117870  23.1565541  37.8325217  33.7895140
  25.6868476  28.5345910  40.5389968  26.0417864  28.7617383  41.3984433
  26.3340608  28.8664287  39.9167223  31.4166213  31.6564346  31.2439297
  31.2784112  31.8465942  30.3160486  31.0602432  32.4183728  31.7007348
  19.5808339  25.6422441  37.3236309  20.2207719  25.5011200  36.6259272
  18.7485870  25.3556954  36.9474911  31.4435593  33.7240873  36.2550568
  31.8772100  33.6316162  37.1033622  32.1567174  33.6998373  35.6170584
  20.3568643  34.9424871  33.4371301  21.1509242  34.4475191  33.2353876
  19.6460336  34.4142734  33.0739007  25.1763488  37.3242967  37.7883669
  25.2300510  37.8933903  38.5561385  24.3078269  37.4944852  37.4237706
  16.6651407  29.0867953  29.5131054  15.7348995  29.0252408  29.7301016
  16.7608879  28.5643906  28.7167695  16.5836956  25.6122766  32.1009296
  16.8443773  26.5268099  31.9918456  17.4054128  25.1447208  32.2505908
  18.0561881  27.0260523  39.2708120  18.7284935  26.8177885  38.6220769
  17.2291668  26.8282609  38.8313352  32.3051142  33.7664573  38.7883454
  32.4987033  34.6710384  39.0342729  32.2051761  33.3071992  39.6222039
  23.9587453  23.6522464  41.2873781  23.3115368  24.3512414  41.1938257
  24.7288469  24.0858608  41.6550029  27.3666251  33.9171316  44.3624334
  27.2151758  33.6881868  43.4454418  27.3570931  34.8741917  44.3755679
  24.1351588  31.4903229  39.3470601  25.0643648  31.6414388  39.1739568
  23.7142618  31.5787250  38.4919247  22.9339919  35.5153893  37.1169138
  22.7951005  35.1472678  37.9895076  22.1454516  36.0301533  36.9453096
  23.5288071  40.6162990  28.4594675  23.7039827  40.1451033  29.2740297
  22.8420859  41.2428756  28.6875936  24.4845134  34.8935496  34.5057976
  24.1494967  34.8536266  35.4015626  23.9849080  34.2280212  34.0328386
  18.4589378  30.3003126  40.0310557  18.3209176  29.5683365  40.6322096
  19.3694302  30.2112026  39.7494745  27.4204326  32.2391530  24.7795036
  26.8033497  31.5138358  24.6828088  26.9520815  33.0000891  24.4362110
  21.0871679  30.0123085  39.5194237  21.7971298  29.3716277  39.4780855
  21.0440987  30.2635980  40.4420418  29.0758458  36.9490439  42.4400816
  29.0171004  36.2649659  41.7731399  29.4777976  37.6909429  41.9881442
  19.8000613  26.9988303  41.3389876  19.2637970  26.5479042  41.9911473
  19.2117322  27.1334212  40.5960341  18.0949157  43.7652352  35.2334535
  18.3345755  44.3970877  35.9113554  17.2518353  43.4140392  35.5199894
  29.0775865  34.9130023  40.6714796  28.1902644  34.5755944  40.7941195
  29.6474416  34.1813054  40.9083561  10.7305012  31.2454114  33.9957847
  11.4176052  30.9315844  33.4078862  10.5753141  32.1495479  33.7225099
  15.5339734  26.1344311  38.4242871  15.4497923  25.5269980  37.6893281
  14.7122441  26.6253329  38.4252367  22.6077018  39.5731475  37.6376039
  22.5347190  40.3786446  38.1495344  22.1654412  39.7723441  36.8124060
  22.3966798  38.8103245  31.1478861  21.6134320  39.3524925  31.2417085
  23.0959543  39.3277225  31.5473102  25.7063448  24.6197874  33.7913066
  26.2032148  23.8667837  33.4714136  24.9350430  24.6562191  33.2256275
  33.5593206  30.3238240  35.4331357  33.5483082  31.2062955  35.0625290
  32.6910585  29.9709791  35.2385894  25.0675702  39.4718309  39.7934198
  25.7803674  40.1065774  39.7210099  24.5765731  39.5682175  38.9774199
  26.7893229  33.3769562  31.3651489  25.8549508  33.4971024  31.1956194
  26.9669897  32.4742028  31.1011499  22.2898417  26.7615257  33.5184750
  21.9196204  26.2086298  34.2065656  22.7857509  26.1573391  32.9659751
  30.1765780  29.2186881  31.9001523  30.6426232  30.0514872  31.8261826
  30.6273281  28.7531862  32.6046782  20.1187616  37.2212752  40.6139768
  20.8197075  37.8549235  40.7669163  19.6482731  37.5627484  39.8535408
  28.2442011  35.5630702  28.8987675  28.5201855  35.4487297  29.8081550
  27.3746510  35.1648187  28.8599849  28.1482443  21.5867468  35.9392425
  27.2345523  21.8171695  36.1074632  28.5775544  21.6705912  36.7906457
  27.9188901  29.7757360  38.4392319  27.2660352  30.0233267  37.7844772
  28.2969281  28.9621498  38.1054796  24.8796075  39.8117053  32.5420489
  25.0618470  38.9938709  33.0048241  25.7029061  40.0284745  32.1045379
  25.2138241  38.7385238  29.8035538  25.7426007  38.2277693  29.1905700
  25.4766460  38.4227768  30.6681071  23.9676475  30.5177171  44.9258356
  23.2917112  30.4171300  45.5960731  24.7904108  30.3616385  45.3894353
  15.7155334  36.7549107  37.5470871  16.3008770  36.0092795  37.6798775
  15.5180172  37.0653064  38.4307535  18.5693989  39.7900355  32.5633314
  17.9004364  40.2746482  32.0797354  18.4306858  40.0369575  33.4776692
  10.3072988  29.3254708  36.2675314  10.3457088  28.7918298  37.0612432
   9.8013281  28.7989913  35.6486291  22.7099257  41.8244098  39.1615972
  23.2617565  41.9875720  39.9265057  23.0505451  42.4148536  38.4895997
  17.6863751  24.1719248  39.7637857  17.7505077  25.0334079  39.3515254
  17.6230871  23.5593250  39.0310215  17.1616023  26.2442381  43.4110891
  17.7888062  25.8619458  44.0248415  16.3043942  26.0256583  43.7766583
  27.5610132  36.6505356  45.0164626  28.1050036  37.2635314  44.5219581
  26.9796977  37.2084934  45.5331639  13.9381566  28.0518810  29.3429246
  14.2335007  27.1429488  29.2896299  13.0369602  28.0306549  29.0210248
  25.8467645  39.7726074  36.1479654  25.7218784  38.9715814  35.6390600
  26.5046736  40.2672267  35.6593624  17.4675813  26.1274806  35.3256794
  16.7462399  26.7410774  35.1864268  18.2569069  26.6632571  35.2473440
  27.9102553  37.5735094  37.7759204  26.9632889  37.4540445  37.7037531
  28.2585326  36.6857592  37.8585466  20.2702126  23.4629233  41.5997446
  20.7936528  23.7091529  42.3623755  20.0514460  24.2949268  41.1800583
  15.6669407  25.7332907  29.4668571  15.3382114  24.8530286  29.2843677
  16.0208778  25.6780576  30.3544960  24.9148986  37.3687810  33.9763556
  24.7673949  36.4404518  34.1571126  25.7402480  37.3907901  33.4920632
  18.7811231  26.0205877  29.8344049  19.1207303  26.5491799  29.1122657
  19.2283351  26.3586283  30.6102615  28.5183108  38.1916369  35.0628429
  29.4429656  37.9859230  34.9252880  28.3498412  37.9432770  35.9717771
  21.4754671  24.4042928  39.2847117  21.1351492  23.6050741  39.6867796
  20.7693678  24.7044639  38.7123950  22.1271143  21.4892240  37.7374440
  22.9497213  21.0152719  37.6153330  22.3709207  22.2682724  38.2373126
  20.7679378  24.5180499  28.0337341  21.4887740  24.8961752  27.5301058
  20.1444682  25.2369376  28.1372319  24.9110501  25.2225648  28.9695674
  25.1274115  26.1050286  28.6684502  24.4304568  24.8311861  28.2401316
  19.6509722  28.1811361  35.5466418  19.5054303  28.4951664  36.4390700
  19.1734926  28.7996261  34.9937317  21.5106105  25.1713909  35.5947308
  21.4967674  24.2755002  35.2579606  22.2278533  25.1784573  36.2285594
  23.3632236  25.6051249  37.6400435  23.1050013  26.5268320  37.6384766
  22.8317276  25.2081684  38.3300899  28.3078424  38.7102036  30.4190521
  28.4815302  38.1448459  29.6664373  28.8007316  39.5102931  30.2370011
  14.1255384  30.7216705  38.4854079  13.5808852  31.4976513  38.6174354
  15.0034734  31.0687510  38.3273201  20.9143001  24.0528289  30.8634878
  21.0358912  23.1244935  31.0625765  20.6245043  24.0666975  29.9513193
  23.7834191  21.7383200  34.0001598  23.8055888  21.8022533  33.0453577
  24.2002250  20.8987708  34.1942104  34.1617816  31.4738459  32.0380820
  34.6048962  30.7245785  31.6399944  33.2844326  31.4648596  31.6554552
  29.2953597  38.0268801  27.5187419  29.9904502  38.6475493  27.7374733
  29.6376747  37.1764152  27.7939797  14.9121406  29.8486602  41.3784236
  14.1703142  29.9969237  41.9648867  14.5914150  30.1094867  40.5150986
  31.1945020  35.4768506  29.0474750  31.7196344  35.8155779  28.3224070
  31.1067373  34.5415522  28.8637884  22.8565069  39.3902580  41.1764626
  23.1652195  39.1451727  42.0487326  23.6540551  39.5949218  40.6883496
  22.8785681  41.5440490  33.4070003  22.4390671  41.0516868  34.1002859
  23.6293798  41.0013457  33.1662078  15.3578020  37.7352030  33.4094631
  16.1836040  37.4355802  33.0293274  15.0072072  36.9659653  33.8584420
  20.3259553  37.0878499  35.4792304  19.7039562  36.4249204  35.1794532
  20.9964420  37.1139631  34.7965952  13.5586625  35.6538357  34.3683564
  12.7218533  35.2260531  34.1867566  13.5310270  35.8470800  35.3054356
  20.3984080  25.5660287  45.0724810  20.4472236  26.4422409  44.6902580
  20.9406595  25.0237680  44.4996454  30.8838926  36.1101410  44.3525948
  30.0934470  36.0925549  43.8130447  30.6472281  36.6489704  45.1074984
  31.0036801  32.9593876  41.6658676  31.0534806  32.7943884  42.6074199
  30.8950724  32.0921135  41.2756557  19.8873060  35.6382422  28.9550765
  20.0361180  36.3217886  28.3017438  20.6939503  35.6187512  29.4700221
  28.2940564  28.9424804  42.9817983  29.1950426  28.8031269  42.6901981
  28.3688538  29.1079259  43.9216160  22.6283369  26.3191659  41.8271169
  21.7586678  26.6125225  41.5553758  22.8642849  26.9032104  42.5478433
  32.5054998  35.3790818  41.9100698  32.2139806  35.7420798  42.7464159
  31.8927129  34.6657826  41.7314030  33.7050680  32.9443698  34.4303268
  34.5397572  33.3833502  34.5940828  33.8409809  32.4682351  33.6111514
  30.7542186  30.5023432  40.3780756  31.2296308  30.6951079  39.5699607
  29.8307752  30.5582618  40.1324139  17.6425693  31.6647600  29.9611834
  17.3971735  30.7609930  30.1592044  17.8121607  31.6664750  29.0191312
  25.3322403  22.5371276  39.3436590  25.8504347  23.2732303  39.0183078
  24.9777535  22.8435269  40.1783349  16.9121340  27.3975957  27.4597995
  16.2190585  27.4720312  26.8038031  16.6673092  26.6336301  27.9819512
  25.5834997  18.9571559  34.8637486  25.8636751  18.2894748  35.4897913
  26.3685604  19.1500654  34.3512150  23.3868465  38.1330552  26.4262512
  22.8142432  38.7520740  25.9732984  23.9601259  38.6829914  26.9602434
  29.4543855  27.3789193  38.6109061  30.4061278  27.4787290  38.6321285
  29.2847306  26.5867461  39.1207146  27.4758235  24.4644776  38.7968462
  26.8808167  24.7449788  38.1014951  27.1907931  24.9538677  39.5685203
  26.6065725  38.4167703  27.5571095  27.5396398  38.3513264  27.7603970
  26.5188938  39.2523969  27.0985627  29.2353742  37.7333573  24.5175042
  29.1567373  37.3993437  25.4110800  30.0563409  38.2255341  24.5166515
  31.9331933  30.5995312  37.7251361  31.9008253  29.6611313  37.9111045
  32.5432557  30.6779349  36.9917186  23.7715264  29.4691365  23.7678565
  24.7174369  29.3397573  23.8366983  23.3929509  28.7306027  24.2447993
  32.0826421  27.3906356  37.7709644  31.5665470  26.6064812  37.5839573
  32.9666370  27.0625072  37.9356164  29.7437148  21.1347371  33.7305457
  29.5461970  20.8262459  34.6148789  30.3536854  21.8609010  33.8603387
  37.7508483  31.6611319  36.8657398  38.4811871  31.3996607  37.4265101
  37.1415428  30.9240041  36.9059466  35.8323780  29.8019182  37.4631849
  35.1056944  29.6675147  36.8548340  35.4171067  30.1096010  38.2688567
  23.6553956  33.5209111  45.2279222  24.5756966  33.6987710  45.4219268
  23.6203539  32.5765157  45.0758921  21.9558181  27.3941342  23.7033450
  21.0489636  27.0974454  23.7796164  22.2334162  27.0971160  22.8367736
  12.8736121  28.7147705  34.1532497  12.5538906  27.8613013  33.8606871
  12.3269550  28.9296283  34.9090464  16.6516029  31.4310146  37.8702003
  16.8702039  32.3627254  37.8890037  17.0641803  31.0718120  38.6556807
  23.5720247  21.9378231  29.8577691  22.7620975  21.5925316  30.2332938
  24.2604664  21.6285775  30.4465303  25.5010795  21.0156278  31.4801988
  26.0541834  21.4351732  32.1392011  25.7380881  20.0892026  31.5224944
  21.5243894  27.0043352  47.2604752  21.4240621  27.9537709  47.1916843
  21.3065436  26.6761591  46.3880822  12.7424381  32.3350616  36.1225618
  12.0487853  31.9204569  35.6095573  13.4897372  32.3771153  35.5259037
  28.8789602  23.1256803  30.9880652  28.2988271  23.7841607  30.6058705
  28.6125535  22.3034148  30.5768070  27.3293168  22.5261861  33.1901973
  27.8292947  22.6378396  32.3816292  27.9728776  22.2222914  33.8302781
  21.3875164  30.4340491  46.0769814  20.9042246  31.2340851  46.2833703
  21.4736103  30.4448435  45.1237258  14.6561124  32.2668870  33.9991633
  14.6331812  32.3656558  33.0473516  14.9661760  33.1134021  34.3208799
  17.3148502  34.3245025  38.1138247  18.2691755  34.2928968  38.0468179
  17.1161025  33.8635649  38.9288473  17.9047884  32.8946141  40.6809045
  18.7240773  33.3890220  40.7043882  18.1784692  31.9778109  40.6526613
  27.6614480  25.2856894  30.0437001  26.7740335  25.5706544  29.8257195
  28.0768469  25.1250657  29.1964278  31.0129016  25.3103415  33.7591340
  31.7889406  25.7999867  34.0315957  30.2877150  25.7361469  34.2163209
  33.4501575  26.0231034  34.8165280  34.0446066  25.7826770  34.1058589
  33.5228159  25.3038164  35.4438817  15.6698731  39.8664645  35.1308445
  15.5353198  39.1065046  34.5646443  15.2530793  40.5905545  34.6637234
  26.8057694  35.0501568  24.1385021  27.5093544  35.2551571  24.7542676
  26.0820342  35.6178330  24.4034104  27.6355504  30.8011430  30.2587291
  27.5790705  31.2579981  29.4194923  28.1883846  30.0402114  30.0810134
  31.4460310  26.5901161  31.0837410  31.1897244  26.1897797  31.9145618
  30.8213178  27.3044955  30.9587549  35.7572648  29.3297235  33.5908702
  35.1972206  29.3990424  34.3640264  35.1516151  29.1538219  32.8708198
  18.8267856  40.7633962  35.3426888  18.7100241  41.7079394  35.2405578
  18.0060303  40.4607523  35.7312687  28.7144391  35.4884098  26.1883481
  29.5489995  35.0565296  26.0060955  28.5528734  35.3166111  27.1160375
  28.3690283  31.9916211  27.5539820  28.3139087  31.8260482  26.6128264
  27.7436338  32.6992244  27.7102010  13.1582798  27.2284275  41.3801242
  13.8041662  26.7183229  41.8688467  12.9499949  27.9652957  41.9544667
  25.6836190  34.2965123  46.8793383  26.5527350  34.4705775  46.5180018
  25.2042942  35.1159540  46.7569112  21.6786409  21.4924320  27.1325138
  21.6665078  22.4366160  27.2893409  22.5709830  21.3094465  26.8384600
  19.8522371  41.4162224  38.5582816  20.7549617  41.4485834  38.8749311
  19.6259741  40.4862675  38.5729152  21.6075973  40.1693210  35.2192895
  20.6571604  40.1695072  35.1057267  21.9108459  39.4225945  34.7028930
  25.4938528  18.0867096  31.3871075  24.7270924  17.5325583  31.5327757
  25.9049233  18.1588965  32.2485227  17.4980289  24.3751892  45.4776256
  18.3611751  24.0188697  45.6879581  16.9245700  24.0365787  46.1651661
  37.3428666  46.0053749  36.2838657  37.9807076  45.8860496  35.5801997
  37.2249509  46.9534593  36.3426610  34.1518372  45.9581177  36.2200182
  33.8136884  45.8422241  35.3320717  35.0208141  45.5572342  36.2001188
  30.0105188  47.8116653  32.2097073  29.4470053  47.7206590  31.4413361
  29.8957583  46.9916558  32.6899566  34.6338155  47.1116028  42.1786388
  34.6226796  46.7168827  41.3066891  34.7958795  46.3782101  42.7720159
  27.5569620  49.3067845  35.0481293  28.3490912  48.9658669  34.6327593
  27.7966270  49.4162820  35.9683447  35.5904747  51.4787621  27.5211538
  34.9392727  52.0641701  27.1345552  36.3849110  52.0093816  27.5806575
  29.5160374  48.5676758  27.9198672  30.2891250  48.0205745  27.7811548
  29.8685773  49.4321007  28.1313134  31.3545416  49.8953140  41.1265572
  31.0635282  50.7998771  41.0112238  31.9902401  49.9369668  41.8409641
  32.2801623  47.2729989  37.7166931  32.8765196  47.0486011  37.0023894
  32.3376595  46.5314734  38.3192379  31.8526652  44.7269424  25.5517122
  32.1052172  44.2050945  24.7900585  30.9151211  44.5635570  25.6543806
  36.8969935  43.7305202  33.3591865  37.6833024  43.3124626  33.0082282
  37.1608639  44.6351295  33.5273514  37.0680012  49.1678053  28.0580522
  36.4325845  49.2412679  28.7701427  36.7377418  49.7571652  27.3799601
  42.2978362  43.6680436  34.2624844  43.0303534  43.0979652  34.4962673
  41.5417717  43.2802036  34.7031350  31.5722940  46.6297530  27.7541497
  31.4559199  45.9542433  28.4222581  31.6825200  46.1429904  26.9373650
  33.9154481  46.0907677  31.4588186  33.5512689  45.5638298  32.1701108
  34.7721597  45.7006146  31.2854672  39.8203782  37.3802010  38.7219453
  39.4887107  38.2497421  38.4980668  39.2249395  37.0638294  39.4013483
  33.5559968  41.1197577  26.4549535  33.7234371  41.9877813  26.8220006
  33.3657137  41.2824859  25.5310824  36.3135302  49.5814556  38.1215365
  36.0136025  50.4839595  38.0131173  35.9686361  49.3146739  38.9736518
  29.7647783  46.0328353  34.1552070  28.8398280  45.9004567  34.3629761
  30.0132196  46.8122572  34.6522012  39.7132445  42.0997096  35.8012803
  38.8049323  42.0312504  35.5071564  39.6620041  42.5769041  36.6294628
  33.5349189  43.5755234  27.4396202  33.4148814  44.0212285  28.2781682
  32.8401778  43.9240552  26.8809740  27.1256594  45.6761626  34.9895859
  27.2548975  45.9296105  35.9035270  26.4454045  46.2689334  34.6700514
  31.2956081  56.3458876  31.0886333  31.2180111  57.2966701  31.1674814
  30.6917725  56.0004749  31.7461259  33.7873311  43.5186742  43.7447700
  33.0106645  44.0780662  43.7350565  34.4263874  44.0043525  44.2662570
  41.5794092  40.3013534  37.5790677  40.9368472  40.5946068  36.9330471
  41.0749020  40.1866455  38.3843873  39.2334255  44.0476708  28.2676536
  40.1452112  44.2804094  28.0924233  38.7243902  44.6313752  27.7051614
  32.0419683  46.3272195  43.3065667  32.7834368  46.8657239  43.0300490
  31.3356669  46.9538484  43.4637219  37.5175023  48.4701335  41.9037828
  37.9258379  48.0283746  41.1592461  36.7952285  47.8953963  42.1572021
  33.8706093  43.4073942  39.2771385  34.7167288  43.8313356  39.4206034
  33.8104731  42.7507566  39.9709948  37.8403838  49.0302526  35.6590117
  37.2112700  49.1948240  34.9566185  37.4529500  49.4444136  36.4301081
  41.7193070  49.9656964  33.0134481  41.0344108  50.3455865  32.4631514
  41.8036919  50.5752291  33.7466429  37.0205538  41.0678311  40.9352559
  36.7766470  41.8220371  40.3986835  37.2965469  41.4463658  41.7699806
  38.9744001  47.6116923  39.6129825  39.1860896  48.2548683  38.9364206
  38.9273749  46.7779239  39.1451755  36.5770230  40.2234744  36.5166397
  35.7154709  40.5215997  36.8083134  36.6032665  40.4405142  35.5847429
  33.3931800  48.7676934  32.9240202  33.8570145  49.0464637  32.1344825
  33.1288598  47.8660379  32.7413293  30.2855881  48.3148416  35.8619966
  30.8557238  48.7435684  35.2237450  30.8763993  48.0331000  36.5604151
  32.3300686  44.8900086  29.7329767  33.0324729  45.3421130  30.2003694
  31.9981314  44.2483905  30.3609661  30.7781047  43.4811843  44.1080977
  30.1479708  44.1628124  44.3416374  30.6717135  43.3694925  43.1634115
  26.0726020  43.1483639  35.0346901  25.2825074  43.4041168  34.5587012
  26.5637267  43.9631977  35.1398942  40.0889829  50.4888878  37.7852182
  40.9107273  50.0869066  37.5034864  40.0852232  50.3857112  38.7368298
  28.0240765  43.5128218  31.9930378  27.2271928  43.6246913  32.5113873
  27.7966357  43.8514871  31.1271268  33.8546433  50.0372922  39.9412892
  33.9190865  50.4993329  40.7771064  33.1457357  49.4070287  40.0695202
  24.3563723  43.4014130  37.4661892  24.6071761  44.2861139  37.7319468
  24.8923271  43.2218731  36.6936984  48.1795822  46.8327627  34.1337153
  47.4259531  46.2635025  33.9781158  48.3143363  46.7990291  35.0807788
  33.5694450  51.7041029  29.8091873  33.4340125  52.5492565  30.2376721
  34.1104263  51.9060307  29.0457806  30.0561790  37.7832609  46.4706228
  29.6628735  37.2298807  47.1453872  30.8727930  38.0943187  46.8612745
  27.0223848  49.2216467  30.3819798  27.5348368  50.0159717  30.5325362
  27.6746561  48.5242758  30.3153399  28.8318732  52.3382223  32.4642551
  29.0085361  53.2600188  32.2763535  29.6275566  52.0240643  32.8936931
  32.9729751  39.1990488  44.0626484  33.7139464  39.7997641  43.9830947
  33.2047674  38.4568126  43.5044527  28.1171089  44.3846855  42.3404714
  28.0024604  43.4832113  42.6411813  27.2615607  44.6310552  41.9889531
  35.1962927  52.3264596  43.9392215  34.7526781  51.5400974  43.6213119
  35.8580140  52.5143746  43.2736106  29.9550048  53.8560397  38.4652893
  30.5057473  53.7277461  37.6929887  29.1161524  54.1555286  38.1147786
  37.2944165  52.6067396  41.9673616  37.2762640  53.4276277  41.4753885
  38.2164085  52.4821471  42.1923757  33.7517219  50.1211525  42.8097124
  34.2845556  49.3599813  42.5796432  33.2231300  49.8285177  43.5521279
  36.9186914  35.2271591  38.3390766  36.5751183  36.1173233  38.2629877
  37.2865876  35.0373249  37.4760351  24.9872764  47.5505121  31.1579368
  25.8247986  47.9602130  30.9413076  25.1651032  46.6104564  31.1279562
  36.8837197  45.2180202  26.8463201  36.3683820  45.9884807  27.0851589
  36.6114505  44.5445338  27.4696263  34.4684308  40.0629903  31.9048440
  33.6125904  39.6736753  31.7254078  34.8811259  40.1421864  31.0448225
  35.9983454  37.5976246  36.3039999  35.4948250  37.5606381  35.4907805
  36.2914061  38.5068989  36.3636656  32.2426340  37.6814976  35.3106181
  33.1079337  37.4857785  34.9512071  32.3103849  37.4525328  36.2375538
  41.8571471  47.9712557  28.7816375  41.0800913  47.6323716  28.3371537
  42.5362952  47.9765180  28.1071340  36.6723500  43.0907294  28.6722982
  36.3673635  43.4053443  29.5233126  37.6253942  43.1688714  28.7150315
  35.1169932  49.2497517  30.3215936  34.5891293  48.5150277  30.0089174
  34.6157434  50.0272194  30.0755905  40.0962778  47.4446538  35.4382983
  39.4386452  48.1345799  35.5263111  40.9003177  47.8342970  35.7816969
  29.8488659  39.9117184  32.6822548  30.4232411  39.6892365  31.9495741
  30.4359642  39.9805878  33.4351149  38.9068236  45.7990911  33.4886924
  39.4200118  46.4320903  33.9908634  39.5569460  45.1992106  33.1230285
  30.1758246  41.9421645  26.7018433  29.3395559  42.2796331  27.0227708
  30.0363016  41.8070625  25.7645570  32.1511327  36.7858433  31.4097617
  31.4975739  36.4707450  30.7854232  32.1091801  36.1634173  32.1357440
  33.2622532  47.0677728  23.3250909  32.3549594  46.8366981  23.5242058
  33.7593564  46.2715347  23.5124891  36.1690611  55.7775235  26.2447596
  35.4952309  56.0806932  26.8532553  36.5556433  56.5804315  25.8953053
  35.3849067  43.2740366  35.7345265  34.4671629  43.4955313  35.5766953
  35.8009211  43.3486677  34.8756972  36.1684115  44.6731782  30.8647945
  36.9155934  45.1853179  30.5555067  36.4375705  44.3515835  31.7252339
  34.4410765  47.1690323  27.8474900  33.5321984  46.8849355  27.9447369
  34.4705849  47.5889401  26.9878206  39.6730033  50.7796912  31.6166067
  39.2192360  49.9387822  31.6731258  39.0423999  51.4158310  31.9540847
  38.6162952  41.7088898  32.8466735  37.8785709  41.1966284  33.1776977
  38.8689726  41.2689280  32.0350011  38.1162972  52.6173409  32.5515885
  38.4085946  53.1778466  31.8328251  38.6261592  52.9101970  33.3069044
  38.7174580  34.4865150  33.4408504  39.0233456  33.6262514  33.1534419
  39.4427184  35.0782770  33.2407498  25.0098936  44.8895837  31.8290102
  24.8123335  44.2965197  31.1041168  24.4545600  44.5848047  32.5466041
  32.9895659  44.7818943  33.9484695  33.0444269  43.8292780  33.8727171
  32.1786861  44.9378382  34.4325993  34.1386853  48.7099066  25.1862978
  33.7006283  47.9934925  24.7268615  34.8797294  48.9375181  24.6248070
  30.9288019  43.3996003  31.7075074  30.1155885  43.6990174  32.1140266
  31.4247013  43.0051692  32.4249556  33.0796597  53.3953760  33.6409338
  33.0372776  53.6214606  32.7117870  33.9959296  53.1617134  33.7895140
  36.5262231  43.8637827  40.5389968  36.8811619  44.0909301  41.3984433
  37.1734362  44.1956204  39.9167223  42.2559968  46.9856263  31.2439297
  42.1177866  47.1757859  30.3160486  41.8996187  47.7475646  31.7007348
  30.4202094  40.9714358  37.3236309  31.0601473  40.8303118  36.6259272
  29.5879624  40.6848872  36.9474911  42.2829347  49.0532790  36.2550568
  42.7165854  48.9608079  37.1033622  42.9960928  49.0290291  35.6170584
  31.1962398  50.2716789  33.4371301  31.9902996  49.7767109  33.2353876
  30.4854090  49.7434652  33.0739007  36.0157242  52.6534884  37.7883669
  36.0694265  53.2225821  38.5561385  35.1472024  52.8236769  37.4237706
  27.5045161  44.4159871  29.5131054  26.5742749  44.3544326  29.7301016
  27.6002633  43.8935823  28.7167695  27.4230710  40.9414683  32.1009296
  27.6837528  41.8560017  31.9918456  28.2447883  40.4739126  32.2505908
  28.8955636  42.3552441  39.2708120  29.5678689  42.1469803  38.6220769
  28.0685422  42.1574527  38.8313352  43.1444897  49.0956491  38.7883454
  43.3380787  50.0002301  39.0342729  43.0445515  48.6363910  39.6222039
  34.7981208  38.9814382  41.2873781  34.1509123  39.6804331  41.1938257
  35.5682223  39.4150525  41.6550029  38.2060006  49.2463234  44.3624334
  38.0545512  49.0173785  43.4454418  38.1964685  50.2033835  44.3755679
  34.9745342  46.8195146  39.3470601  35.9037402  46.9706306  39.1739568
  34.5536372  46.9079167  38.4919247  33.7733674  50.8445811  37.1169138
  33.6344760  50.4764595  37.9895076  32.9848270  51.3593450  36.9453096
  34.3681826  55.9454907  28.4594675  34.5433581  55.4742951  29.2740297
  33.6814614  56.5720674  28.6875936  35.3238889  50.2227414  34.5057976
  34.9888722  50.1828184  35.4015626  34.8242835  49.5572130  34.0328386
  29.2983133  45.6295044  40.0310557  29.1602931  44.8975282  40.6322096
  30.2088056  45.5403944  39.7494745  38.2598081  47.5683448  24.7795036
  37.6427251  46.8430276  24.6828088  37.7914569  48.3292808  24.4362110
  31.9265434  45.3415003  39.5194237  32.6365052  44.7008195  39.4780855
  31.8834742  45.5927898  40.4420418  39.9152212  52.2782356  42.4400816
  39.8564758  51.5941576  41.7731399  40.3171731  53.0201346  41.9881442
  30.6394368  42.3280221  41.3389876  30.1031725  41.8770959  41.9911473
  30.0511076  42.4626130  40.5960341  28.9342911  59.0944270  35.2334535
  29.1739509  59.7262794  35.9113554  28.0912108  58.7432310  35.5199894
  30.0496627  41.7868872  23.9016340  29.1726093  41.6657673  23.5378587
  30.5254380  40.9954951  23.6495229  39.9169620  50.2421940  40.6714796
  39.0296398  49.9047862  40.7941195  40.4868171  49.5104971  40.9083561
  21.5698767  46.5746032  33.9957847  22.2569807  46.2607762  33.4078862
  21.4146895  47.4787397  33.7225099  26.3733489  41.4636229  38.4242871
  26.2891678  40.8561898  37.6893281  25.5516195  41.9545247  38.4252367
  33.4470773  54.9023393  37.6376039  33.3740944  55.7078364  38.1495344
  33.0048166  55.1015358  36.8124060  33.2360553  54.1395163  31.1478861
  32.4528074  54.6816843  31.2417085  33.9353298  54.6569142  31.5473102
  36.5457203  39.9489792  33.7913066  37.0425902  39.1959754  33.4714136
  35.7744184  39.9854109  33.2256275  44.3986960  45.6530158  35.4331357
  44.3876836  46.5354873  35.0625290  43.5304340  45.3001708  35.2385894
  35.9069456  54.8010227  39.7934198  36.6197429  55.4357691  39.7210099
  35.4159485  54.8974093  38.9774199  37.6286983  48.7061479  31.3651489
  36.6943262  48.8262942  31.1956194  37.8063652  47.8033946  31.1011499
  33.1292171  42.0907175  33.5184750  32.7589959  41.5378215  34.2065656
  33.6251264  41.4865309  32.9659751  41.0159535  44.5478799  31.9001523
  41.4819987  45.3806790  31.8261826  41.4667035  44.0823780  32.6046782
  30.9581370  52.5504670  40.6139768  31.6590829  53.1841153  40.7669163
  30.4876485  52.8919402  39.8535408  39.0835766  50.8922620  28.8987675
  39.3595610  50.7779214  29.8081550  38.2140265  50.4940105  28.8599849
  38.9876197  36.9159386  35.9392425  38.0739277  37.1463612  36.1074632
  39.4169299  36.9997830  36.7906457  38.7582656  45.1049278  38.4392319
  38.1054106  45.3525185  37.7844772  39.1363036  44.2913416  38.1054796
  35.7189830  55.1408971  32.5420489  35.9012224  54.3230627  33.0048241
  36.5422816  55.3576663  32.1045379  36.0531995  54.0677156  29.8035538
  36.5819762  53.5569610  29.1905700  36.3160215  53.7519686  30.6681071
  34.8070229  45.8469089  44.9258356  34.1310866  45.7463218  45.5960731
  35.6297863  45.6908302  45.3894353  26.5549088  52.0841025  37.5470871
  27.1402525  51.3384713  37.6798775  26.3573927  52.3944982  38.4307535
  29.4087743  55.1192273  32.5633314  28.7398119  55.6038400  32.0797354
  29.2700613  55.3661493  33.4776692  21.1466743  44.6546625  36.2675314
  21.1850842  44.1210216  37.0612432  20.6407036  44.1281831  35.6486291
  33.5493012  57.1536016  39.1615972  34.1011320  57.3167638  39.9265057
  33.8899205  57.7440454  38.4895997  28.5257505  39.5011166  39.7637857
  28.5898832  40.3625997  39.3515254  28.4624625  38.8885167  39.0310215
  28.0009778  41.5734298  43.4110891  28.6281816  41.1911376  44.0248415
  27.1437696  41.3548500  43.7766583  38.4003886  51.9797274  45.0164626
  38.9443790  52.5927232  44.5219581  37.8190731  52.5376852  45.5331639
  24.7775320  43.3810727  29.3429246  25.0728761  42.4721406  29.2896299
  23.8763356  43.3598467  29.0210248  36.6861399  55.1017992  36.1479654
  36.5612539  54.3007731  35.6390600  37.3440490  55.5964185  35.6593624
  28.3069567  41.4566724  35.3256794  27.5856153  42.0702692  35.1864268
  29.0962823  41.9924489  35.2473440  38.7496308  52.9027012  37.7759204
  37.8026643  52.7832363  37.7037531  39.0979081  52.0149510  37.8585466
  31.1095881  38.7921151  41.5997446  31.6330283  39.0383447  42.3623755
  30.8908214  39.6241185  41.1800583  26.5063162  41.0624825  29.4668571
  26.1775868  40.1822204  29.2843677  26.8602533  41.0072494  30.3544960
  35.7542741  52.6979728  33.9763556  35.6067703  51.7696435  34.1571126
  36.5796234  52.7199819  33.4920632  29.6204985  41.3497795  29.8344049
  29.9601058  41.8783716  29.1122657  30.0677106  41.6878201  30.6102615
  39.3576863  53.5208287  35.0628429  40.2823410  53.3151148  34.9252880
  39.1892166  53.2724688  35.9717771  32.3148426  39.7334846  39.2847117
  31.9745246  38.9342659  39.6867796  31.6087432  40.0336557  38.7123950
  32.9664898  36.8184158  37.7374440  33.7890967  36.3444636  37.6153330
  33.2102961  37.5974642  38.2373126  31.6073132  39.8472417  28.0337341
  32.3281495  40.2253669  27.5301058  30.9838436  40.5661293  28.1372319
  35.7504255  40.5517566  28.9695674  35.9667870  41.4342203  28.6684502
  35.2698322  40.1603779  28.2401316  30.4903477  43.5103279  35.5466418
  30.3448057  43.8243582  36.4390700  30.0128680  44.1288179  34.9937317
  32.3499859  40.5005827  35.5947308  32.3361428  39.6046920  35.2579606
  33.0672288  40.5076490  36.2285594  34.2025990  40.9343167  37.6400435
  33.9443768  41.8560238  37.6384766  33.6711031  40.5373601  38.3300899
  39.1472179  54.0393954  30.4190521  39.3209056  53.4740377  29.6664373
  39.6401070  54.8394849  30.2370011  24.9649139  46.0508623  38.4854079
  24.4202607  46.8268431  38.6174354  25.8428489  46.3979428  38.3273201
  31.7536755  39.3820207  30.8634878  31.8752667  38.4536853  31.0625765
  31.4638798  39.3958893  29.9513193  34.6227946  37.0675117  34.0001598
  34.6449643  37.1314451  33.0453577  35.0396005  36.2279626  34.1942104
  45.0011570  46.8030377  32.0380820  45.4442716  46.0537702  31.6399944
  44.1238080  46.7940513  31.6554552  40.1347351  53.3560718  27.5187419
  40.8298256  53.9767411  27.7374733  40.4770502  52.5056070  27.7939797
  25.7515161  45.1778519  41.3784236  25.0096897  45.3261155  41.9648867
  25.4307905  45.4386785  40.5150986  42.0338774  50.8060424  29.0474750
  42.5590099  51.1447697  28.3224070  41.9461127  49.8707439  28.8637884
  33.6958823  54.7194498  41.1764626  34.0045950  54.4743644  42.0487326
  34.4934305  54.9241136  40.6883496  33.7179435  56.8732407  33.4070003
  33.2784426  56.3808786  34.1002859  34.4687552  56.3305375  33.1662078
  26.1971774  53.0643948  33.4094631  27.0229794  52.7647720  33.0293274
  25.8465826  52.2951571  33.8584420  31.1653307  52.4170416  35.4792304
  30.5433317  51.7541121  35.1794532  31.8358174  52.4431548  34.7965952
  24.3980379  50.9830275  34.3683564  23.5612288  50.5552449  34.1867566
  24.3704025  51.1762718  35.3054356  31.2377835  40.8952204  45.0724810
  31.2865990  41.7714327  44.6902580  31.7800349  40.3529597  44.4996454
  41.7232681  51.4393328  44.3525948  40.9328224  51.4217466  43.8130447
  41.4866035  51.9781621  45.1074984  41.8430556  48.2885794  41.6658676
  41.8928561  48.1235801  42.6074199  41.7344479  47.4213053  41.2756557
  30.7266814  50.9674340  28.9550765  30.8754935  51.6509804  28.3017438
  31.5333258  50.9479430  29.4700221  39.1334318  44.2716722  42.9817983
  40.0344181  44.1323187  42.6901981  39.2082293  44.4371177  43.9216160
  33.4677123  41.6483577  41.8271169  32.5980433  41.9417143  41.5553758
  33.7036604  42.2324022  42.5478433  43.3448752  50.7082735  41.9100698
  43.0533561  51.0712716  42.7464159  42.7320884  49.9949744  41.7314030
  44.5444435  48.2735615  34.4303268  45.3791326  48.7125419  34.5940828
  44.6803564  47.7974268  33.6111514  41.5935941  45.8315350  40.3780756
  42.0690062  46.0242996  39.5699607  40.6701506  45.8874536  40.1324139
  28.4819447  46.9939517  29.9611834  28.2365489  46.0901847  30.1592044
  28.6515362  46.9956668  29.0191312  36.1716157  37.8663194  39.3436590
  36.6898101  38.6024221  39.0183078  35.8171290  38.1727187  40.1783349
  27.7515095  42.7267875  27.4597995  27.0584340  42.8012230  26.8038031
  27.5066847  41.9628219  27.9819512  36.4228751  34.2863476  34.8637486
  36.7030505  33.6186665  35.4897913  37.2079358  34.4792572  34.3512150
  34.2262220  53.4622470  26.4262512  33.6536187  54.0812657  25.9732984
  34.7995014  54.0121832  26.9602434  40.2937610  42.7081110  38.6109061
  41.2455033  42.8079208  38.6321285  40.1241060  41.9159379  39.1207146
  38.3151989  39.7936693  38.7968462  37.7201921  40.0741706  38.1014951
  38.0301686  40.2830594  39.5685203  37.4459480  53.7459620  27.5571095
  38.3790153  53.6805182  27.7603970  37.3582692  54.5815887  27.0985627
  40.0747496  53.0625491  24.5175042  39.9961128  52.7285354  25.4110800
  40.8957163  53.5547259  24.5166515  42.7725687  45.9287230  37.7251361
  42.7402008  44.9903231  37.9111045  43.3826311  46.0071267  36.9917186
  34.6109018  44.7983283  23.7678565  35.5568123  44.6689491  23.8366983
  34.2323263  44.0597945  24.2447993  42.9220176  42.7198273  37.7709644
  42.4059225  41.9356730  37.5839573  43.8060124  42.3916990  37.9356164
  40.5830903  36.4639289  33.7305457  40.3855724  36.1554377  34.6148789
  41.1930608  37.1900928  33.8603387  48.5902237  46.9903237  36.8657398
  49.3205626  46.7288525  37.4265101  47.9809183  46.2531959  36.9059466
  46.6717534  45.1311099  37.4631849  45.9450698  44.9967064  36.8548340
  46.2564821  45.4387928  38.2688567  34.4947711  48.8501029  45.2279222
  35.4150720  49.0279628  45.4219268  34.4597294  47.9057074  45.0758921
  32.7951935  42.7233259  23.7033450  31.8883391  42.4266372  23.7796164
  33.0727916  42.4263077  22.8367736  23.7129876  44.0439623  34.1532497
  23.3932660  43.1904931  33.8606871  23.1663304  44.2588201  34.9090464
  27.4909783  46.7602064  37.8702003  27.7095793  47.6919171  37.8890037
  27.9035557  46.4010038  38.6556807  34.4114001  37.2670149  29.8577691
  33.6014730  36.9217234  30.2332938  35.0998418  36.9577693  30.4465303
  36.3404549  36.3448196  31.4801988  36.8935588  36.7643649  32.1392011
  36.5774636  35.4183944  31.5224944  32.3637649  42.3335269  47.2604752
  32.2634376  43.2829626  47.1916843  32.1459191  42.0053508  46.3880822
  31.5650720  39.5820194  23.8445429  32.4269884  39.9075093  24.1041247
  31.7501064  38.7951690  23.3318495  23.5818136  47.6642534  36.1225618
  22.8881607  47.2496487  35.6095573  24.3291127  47.7063071  35.5259037
  39.7183357  38.4548721  30.9880652  39.1382026  39.1133525  30.6058705
  39.4519289  37.6326066  30.5768070  38.1686923  37.8553779  33.1901973
  38.6686701  37.9670313  32.3816292  38.8122531  37.5514831  33.8302781
  32.2268919  45.7632408  46.0769814  31.7436000  46.5632768  46.2833703
  32.3129858  45.7740353  45.1237258  25.4954878  47.5960788  33.9991633
  25.4725566  47.6948475  33.0473516  25.8055515  48.4425939  34.3208799
  28.1542256  49.6536943  38.1138247  29.1085510  49.6220885  38.0468179
  27.9554780  49.1927567  38.9288473  28.7441638  48.2238059  40.6809045
  29.5634527  48.7182138  40.7043882  29.0178446  47.3070027  40.6526613
  38.5008235  40.6148811  30.0437001  37.6134090  40.8998462  29.8257195
  38.9162224  40.4542575  29.1964278  41.8522771  40.6395332  33.7591340
  42.6283161  41.1291785  34.0315957  41.1270905  41.0653387  34.2163209
  44.2895329  41.3522952  34.8165280  44.8839820  41.1118687  34.1058589
  44.3621913  40.6330082  35.4438817  26.5092485  55.1956562  35.1308445
  26.3746953  54.4356963  34.5646443  26.0924547  55.9197462  34.6637234
  37.6451448  50.3793486  24.1385021  38.3487298  50.5843488  24.7542676
  36.9214097  50.9470248  24.4034104  38.4749258  46.1303347  30.2587291
  38.4184460  46.5871899  29.4194923  39.0277601  45.3694032  30.0810134
  42.2854064  41.9193079  31.0837410  42.0290998  41.5189715  31.9145618
  41.6606932  42.6336873  30.9587549  46.5966402  44.6589152  33.5908702
  46.0365960  44.7282342  34.3640264  45.9909905  44.4830137  32.8708198
  29.6661611  56.0925879  35.3426888  29.5493995  57.0371312  35.2405578
  28.8454057  55.7899441  35.7312687  39.5538145  50.8176015  26.1883481
  40.3883749  50.3857214  26.0060955  39.3922488  50.6458029  27.1160375
  39.2084038  47.3208129  27.5539820  39.1532841  47.1552400  26.6128264
  38.5830093  48.0284161  27.7102010  23.9976553  42.5576193  41.3801242
  24.6435416  42.0475147  41.8688467  23.7893704  43.2944875  41.9544667
  36.5229945  49.6257040  46.8793383  37.3921104  49.7997693  46.5180018
  36.0436696  50.4451457  46.7569112  32.5180163  36.8216238  27.1325138
  32.5058833  37.7658077  27.2893409  33.4103585  36.6386383  26.8384600
  30.6916125  56.7454141  38.5582816  31.5943372  56.7777752  38.8749311
  30.4653495  55.8154592  38.5729152  32.4469727  55.4985128  35.2192895
  31.4965358  55.4986990  35.1057267  32.7502213  54.7517862  34.7028930
  36.3332283  33.4159014  31.3871075  35.5664678  32.8617501  31.5327757
  36.7442988  33.4880883  32.2485227  28.3374044  39.7043810  45.4776256
  29.2005505  39.3480615  45.6879581  27.7639454  39.3657705  46.1651661
  48.1822421  61.3345666  36.2838657  48.8200831  61.2152414  35.5801997
  48.0643263  62.2826510  36.3426610  44.9912127  61.2873094  36.2200182
  44.6530638  61.1714159  35.3320717  45.8601895  60.8864260  36.2001188
  40.8498943  63.1408571  32.2097073  40.2863808  63.0498508  31.4413361
  40.7351338  62.3208475  32.6899566  45.4731910  62.4407946  42.1786388
  45.4620551  62.0460744  41.3066891  45.6352549  61.7074019  42.7720159
  38.3963374  64.6359762  35.0481293  39.1884666  64.2950587  34.6327593
  38.6360025  64.7454737  35.9683447  46.4298501  66.8079539  27.5211538
  45.7786481  67.3933619  27.1345552  47.2242864  67.3385733  27.5806575
  40.3554128  63.8968676  27.9198672  41.1285004  63.3497663  27.7811548
  40.7079527  64.7612925  28.1313134  42.1939171  65.2245058  41.1265572
  41.9029037  66.1290689  41.0112238  42.8296155  65.2661586  41.8409641
  43.1195378  62.6021906  37.7166931  43.7158950  62.3777929  37.0023894
  43.1770349  61.8606652  38.3192379  42.6920406  60.0561342  25.5517122
  42.9445927  59.5342863  24.7900585  41.7544965  59.8927487  25.6543806
  47.7363689  59.0597120  33.3591865  48.5226778  58.6416543  33.0082282
  48.0002393  59.9643212  33.5273514  47.9073766  64.4969970  28.0580522
  47.2719599  64.5704597  28.7701427  47.5771173  65.0863569  27.3799601
  53.1372116  58.9972353  34.2624844  53.8697288  58.4271570  34.4962673
  52.3811472  58.6093954  34.7031350  42.4116695  61.9589448  27.7541497
  42.2952953  61.2834351  28.4222581  42.5218955  61.4721822  26.9373650
  44.7548236  61.4199595  31.4588186  44.3906443  60.8930216  32.1701108
  45.6115352  61.0298064  31.2854672  50.6597537  52.7093927  38.7219453
  50.3280861  53.5789338  38.4980668  50.0643150  52.3930211  39.4013483
  44.3953723  56.4489495  26.4549535  44.5628125  57.3169731  26.8220006
  44.2050892  56.6116776  25.5310824  47.1529056  64.9106473  38.1215365
  46.8529779  65.8131512  38.0131173  46.8080116  64.6438657  38.9736518
  40.6041538  61.3620270  34.1552070  39.6792034  61.2296484  34.3629761
  40.8525951  62.1414490  34.6522012  50.5526200  57.4289014  35.8012803
  49.6443077  57.3604422  35.5071564  50.5013796  57.9060959  36.6294628
  44.3742944  58.9047152  27.4396202  44.2542569  59.3504203  28.2781682
  43.6795532  59.2532470  26.8809740  37.9650349  61.0053544  34.9895859
  38.0942730  61.2588023  35.9035270  37.2847800  61.5981252  34.6700514
  42.1349836  71.6750794  31.0886333  42.0573866  72.6258619  31.1674814
  41.5311479  71.3296666  31.7461259  44.6267066  58.8478659  43.7447700
  43.8500400  59.4072579  43.7350565  45.2657629  59.3335442  44.2662570
  52.4187846  55.6305452  37.5790677  51.7762226  55.9237985  36.9330471
  51.9142775  55.5158372  38.3843873  50.0728010  59.3768625  28.2676536
  50.9845866  59.6096012  28.0924233  49.5637657  59.9605669  27.7051614
  42.8813438  61.6564113  43.3065667  43.6228122  62.1949157  43.0300490
  42.1750423  62.2830401  43.4637219  48.3568778  63.7993253  41.9037828
  48.7652134  63.3575664  41.1592461  47.6346039  63.2245881  42.1572021
  44.7099848  58.7365860  39.2771385  45.5561043  59.1605273  39.4206034
  44.6498485  58.0799484  39.9709948  48.6797592  64.3594444  35.6590117
  48.0506455  64.5240158  34.9566185  48.2923254  64.7736053  36.4301081
  52.5586824  65.2948882  33.0134481  51.8737862  65.6747783  32.4631514
  52.6430673  65.9044208  33.7466429  47.8599293  56.3970228  40.9352559
  47.6160225  57.1512289  40.3986835  48.1359223  56.7755576  41.7699806
  49.8137756  62.9408841  39.6129825  50.0254651  63.5840600  38.9364206
  49.7667504  62.1071157  39.1451755  47.4163985  55.5526661  36.5166397
  46.5548464  55.8507915  36.8083134  47.4426419  55.7697060  35.5847429
  44.2325554  64.0968852  32.9240202  44.6963900  64.3756555  32.1344825
  43.9682352  63.1952296  32.7413293  41.1249635  63.6440333  35.8619966
  41.6950992  64.0727602  35.2237450  41.7157747  63.3622918  36.5604151
  43.1694440  60.2192004  29.7329767  43.8718483  60.6713048  30.2003694
  42.8375069  59.5775823  30.3609661  41.6174802  58.8103761  44.1080977
  40.9873462  59.4920042  44.3416374  41.5110890  58.6986842  43.1634115
  36.9119774  58.4775557  35.0346901  36.1218828  58.7333085  34.5587012
  37.4031021  59.2923895  35.1398942  50.9283584  65.8180796  37.7852182
  51.7501027  65.4160983  37.5034864  50.9245987  65.7149030  38.7368298
  38.8634519  58.8420136  31.9930378  38.0665683  58.9538830  32.5113873
  38.6360112  59.1806788  31.1271268  44.6940187  65.3664839  39.9412892
  44.7584620  65.8285247  40.7771064  43.9851111  64.7362204  40.0695202
  35.1957477  58.7306047  37.4661892  35.4465516  59.6153057  37.7319468
  35.7317025  58.5510649  36.6936984  59.0189577  62.1619544  34.1337153
  58.2653285  61.5926943  33.9781158  59.1537118  62.1282209  35.0807788
  44.4088205  67.0332947  29.8091873  44.2733880  67.8784482  30.2376721
  44.9498017  67.2352224  29.0457806  40.8955544  53.1124527  46.4706228
  40.5022490  52.5590725  47.1453872  41.7121685  53.4235105  46.8612745
  37.8617602  64.5508385  30.3819798  38.3742123  65.3451635  30.5325362
  38.5140315  63.8534675  30.3153399  39.6712487  67.6674141  32.4642551
  39.8479115  68.5892106  32.2763535  40.4669320  67.3532560  32.8936931
  43.8123505  54.5282406  44.0626484  44.5533219  55.1289559  43.9830947
  44.0441428  53.7860043  43.5044527  38.9564843  59.7138773  42.3404714
  38.8418359  58.8124030  42.6411813  38.1009361  59.9602470  41.9889531
  46.0356681  67.6556513  43.9392215  45.5920535  66.8692892  43.6213119
  46.6973895  67.8435664  43.2736106  40.7943802  69.1852315  38.4652893
  41.3451227  69.0569378  37.6929887  39.9555278  69.4847204  38.1147786
  48.1337919  67.9359313  41.9673616  48.1156395  68.7568194  41.4753885
  49.0557839  67.8113388  42.1923757  44.5910973  65.4503443  42.8097124
  45.1239310  64.6891731  42.5796432  44.0625054  65.1577094  43.5521279
  47.7580668  50.5563509  38.3390766  47.4144938  51.4465150  38.2629877
  48.1259631  50.3665166  37.4760351  35.8266519  62.8797039  31.1579368
  36.6641741  63.2894047  30.9413076  36.0044787  61.9396481  31.1279562
  47.7230951  60.5472120  26.8463201  47.2077574  61.3176724  27.0851589
  47.4508260  59.8737256  27.4696263  45.3078062  55.3921821  31.9048440
  44.4519658  55.0028671  31.7254078  45.7205014  55.4713781  31.0448225
  46.8377209  52.9268164  36.3039999  46.3342004  52.8898299  35.4907805
  47.1307816  53.8360907  36.3636656  43.0820095  53.0106894  35.3106181
  43.9473091  52.8149702  34.9512071  43.1497604  52.7817245  36.2375538
  52.6965225  63.3004474  28.7816375  51.9194668  62.9615634  28.3371537
  53.3756706  63.3057098  28.1071340  47.5117254  58.4199212  28.6722982
  47.2067390  58.7345361  29.5233126  48.4647696  58.4980632  28.7150315
  45.9563686  64.5789435  30.3215936  45.4285048  63.8442195  30.0089174
  45.4551189  65.3564112  30.0755905  50.9356532  62.7738456  35.4382983
  50.2780207  63.4637717  35.5263111  51.7396931  63.1634888  35.7816969
  40.6882414  55.2409101  32.6822548  41.2626166  55.0184283  31.9495741
  41.2753396  55.3097796  33.4351149  49.7461991  61.1282828  33.4886924
  50.2593873  61.7612820  33.9908634  50.3963215  60.5284024  33.1230285
  41.0152001  57.2713562  26.7018433  40.1789313  57.6088249  27.0227708
  40.8756770  57.1362542  25.7645570  42.9905081  52.1150350  31.4097617
  42.3369494  51.7999368  30.7854232  42.9485556  51.4926091  32.1357440
  44.1016286  62.3969645  23.3250909  43.1943348  62.1658899  23.5242058
  44.5987318  61.6007265  23.5124891  47.0084365  71.1067153  26.2447596
  46.3346064  71.4098849  26.8532553  47.3950187  71.9096233  25.8953053
  46.2242822  58.6032284  35.7345265  45.3065383  58.8247231  35.5766953
  46.6402965  58.6778594  34.8756972  47.0077870  60.0023700  30.8647945
  47.7549688  60.5145097  30.5555067  47.2769459  59.6807752  31.7252339
  45.2804520  62.4982240  27.8474900  44.3715739  62.2141273  27.9447369
  45.3099604  62.9181319  26.9878206  50.5123787  66.1088830  31.6166067
  50.0586114  65.2679740  31.6731258  49.8817754  66.7450228  31.9540847
  49.4556707  57.0380816  32.8466735  48.7179463  56.5258202  33.1776977
  49.7083480  56.5981197  32.0350011  48.9556726  67.9465326  32.5515885
  49.2479701  68.5070384  31.8328251  49.4655347  68.2393887  33.3069044
  49.5568334  49.8157068  33.4408504  49.8627211  48.9554431  33.1534419
  50.2820939  50.4074688  33.2407498  35.8492690  60.2187754  31.8290102
  35.6517090  59.6257115  31.1041168  35.2939354  59.9139965  32.5466041
  43.8289414  60.1110861  33.9484695  43.8838024  59.1584697  33.8727171
  43.0180616  60.2670300  34.4325993  44.9780608  64.0390984  25.1862978
  44.5400037  63.3226843  24.7268615  45.7191048  64.2667099  24.6248070
  41.7681774  58.7287921  31.7075074  40.9549639  59.0282091  32.1140266
  42.2640768  58.3343609  32.4249556  43.9190352  68.7245678  33.6409338
  43.8766530  68.9506524  32.7117870  44.8353050  68.4909052  33.7895140
  47.3655985  59.1929745  40.5389968  47.7205373  59.4201218  41.3984433
  48.0128117  59.5248122  39.9167223  53.0953722  62.3148181  31.2439297
  52.9571621  62.5049777  30.3160486  52.7389941  63.0767564  31.7007348
  41.2595848  56.3006276  37.3236309  41.8995228  56.1595035  36.6259272
  40.4273379  56.0140790  36.9474911  53.1223102  64.3824708  36.2550568
  53.5559609  64.2899997  37.1033622  53.8354683  64.3582208  35.6170584
  42.0356152  65.6008707  33.4371301  42.8296751  65.1059027  33.2353876
  41.3247845  65.0726570  33.0739007  46.8550997  67.9826802  37.7883669
  46.9088019  68.5517738  38.5561385  45.9865778  68.1528687  37.4237706
  38.3438916  59.7451788  29.5131054  37.4136504  59.6836244  29.7301016
  38.4396388  59.2227741  28.7167695  38.2624465  56.2706601  32.1009296
  38.5231282  57.1851934  31.9918456  39.0841637  55.8031044  32.2505908
  39.7349390  57.6844358  39.2708120  40.4072444  57.4761720  38.6220769
  38.9079177  57.4866444  38.8313352  53.9838651  64.4248409  38.7883454
  54.1774542  65.3294219  39.0342729  53.8839270  63.9655828  39.6222039
  45.6374962  54.3106299  41.2873781  44.9902877  55.0096249  41.1938257
  46.4075978  54.7442443  41.6550029  49.0453760  64.5755151  44.3624334
  48.8939267  64.3465703  43.4454418  49.0358440  65.5325753  44.3755679
  45.8139097  62.1487064  39.3470601  46.7431157  62.2998224  39.1739568
  45.3930127  62.2371085  38.4919247  44.6127428  66.1737729  37.1169138
  44.4738514  65.8056513  37.9895076  43.8242025  66.6885368  36.9453096
  45.2075580  71.2746825  28.4594675  45.3827336  70.8034868  29.2740297
  44.5208368  71.9012591  28.6875936  46.1632643  65.5519331  34.5057976
  45.8282476  65.5120101  35.4015626  45.6636589  64.8864047  34.0328386
  40.1376887  60.9586961  40.0310557  39.9996685  60.2267200  40.6322096
  41.0481811  60.8695861  39.7494745  49.0991835  62.8975366  24.7795036
  48.4821006  62.1722194  24.6828088  48.6308324  63.6584726  24.4362110
  42.7659188  60.6706921  39.5194237  43.4758807  60.0300113  39.4780855
  42.7228496  60.9219815  40.4420418  50.7545967  67.6074274  42.4400816
  50.6958513  66.9233494  41.7731399  51.1565485  68.3493264  41.9881442
  41.4788122  57.6572139  41.3389876  40.9425479  57.2062877  41.9911473
  40.8904831  57.7918047  40.5960341  39.7736666  74.4236188  35.2334535
  40.0133264  75.0554712  35.9113554  38.9305862  74.0724228  35.5199894
  40.8890381  57.1160790  23.9016340  40.0119847  56.9949591  23.5378587
  41.3648134  56.3246868  23.6495229  50.7563374  65.5713858  40.6714796
  49.8690153  65.2339780  40.7941195  51.3261925  64.8396889  40.9083561
  32.4092521  61.9037950  33.9957847  33.0963561  61.5899680  33.4078862
  32.2540650  62.8079314  33.7225099  37.2127243  56.7928146  38.4242871
  37.1285432  56.1853816  37.6893281  36.3909950  57.2837165  38.4252367
  44.2864527  70.2315310  37.6376039  44.2134699  71.0370282  38.1495344
  43.8441921  70.4307276  36.8124060  44.0754307  69.4687080  31.1478861
  43.2921829  70.0108760  31.2417085  44.7747052  69.9861060  31.5473102
  47.3850957  55.2781710  33.7913066  47.8819657  54.5251672  33.4714136
  46.6137939  55.3146026  33.2256275  55.2380715  60.9822075  35.4331357
  55.2270591  61.8646791  35.0625290  54.3698094  60.6293626  35.2385894
  46.7463211  70.1302144  39.7934198  47.4591183  70.7649609  39.7210099
  46.2553240  70.2266010  38.9774199  48.4680738  64.0353397  31.3651489
  47.5337017  64.1554859  31.1956194  48.6457406  63.1325864  31.1011499
  43.9685926  57.4199093  33.5184750  43.5983713  56.8670133  34.2065656
  44.4645018  56.8157226  32.9659751  51.8553289  59.8770716  31.9001523
  52.3213741  60.7098708  31.8261826  52.3060790  59.4115698  32.6046782
  41.7975124  67.8796588  40.6139768  42.4984584  68.5133071  40.7669163
  41.3270239  68.2211319  39.8535408  49.9229520  66.2214538  28.8987675
  50.1989364  66.1071132  29.8081550  49.0534019  65.8232022  28.8599849
  49.8269952  52.2451303  35.9392425  48.9133032  52.4755530  36.1074632
  50.2563053  52.3289747  36.7906457  49.5976410  60.4341195  38.4392319
  48.9447861  60.6817103  37.7844772  49.9756790  59.6205333  38.1054796
  46.5583584  70.4700888  32.5420489  46.7405979  69.6522544  33.0048241
  47.3816570  70.6868581  32.1045379  46.8925750  69.3969074  29.8035538
  47.4213516  68.8861528  29.1905700  47.1553969  69.0811604  30.6681071
  45.6463983  61.1761006  44.9258356  44.9704621  61.0755136  45.5960731
  46.4691617  61.0200220  45.3894353  37.3942843  67.4132943  37.5470871
  37.9796279  66.6676631  37.6798775  37.1967681  67.7236900  38.4307535
  40.2481498  70.4484190  32.5633314  39.5791873  70.9330318  32.0797354
  40.1094367  70.6953411  33.4776692  31.9860497  59.9838543  36.2675314
  32.0244597  59.4502134  37.0612432  31.4800790  59.4573749  35.6486291
  44.3886766  72.4827934  39.1615972  44.9405074  72.6459555  39.9265057
  44.7292960  73.0732372  38.4895997  39.3651260  54.8303084  39.7637857
  39.4292586  55.6917914  39.3515254  39.3018380  54.2177085  39.0310215
  38.8403532  56.9026216  43.4110891  39.4675571  56.5203293  44.0248415
  37.9831451  56.6840418  43.7766583  49.2397641  67.3089191  45.0164626
  49.7837545  67.9219149  44.5219581  48.6584486  67.8668770  45.5331639
  35.6169075  58.7102645  29.3429246  35.9122516  57.8013324  29.2896299
  34.7157111  58.6890385  29.0210248  47.5255154  70.4309909  36.1479654
  47.4006293  69.6299649  35.6390600  48.1834245  70.9256103  35.6593624
  39.1463322  56.7858642  35.3256794  38.4249908  57.3994609  35.1864268
  39.9356578  57.3216407  35.2473440  49.5890062  68.2318929  37.7759204
  48.6420398  68.1124280  37.7037531  49.9372835  67.3441427  37.8585466
  41.9489635  54.1213068  41.5997446  42.4724037  54.3675365  42.3623755
  41.7301969  54.9533103  41.1800583  37.3456916  56.3916743  29.4668571
  37.0169623  55.5114122  29.2843677  37.6996287  56.3364412  30.3544960
  46.5936495  68.0271646  33.9763556  46.4461458  67.0988353  34.1571126
  47.4189989  68.0491736  33.4920632  40.4598740  56.6789713  29.8344049
  40.7994812  57.2075634  29.1122657  40.9070860  57.0170119  30.6102615
  50.1970617  68.8500204  35.0628429  51.1217165  68.6443066  34.9252880
  50.0285921  68.6016605  35.9717771  43.1542180  55.0626763  39.2847117
  42.8139001  54.2634576  39.6867796  42.4481187  55.3628474  38.7123950
  43.8058652  52.1476076  37.7374440  44.6284722  51.6736554  37.6153330
  44.0496716  52.9266560  38.2373126  42.4466887  55.1764334  28.0337341
  43.1675249  55.5545587  27.5301058  41.8232191  55.8953211  28.1372319
  46.5898010  55.8809483  28.9695674  46.8061624  56.7634121  28.6684502
  46.1092077  55.4895697  28.2401316  41.3297231  58.8395196  35.5466418
  41.1841812  59.1535499  36.4390700  40.8522435  59.4580097  34.9937317
  43.1893614  55.8297744  35.5947308  43.1755183  54.9338838  35.2579606
  43.9066042  55.8368408  36.2285594  45.0419745  56.2635085  37.6400435
  44.7837522  57.1852155  37.6384766  44.5104785  55.8665519  38.3300899
  49.9865933  69.3685872  30.4190521  50.1602811  68.8032294  29.6664373
  50.4794825  70.1686767  30.2370011  35.8042893  61.3800541  38.4854079
  35.2596361  62.1560349  38.6174354  36.6822243  61.7271345  38.3273201
  42.5930510  54.7112125  30.8634878  42.7146421  53.7828771  31.0625765
  42.3032552  54.7250811  29.9513193  45.4621700  52.3967035  34.0001598
  45.4843397  52.4606368  33.0453577  45.8789759  51.5571544  34.1942104
  55.8405325  62.1322295  32.0380820  56.2836471  61.3829620  31.6399944
  54.9631835  62.1232431  31.6554552  50.9741106  68.6852636  27.5187419
  51.6692010  69.3059329  27.7374733  51.3164256  67.8347987  27.7939797
  36.5908915  60.5070437  41.3784236  35.8490651  60.6553072  41.9648867
  36.2701659  60.7678703  40.5150986  52.8732529  66.1352342  29.0474750
  53.3983853  66.4739614  28.3224070  52.7854882  65.1999357  28.8637884
  44.5352578  70.0486415  41.1764626  44.8439704  69.8035562  42.0487326
  45.3328060  70.2533054  40.6883496  44.5573190  72.2024325  33.4070003
  44.1178180  71.7100704  34.1002859  45.3081307  71.6597293  33.1662078
  37.0365529  68.3935866  33.4094631  37.8623549  68.0939638  33.0293274
  36.6859581  67.6243488  33.8584420  42.0047062  67.7462334  35.4792304
  41.3827071  67.0833039  35.1794532  42.6751929  67.7723466  34.7965952
  35.2374134  66.3122192  34.3683564  34.4006042  65.8844367  34.1867566
  35.2097779  66.5054636  35.3054356  42.0771589  56.2244122  45.0724810
  42.1259745  57.1006245  44.6902580  42.6194104  55.6821515  44.4996454
  52.5626435  66.7685245  44.3525948  51.7721979  66.7509384  43.8130447
  52.3259790  67.3073539  45.1074984  52.6824310  63.6177712  41.6658676
  52.7322315  63.4527719  42.6074199  52.5738233  62.7504971  41.2756557
  41.5660569  66.2966257  28.9550765  41.7148689  66.9801722  28.3017438
  42.3727012  66.2771347  29.4700221  49.9728072  59.6008640  42.9817983
  50.8737935  59.4615105  42.6901981  50.0476047  59.7663095  43.9216160
  44.3070878  56.9775494  41.8271169  43.4374187  57.2709060  41.5553758
  44.5430358  57.5615939  42.5478433  54.1842507  66.0374653  41.9100698
  53.8927315  66.4004634  42.7464159  53.5714638  65.3241661  41.7314030
  55.3838189  63.6027533  34.4303268  56.2185081  64.0417337  34.5940828
  55.5197318  63.1266186  33.6111514  52.4329695  61.1607268  40.3780756
  52.9083817  61.3534914  39.5699607  51.5095261  61.2166454  40.1324139
  39.3213202  62.3231435  29.9611834  39.0759244  61.4193765  30.1592044
  39.4909116  62.3248585  29.0191312  47.0109912  53.1955111  39.3436590
  47.5291856  53.9316138  39.0183078  46.6565044  53.5019105  40.1783349
  38.5908849  58.0559793  27.4597995  37.8978094  58.1304148  26.8038031
  38.3460601  57.2920136  27.9819512  47.2622506  49.6155394  34.8637486
  47.5424260  48.9478583  35.4897913  48.0473113  49.8084490  34.3512150
  45.0655974  68.7914388  26.4262512  44.4929941  69.4104575  25.9732984
  45.6388768  69.3413749  26.9602434  51.1331364  58.0373028  38.6109061
  52.0848787  58.1371126  38.6321285  50.9634815  57.2451296  39.1207146
  49.1545744  55.1228611  38.7968462  48.5595676  55.4033624  38.1014951
  48.8695440  55.6122512  39.5685203  48.2853234  69.0751538  27.5571095
  49.2183907  69.0097100  27.7603970  48.1976447  69.9107805  27.0985627
  50.9141251  68.3917408  24.5175042  50.8354882  68.0577272  25.4110800
  51.7350918  68.8839176  24.5166515  53.6119442  61.2579148  37.7251361
  53.5795762  60.3195148  37.9111045  54.2220066  61.3363184  36.9917186
  45.4502773  60.1275201  23.7678565  46.3961878  59.9981409  23.8366983
  45.0717018  59.3889862  24.2447993  53.7613930  58.0490191  37.7709644
  53.2452979  57.2648648  37.5839573  54.6453879  57.7208908  37.9356164
  51.4224657  51.7931207  33.7305457  51.2249478  51.4846295  34.6148789
  52.0324363  52.5192845  33.8603387  59.4295992  62.3195154  36.8657398
  60.1599380  62.0580443  37.4265101  58.8202937  61.5823876  36.9059466
  57.5111289  60.4603017  37.4631849  56.7844453  60.3258982  36.8548340
  57.0958576  60.7679846  38.2688567  45.3341465  64.1792947  45.2279222
  46.2544475  64.3571546  45.4219268  45.2991048  63.2348992  45.0758921
  43.6345690  58.0525177  23.7033450  42.7277145  57.7558290  23.7796164
  43.9121671  57.7554995  22.8367736  34.5523630  59.3731540  34.1532497
  34.2326415  58.5196849  33.8606871  34.0057059  59.5880118  34.9090464
  38.3303538  62.0893981  37.8702003  38.5489548  63.0211089  37.8890037
  38.7429312  61.7301956  38.6556807  45.2507756  52.5962067  29.8577691
  44.4408484  52.2509152  30.2332938  45.9392173  52.2869610  30.4465303
  47.1798304  51.6740113  31.4801988  47.7329343  52.0935567  32.1392011
  47.4168390  50.7475862  31.5224944  43.2031403  57.6627187  47.2604752
  43.1028130  58.6121544  47.1916843  42.9852945  57.3345426  46.3880822
  42.4044475  54.9112112  23.8445429  43.2663639  55.2367010  24.1041247
  42.5894819  54.1243608  23.3318495  34.4211890  62.9934452  36.1225618
  33.7275362  62.5788405  35.6095573  35.1684881  63.0354988  35.5259037
  50.5577111  53.7840639  30.9880652  49.9775780  54.4425443  30.6058705
  50.2913044  52.9617983  30.5768070  49.0080677  53.1845696  33.1901973
  49.5080456  53.2962231  32.3816292  49.6516285  52.8806749  33.8302781
  43.0662673  61.0924326  46.0769814  42.5829755  61.8924686  46.2833703
  43.1523612  61.1032271  45.1237258  36.3348633  62.9252706  33.9991633
  36.3119321  63.0240393  33.0473516  36.6449269  63.7717856  34.3208799
  38.9936011  64.9828861  38.1138247  39.9479264  64.9512803  38.0468179
  38.7948534  64.5219484  38.9288473  39.5835393  63.5529977  40.6809045
  40.4028282  64.0474055  40.7043882  39.8572201  62.6361945  40.6526613
  49.3401989  55.9440729  30.0437001  48.4527844  56.2290380  29.8257195
  49.7555978  55.7834492  29.1964278  52.6916525  55.9687250  33.7591340
  53.4676915  56.4583702  34.0315957  51.9664659  56.3945304  34.2163209
  55.1289084  56.6814869  34.8165280  55.7233575  56.4410605  34.1058589
  55.2015668  55.9622000  35.4438817  37.3486240  70.5248480  35.1308445
  37.2140707  69.7648881  34.5646443  36.9318302  71.2489380  34.6637234
  48.4845203  65.7085404  24.1385021  49.1881053  65.9135406  24.7542676
  47.7607851  66.2762166  24.4034104  49.3143013  61.4595265  30.2587291
  49.2578214  61.9163816  29.4194923  49.8671355  60.6985950  30.0810134
  53.1247819  57.2484997  31.0837410  52.8684753  56.8481632  31.9145618
  52.5000687  57.9628791  30.9587549  57.4360157  59.9881070  33.5908702
  56.8759715  60.0574259  34.3640264  56.8303660  59.8122055  32.8708198
  40.5055365  71.4217797  35.3426888  40.3887750  72.3663230  35.2405578
  39.6847812  71.1191359  35.7312687  50.3931900  66.1467933  26.1883481
  51.2277504  65.7149131  26.0060955  50.2316243  65.9749947  27.1160375
  50.0477792  62.6500046  27.5539820  49.9926596  62.4844318  26.6128264
  49.4223847  63.3576079  27.7102010  34.8370307  57.8868111  41.3801242
  35.4829171  57.3767065  41.8688467  34.6287458  58.6236792  41.9544667
  47.3623699  64.9548958  46.8793383  48.2314859  65.1289610  46.5180018
  46.8830451  65.7743375  46.7569112  43.3573918  52.1508155  27.1325138
  43.3452587  53.0949995  27.2893409  44.2497339  51.9678301  26.8384600
  41.5309880  72.0746059  38.5582816  42.4337126  72.1069669  38.8749311
  41.3047250  71.1446510  38.5729152  43.2863482  70.8277046  35.2192895
  42.3359113  70.8278907  35.1057267  43.5895968  70.0809780  34.7028930
  47.1726037  48.7450932  31.3871075  46.4058433  48.1909419  31.5327757
  47.5836742  48.8172801  32.2485227  39.1767798  55.0335728  45.4776256
  40.0399260  54.6772532  45.6879581  38.6033209  54.6949622  46.1651661
  59.0216175  76.6637584  36.2838657  59.6594585  76.5444331  35.5801997
  58.9037018  77.6118428  36.3426610  55.8305881  76.6165012  36.2200182
  55.4924393  76.5006077  35.3320717  56.6995650  76.2156177  36.2001188
  51.6892697  78.4700489  32.2097073  51.1257562  78.3790425  31.4413361
  51.5745092  77.6500393  32.6899566  56.3125664  77.7699864  42.1786388
  56.3014305  77.3752662  41.3066891  56.4746304  77.0365936  42.7720159
  49.2357129  79.9651680  35.0481293  50.0278421  79.6242505  34.6327593
  49.4753779  80.0746655  35.9683447  57.2692256  82.1371456  27.5211538
  56.6180236  82.7225537  27.1345552  58.0636619  82.6677651  27.5806575
  51.1947883  79.2260593  27.9198672  51.9678759  78.6789580  27.7811548
  51.5473282  80.0904843  28.1313134  53.0332925  80.5536976  41.1265572
  52.7422791  81.4582606  41.0112238  53.6689910  80.5953503  41.8409641
  53.9589132  77.9313824  37.7166931  54.5552705  77.7069847  37.0023894
  54.0164104  77.1898570  38.3192379  53.5314161  75.3853259  25.5517122
  53.7839681  74.8634781  24.7900585  52.5938720  75.2219405  25.6543806
  58.5757444  74.3889038  33.3591865  59.3620533  73.9708461  33.0082282
  58.8396148  75.2935130  33.5273514  58.7467521  79.8261888  28.0580522
  58.1113354  79.8996515  28.7701427  58.4164927  80.4155487  27.3799601
  63.9765871  74.3264271  34.2624844  64.7091043  73.7563488  34.4962673
  63.2205226  73.9385871  34.7031350  53.2510449  77.2881365  27.7541497
  53.1346708  76.6126269  28.4222581  53.3612709  76.8013739  26.9373650
  55.5941990  76.7491513  31.4588186  55.2300198  76.2222134  32.1701108
  56.4509106  76.3589982  31.2854672  61.4991291  68.0385845  38.7219453
  61.1674616  68.9081256  38.4980668  60.9036904  67.7222129  39.4013483
  55.2347477  71.7781412  26.4549535  55.4021880  72.6461649  26.8220006
  55.0444646  71.9408694  25.5310824  57.9922811  80.2398391  38.1215365
  57.6923534  81.1423430  38.0131173  57.6473870  79.9730574  38.9736518
  51.4435292  76.6912188  34.1552070  50.5185789  76.5588402  34.3629761
  51.6919705  77.4706407  34.6522012  61.3919954  72.7580931  35.8012803
  60.4836832  72.6896340  35.5071564  61.3407550  73.2352876  36.6294628
  55.2136698  74.2339070  27.4396202  55.0936323  74.6796120  28.2781682
  54.5189287  74.5824387  26.8809740  48.8044103  76.3345462  34.9895859
  48.9336484  76.5879940  35.9035270  48.1241554  76.9273170  34.6700514
  52.9743590  87.0042711  31.0886333  52.8967620  87.9550537  31.1674814
  52.3705234  86.6588584  31.7461259  55.4660820  74.1770577  43.7447700
  54.6894154  74.7364497  43.7350565  56.1051383  74.6627360  44.2662570
  63.2581601  70.9597370  37.5790677  62.6155981  71.2529903  36.9330471
  62.7536529  70.8450290  38.3843873  60.9121764  74.7060543  28.2676536
  61.8239621  74.9387930  28.0924233  60.4031411  75.2897587  27.7051614
  53.7207192  76.9856030  43.3065667  54.4621877  77.5241074  43.0300490
  53.0144178  77.6122319  43.4637219  59.1962532  79.1285171  41.9037828
  59.6045888  78.6867581  41.1592461  58.4739794  78.5537798  42.1572021
  55.5493602  74.0657778  39.2771385  56.3954797  74.4897191  39.4206034
  55.4892240  73.4091402  39.9709948  59.5191347  79.6886361  35.6590117
  58.8900209  79.8532075  34.9566185  59.1317009  80.1027971  36.4301081
  63.3980579  80.6240799  33.0134481  62.7131617  81.0039701  32.4631514
  63.4824428  81.2336126  33.7466429  58.6993047  71.7262146  40.9352559
  58.4553979  72.4804206  40.3986835  58.9752978  72.1047493  41.7699806
  60.6531510  78.2700758  39.6129825  60.8648405  78.9132518  38.9364206
  60.6061258  77.4363075  39.1451755  58.2557739  70.8818579  36.5166397
  57.3942218  71.1799832  36.8083134  58.2820174  71.0988978  35.5847429
  55.0719309  79.4260769  32.9240202  55.5357654  79.7048472  32.1344825
  54.8076107  78.5244214  32.7413293  51.9643390  78.9732251  35.8619966
  52.5344747  79.4019519  35.2237450  52.5551501  78.6914836  36.5604151
  54.0088195  75.5483922  29.7329767  54.7112238  76.0004965  30.2003694
  53.6768823  74.9067741  30.3609661  52.4568556  74.1395678  44.1080977
  51.8267217  74.8211959  44.3416374  52.3504644  74.0278760  43.1634115
  47.7513529  73.8067474  35.0346901  46.9612583  74.0625003  34.5587012
  48.2424776  74.6215812  35.1398942  61.7677338  81.1472714  37.7852182
  62.5894782  80.7452901  37.5034864  61.7639741  81.0440948  38.7368298
  49.7028274  74.1712054  31.9930378  48.9059437  74.2830748  32.5113873
  49.4753866  74.5098706  31.1271268  55.5333942  80.6956757  39.9412892
  55.5978374  81.1577164  40.7771064  54.8244865  80.0654122  40.0695202
  46.0351232  74.0597965  37.4661892  46.2859270  74.9444975  37.7319468
  46.5710780  73.8802566  36.6936984  69.8583331  77.4911462  34.1337153
  69.1047040  76.9218860  33.9781158  69.9930872  77.4574127  35.0807788
  55.2481959  82.3624864  29.8091873  55.1127634  83.2076400  30.2376721
  55.7891772  82.5644142  29.0457806  51.7349299  68.4416444  46.4706228
  51.3416244  67.8882643  47.1453872  52.5515439  68.7527023  46.8612745
  48.7011357  79.8800302  30.3819798  49.2135877  80.6743553  30.5325362
  49.3534069  79.1826593  30.3153399  50.5106241  82.9966059  32.4642551
  50.6872870  83.9184023  32.2763535  51.3063075  82.6824478  32.8936931
  54.6517260  69.8574323  44.0626484  55.3926973  70.4581477  43.9830947
  54.8835183  69.1151961  43.5044527  49.7958598  75.0430691  42.3404714
  49.6812113  74.1415948  42.6411813  48.9403116  75.2894387  41.9889531
  56.8750436  82.9848431  43.9392215  56.4314290  82.1984810  43.6213119
  57.5367649  83.1727581  43.2736106  51.6337557  84.5144233  38.4652893
  52.1844982  84.3861296  37.6929887  50.7949033  84.8139122  38.1147786
  58.9731674  83.2651231  41.9673616  58.9550149  84.0860112  41.4753885
  59.8951594  83.1405306  42.1923757  55.4304728  80.7795360  42.8097124
  55.9633065  80.0183649  42.5796432  54.9018809  80.4869012  43.5521279
  58.5974423  65.8855426  38.3390766  58.2538692  66.7757068  38.2629877
  58.9653385  65.6957084  37.4760351  46.6660273  78.2088957  31.1579368
  47.5035495  78.6185965  30.9413076  46.8438541  77.2688399  31.1279562
  58.5624706  75.8764037  26.8463201  58.0471329  76.6468642  27.0851589
  58.2902014  75.2029174  27.4696263  56.1471817  70.7213738  31.9048440
  55.2913413  70.3320589  31.7254078  56.5598768  70.8005699  31.0448225
  57.6770963  68.2560081  36.3039999  57.1735759  68.2190217  35.4907805
  57.9701570  69.1652824  36.3636656  53.9213849  68.3398811  35.3106181
  54.7866846  68.1441620  34.9512071  53.9891358  68.1109163  36.2375538
  63.5358980  78.6296392  28.7816375  62.7588422  78.2907552  28.3371537
  64.2150461  78.6349015  28.1071340  58.3511009  73.7491130  28.6722982
  58.0461144  74.0637279  29.5233126  59.3041451  73.8272549  28.7150315
  56.7957441  79.9081353  30.3215936  56.2678802  79.1734112  30.0089174
  56.2944943  80.6856029  30.0755905  61.7750287  78.1030373  35.4382983
  61.1173961  78.7929635  35.5263111  62.5790686  78.4926805  35.7816969
  51.5276168  70.5701019  32.6822548  52.1019920  70.3476201  31.9495741
  52.1147151  70.6389714  33.4351149  60.5855745  76.4574746  33.4886924
  61.0987627  77.0904738  33.9908634  61.2356969  75.8575942  33.1230285
  51.8545755  72.6005480  26.7018433  51.0183068  72.9380167  27.0227708
  51.7150525  72.4654460  25.7645570  53.8298836  67.4442268  31.4097617
  53.1763248  67.1291285  30.7854232  53.7879310  66.8218008  32.1357440
  54.9410041  77.7261563  23.3250909  54.0337102  77.4950817  23.5242058
  55.4381073  76.9299182  23.5124891  57.8478120  86.4359070  26.2447596
  57.1739818  86.7390767  26.8532553  58.2343942  87.2388151  25.8953053
  57.0636576  73.9324202  35.7345265  56.1459138  74.1539149  35.5766953
  57.4796720  74.0070512  34.8756972  57.8471624  75.3315617  30.8647945
  58.5943443  75.8437014  30.5555067  58.1163214  75.0099670  31.7252339
  56.1198274  77.8274158  27.8474900  55.2109493  77.5433191  27.9447369
  56.1493358  78.2473237  26.9878206  61.3517542  81.4380747  31.6166067
  60.8979869  80.5971657  31.6731258  60.7211508  82.0742146  31.9540847
  60.2950461  72.3672734  32.8466735  59.5573218  71.8550120  33.1776977
  60.5477235  71.9273115  32.0350011  59.7950481  83.2757244  32.5515885
  60.0873455  83.8362301  31.8328251  60.3049101  83.5685805  33.3069044
  60.3962088  65.1448986  33.4408504  60.7020965  64.2846349  33.1534419
  61.1214693  65.7366606  33.2407498  46.6886445  75.5479672  31.8290102
  46.4910844  74.9549033  31.1041168  46.1333109  75.2431882  32.5466041
  54.6683168  75.4402779  33.9484695  54.7231778  74.4876615  33.8727171
  53.8574370  75.5962218  34.4325993  55.8174362  79.3682902  25.1862978
  55.3793792  78.6518761  24.7268615  56.5584803  79.5959016  24.6248070
  52.6075528  74.0579838  31.7075074  51.7943394  74.3574009  32.1140266
  53.1034522  73.6635527  32.4249556  54.7584106  84.0537595  33.6409338
  54.7160285  84.2798442  32.7117870  55.6746805  83.8200970  33.7895140
  58.2049740  74.5221663  40.5389968  58.5599128  74.7493136  41.3984433
  58.8521871  74.8540040  39.9167223  63.9347477  77.6440099  31.2439297
  63.7965375  77.8341695  30.3160486  63.5783696  78.4059481  31.7007348
  52.0989603  71.6298194  37.3236309  52.7388982  71.4886953  36.6259272
  51.2667133  71.3432707  36.9474911  63.9616856  79.7116626  36.2550568
  64.3953363  79.6191915  37.1033622  64.6748437  79.6874126  35.6170584
  52.8749907  80.9300624  33.4371301  53.6690505  80.4350944  33.2353876
  52.1641599  80.4018487  33.0739007  57.6944751  83.3118720  37.7883669
  57.7481774  83.8809656  38.5561385  56.8259533  83.4820605  37.4237706
  49.1832670  75.0743706  29.5131054  48.2530258  75.0128161  29.7301016
  49.2790142  74.5519659  28.7167695  49.1018219  71.5998519  32.1009296
  49.3625037  72.5143852  31.9918456  49.9235392  71.1322961  32.2505908
  50.5743145  73.0136276  39.2708120  51.2466198  72.8053638  38.6220769
  49.7472931  72.8158362  38.8313352  64.8232406  79.7540326  38.7883454
  65.0168296  80.6586137  39.0342729  64.7233024  79.2947745  39.6222039
  56.4768717  69.6398217  41.2873781  55.8296632  70.3388167  41.1938257
  57.2469732  70.0734361  41.6550029  59.8847515  79.9047069  44.3624334
  59.7333021  79.6757621  43.4454418  59.8752194  80.8617671  44.3755679
  56.6532851  77.4778982  39.3470601  57.5824911  77.6290141  39.1739568
  56.2323881  77.5663003  38.4919247  55.4521183  81.5029646  37.1169138
  55.3132269  81.1348431  37.9895076  54.6635779  82.0177286  36.9453096
  56.0469335  86.6038743  28.4594675  56.2221090  86.1326786  29.2740297
  55.3602123  87.2304509  28.6875936  57.0026398  80.8811249  34.5057976
  56.6676231  80.8412019  35.4015626  56.5030344  80.2155965  34.0328386
  50.9770642  76.2878879  40.0310557  50.8390440  75.5559118  40.6322096
  51.8875565  76.1987779  39.7494745  59.9385590  78.2267283  24.7795036
  59.3214760  77.5014111  24.6828088  59.4702078  78.9876644  24.4362110
  53.6052943  75.9998838  39.5194237  54.3152561  75.3592030  39.4780855
  53.5622251  76.2511733  40.4420418  61.5939721  82.9366192  42.4400816
  61.5352267  82.2525412  41.7731399  61.9959240  83.6785182  41.9881442
  52.3181877  72.9864056  41.3389876  51.7819234  72.5354795  41.9911473
  51.7298585  73.1209965  40.5960341  50.6130420  89.7528105  35.2334535
  50.8527018  90.3846630  35.9113554  49.7699617  89.4016146  35.5199894
  51.7284136  72.4452708  23.9016340  50.8513602  72.3241508  23.5378587
  52.2041889  71.6538786  23.6495229  61.5957129  80.9005776  40.6714796
  60.7083907  80.5631697  40.7941195  62.1655680  80.1688807  40.9083561
  43.2486276  77.2329867  33.9957847  43.9357315  76.9191597  33.4078862
  43.0934404  78.1371232  33.7225099  48.0520998  72.1220064  38.4242871
  47.9679187  71.5145733  37.6893281  47.2303704  72.6129082  38.4252367
  55.1258282  85.5607228  37.6376039  55.0528453  86.3662199  38.1495344
  54.6835675  85.7599194  36.8124060  54.9148062  84.7978998  31.1478861
  54.1315583  85.3400678  31.2417085  55.6140807  85.3152978  31.5473102
  58.2244712  70.6073627  33.7913066  58.7213411  69.8543590  33.4714136
  57.4531693  70.6437944  33.2256275  66.0774469  76.3113993  35.4331357
  66.0664345  77.1938708  35.0625290  65.2091849  75.9585544  35.2385894
  57.5856965  85.4594062  39.7934198  58.2984938  86.0941527  39.7210099
  57.0946994  85.5557928  38.9774199  59.3074492  79.3645315  31.3651489
  58.3730771  79.4846777  31.1956194  59.4851161  78.4617781  31.1011499
  54.8079680  72.7491010  33.5184750  54.4377468  72.1962051  34.2065656
  55.3038773  72.1449144  32.9659751  62.6947044  75.2062634  31.9001523
  63.1607496  76.0390626  31.8261826  63.1454544  74.7407615  32.6046782
  52.6368879  83.2088505  40.6139768  53.3378338  83.8424988  40.7669163
  52.1663994  83.5503237  39.8535408  60.7623275  81.5506455  28.8987675
  61.0383119  81.4363050  29.8081550  59.8927774  81.1523940  28.8599849
  60.6663706  67.5743221  35.9392425  59.7526786  67.8047448  36.1074632
  61.0956808  67.6581665  36.7906457  60.4370165  75.7633113  38.4392319
  59.7841615  76.0109020  37.7844772  60.8150545  74.9497251  38.1054796
  57.3977339  85.7992806  32.5420489  57.5799733  84.9814462  33.0048241
  58.2210325  86.0160498  32.1045379  57.7319504  84.7260991  29.8035538
  58.2607271  84.2153446  29.1905700  57.9947724  84.4103521  30.6681071
  56.4857738  76.5052924  44.9258356  55.8098375  76.4047053  45.5960731
  57.3085372  76.3492138  45.3894353  48.2336597  82.7424860  37.5470871
  48.8190034  81.9968548  37.6798775  48.0361435  83.0528817  38.4307535
  51.0875252  85.7776108  32.5633314  50.4185628  86.2622235  32.0797354
  50.9488122  86.0245328  33.4776692  42.8254252  75.3130461  36.2675314
  42.8638351  74.7794051  37.0612432  42.3194545  74.7865666  35.6486291
  55.2280521  87.8119851  39.1615972  55.7798829  87.9751473  39.9265057
  55.5686714  88.4024289  38.4895997  50.2045014  70.1595001  39.7637857
  50.2686341  71.0209832  39.3515254  50.1412134  69.5469003  39.0310215
  49.6797287  72.2318134  43.4110891  50.3069325  71.8495211  44.0248415
  48.8225205  72.0132336  43.7766583  60.0791395  82.6381109  45.0164626
  60.6231299  83.2511067  44.5219581  59.4978240  83.1960687  45.5331639
  46.4562829  74.0394563  29.3429246  46.7516270  73.1305241  29.2896299
  45.5550865  74.0182302  29.0210248  58.3648908  85.7601827  36.1479654
  58.2400048  84.9591567  35.6390600  59.0227999  86.2548020  35.6593624
  49.9857076  72.1150559  35.3256794  49.2643662  72.7286527  35.1864268
  50.7750332  72.6508324  35.2473440  60.4283817  83.5610847  37.7759204
  59.4814152  83.4416198  37.7037531  60.7766590  82.6733345  37.8585466
  52.7883390  69.4504986  41.5997446  53.3117792  69.6967282  42.3623755
  52.5695723  70.2825021  41.1800583  48.1850671  71.7208660  29.4668571
  47.8563377  70.8406039  29.2843677  48.5390042  71.6656329  30.3544960
  57.4330250  83.3563563  33.9763556  57.2855212  82.4280271  34.1571126
  58.2583743  83.3783654  33.4920632  51.2992494  72.0081630  29.8344049
  51.6388567  72.5367552  29.1122657  51.7464615  72.3462036  30.6102615
  61.0364372  84.1792122  35.0628429  61.9610919  83.9734983  34.9252880
  60.8679675  83.9308523  35.9717771  53.9935935  70.3918681  39.2847117
  53.6532755  69.5926494  39.6867796  53.2874941  70.6920392  38.7123950
  54.6452407  67.4767993  37.7374440  55.4678476  67.0028472  37.6153330
  54.8890470  68.2558477  38.2373126  53.2860641  70.5056252  28.0337341
  54.0069004  70.8837505  27.5301058  52.6625945  71.2245129  28.1372319
  57.4291764  71.2101401  28.9695674  57.6455379  72.0926039  28.6684502
  56.9485831  70.8187614  28.2401316  52.1690986  74.1687114  35.5466418
  52.0235566  74.4827417  36.4390700  51.6916189  74.7872014  34.9937317
  54.0287368  71.1589662  35.5947308  54.0148937  70.2630755  35.2579606
  54.7459797  71.1660326  36.2285594  55.8813499  71.5927002  37.6400435
  55.6231277  72.5144073  37.6384766  55.3498539  71.1957437  38.3300899
  60.8259688  84.6977789  30.4190521  60.9996565  84.1324212  29.6664373
  61.3188579  85.4978684  30.2370011  46.6436648  76.7092458  38.4854079
  46.0990116  77.4852266  38.6174354  47.5215998  77.0563263  38.3273201
  53.4324264  70.0404042  30.8634878  53.5540176  69.1120689  31.0625765
  53.1426307  70.0542728  29.9513193  56.3015455  67.7258953  34.0001598
  56.3237152  67.7898286  33.0453577  56.7183514  66.8863461  34.1942104
  66.6799079  77.4614212  32.0380820  67.1230225  76.7121538  31.6399944
  65.8025589  77.4524349  31.6554552  61.8134860  84.0144554  27.5187419
  62.5085765  84.6351246  27.7374733  62.1558010  83.1639905  27.7939797
  47.4302670  75.8362355  41.3784236  46.6884406  75.9844990  41.9648867
  47.1095414  76.0970620  40.5150986  63.7126283  81.4644259  29.0474750
  64.2377608  81.8031532  28.3224070  63.6248636  80.5291275  28.8637884
  55.3746332  85.3778333  41.1764626  55.6833459  85.1327480  42.0487326
  56.1721814  85.5824971  40.6883496  55.3966944  87.5316243  33.4070003
  54.9571935  87.0392621  34.1002859  56.1475061  86.9889210  33.1662078
  47.8759283  83.7227783  33.4094631  48.7017303  83.4231555  33.0293274
  47.5253335  82.9535406  33.8584420  52.8440816  83.0754252  35.4792304
  52.2220826  82.4124957  35.1794532  53.5145683  83.1015384  34.7965952
  46.0767888  81.6414110  34.3683564  45.2399797  81.2136284  34.1867566
  46.0491534  81.8346553  35.3054356  52.9165344  71.5536040  45.0724810
  52.9653499  72.4298163  44.6902580  53.4587858  71.0113433  44.4996454
  63.4020190  82.0977163  44.3525948  62.6115733  82.0801302  43.8130447
  63.1653544  82.6365457  45.1074984  63.5218065  78.9469629  41.6658676
  63.5716070  78.7819637  42.6074199  63.4131988  78.0796888  41.2756557
  52.4054323  81.6258175  28.9550765  52.5542444  82.3093639  28.3017438
  53.2120767  81.6063265  29.4700221  60.8121827  74.9300557  42.9817983
  61.7131690  74.7907022  42.6901981  60.8869801  75.0955012  43.9216160
  55.1464632  72.3067412  41.8271169  54.2767942  72.6000978  41.5553758
  55.3824113  72.8907857  42.5478433  65.0236261  81.3666571  41.9100698
  64.7321070  81.7296551  42.7464159  64.4108393  80.6533579  41.7314030
  66.2231944  78.9319451  34.4303268  67.0578835  79.3709255  34.5940828
  66.3591073  78.4558104  33.6111514  63.2723450  76.4899185  40.3780756
  63.7477571  76.6826832  39.5699607  62.3489015  76.5458371  40.1324139
  50.1606956  77.6523353  29.9611834  49.9152998  76.7485683  30.1592044
  50.3302871  77.6540503  29.0191312  57.8503666  68.5247029  39.3436590
  58.3685610  69.2608056  39.0183078  57.4958799  68.8311022  40.1783349
  49.4302604  73.3851710  27.4597995  48.7371849  73.4596065  26.8038031
  49.1854356  72.6212054  27.9819512  58.1016260  64.9447312  34.8637486
  58.3818014  64.2770501  35.4897913  58.8866867  65.1376407  34.3512150
  55.9049729  84.1206305  26.4262512  55.3323696  84.7396493  25.9732984
  56.4782522  84.6705667  26.9602434  61.9725119  73.3664946  38.6109061
  62.9242542  73.4663043  38.6321285  61.8028569  72.5743214  39.1207146
  59.9939498  70.4520529  38.7968462  59.3989430  70.7325541  38.1014951
  59.7089195  70.9414430  39.5685203  59.1246989  84.4043456  27.5571095
  60.0577662  84.3389017  27.7603970  59.0370201  85.2399722  27.0985627
  61.7535005  83.7209326  24.5175042  61.6748637  83.3869190  25.4110800
  62.5744672  84.2131094  24.5166515  64.4513196  76.5871065  37.7251361
  64.4189517  75.6487066  37.9111045  65.0613820  76.6655102  36.9917186
  56.2896527  75.4567118  23.7678565  57.2355632  75.3273326  23.8366983
  55.9110772  74.7181780  24.2447993  64.6007685  73.3782109  37.7709644
  64.0846734  72.5940565  37.5839573  65.4847633  73.0500825  37.9356164
  62.2618412  67.1223124  33.7305457  62.0643233  66.8138212  34.6148789
  62.8718117  67.8484763  33.8603387  70.2689746  77.6487072  36.8657398
  70.9993135  77.3872360  37.4265101  69.6596692  76.9115794  36.9059466
  68.3505043  75.7894935  37.4631849  67.6238207  75.6550900  36.8548340
  67.9352330  76.0971763  38.2688567  56.1735220  79.5084864  45.2279222
  57.0938229  79.6863463  45.4219268  56.1384803  78.5640910  45.0758921
  54.4739444  73.3817095  23.7033450  53.5670900  73.0850207  23.7796164
  54.7515425  73.0846913  22.8367736  45.3917385  74.7023458  34.1532497
  45.0720169  73.8488766  33.8606871  44.8450813  74.9172036  34.9090464
  49.1697292  77.4185899  37.8702003  49.3883302  78.3503007  37.8890037
  49.5823066  77.0593873  38.6556807  56.0901510  67.9253984  29.8577691
  55.2802239  67.5801069  30.2332938  56.7785927  67.6161528  30.4465303
  58.0192058  67.0032031  31.4801988  58.5723097  67.4227485  32.1392011
  58.2562145  66.0767779  31.5224944  54.0425158  72.9919105  47.2604752
  53.9421885  73.9413462  47.1916843  53.8246700  72.6637344  46.3880822
  53.2438229  70.2404030  23.8445429  54.1057393  70.5658928  24.1041247
  53.4288573  69.4535526  23.3318495  45.2605645  78.3226370  36.1225618
  44.5669116  77.9080322  35.6095573  46.0078636  78.3646906  35.5259037
  61.3970866  69.1132556  30.9880652  60.8169535  69.7717360  30.6058705
  61.1306798  68.2909901  30.5768070  59.8474432  68.5137614  33.1901973
  60.3474210  68.6254149  32.3816292  60.4910040  68.2098667  33.8302781
  53.9056428  76.4216244  46.0769814  53.4223509  77.2216604  46.2833703
  53.9917367  76.4324188  45.1237258  47.1742387  78.2544623  33.9991633
  47.1513075  78.3532311  33.0473516  47.4843024  79.1009774  34.3208799
  49.8329765  80.3120778  38.1138247  50.7873019  80.2804721  38.0468179
  49.6342289  79.8511402  38.9288473  50.4229147  78.8821894  40.6809045
  51.2422036  79.3765973  40.7043882  50.6965955  77.9653863  40.6526613
  60.1795744  71.2732647  30.0437001  59.2921599  71.5582297  29.8257195
  60.5949733  71.1126410  29.1964278  63.5310280  71.2979168  33.7591340
  64.3070670  71.7875620  34.0315957  62.8058414  71.7237222  34.2163209
  65.9682838  72.0106787  34.8165280  66.5627329  71.7702523  34.1058589
  66.0409422  71.2913917  35.4438817  48.1879994  85.8540398  35.1308445
  48.0534462  85.0940799  34.5646443  47.7712056  86.5781298  34.6637234
  59.3238957  81.0377321  24.1385021  60.0274807  81.2427324  24.7542676
  58.6001606  81.6054083  24.4034104  60.1536767  76.7887183  30.2587291
  60.0971969  77.2455734  29.4194923  60.7065110  76.0277867  30.0810134
  63.9641573  72.5776914  31.0837410  63.7078507  72.1773550  31.9145618
  63.3394441  73.2920708  30.9587549  68.2753911  75.3172988  33.5908702
  67.7153469  75.3866177  34.3640264  67.6697414  75.1413972  32.8708198
  51.3449120  86.7509715  35.3426888  51.2281504  87.6955147  35.2405578
  50.5241566  86.4483276  35.7312687  61.2325654  81.4759851  26.1883481
  62.0671258  81.0441049  26.0060955  61.0709997  81.3041864  27.1160375
  60.8871547  77.9791964  27.5539820  60.8320350  77.8136235  26.6128264
  60.2617602  78.6867997  27.7102010  45.6764062  73.2160028  41.3801242
  46.3222925  72.7058982  41.8688467  45.4681213  73.9528710  41.9544667
  58.2017454  80.2840876  46.8793383  59.0708613  80.4581528  46.5180018
  57.7224205  81.1035293  46.7569112  54.1967672  67.4800073  27.1325138
  54.1846342  68.4241913  27.2893409  55.0891094  67.2970218  26.8384600
  52.3703634  87.4037977  38.5582816  53.2730881  87.4361587  38.8749311
  52.1441004  86.4738428  38.5729152  54.1257236  86.1568963  35.2192895
  53.1752867  86.1570825  35.1057267  54.4289722  85.4101698  34.7028930
  58.0119792  64.0742849  31.3871075  57.2452187  63.5201336  31.5327757
  58.4230497  64.1464718  32.2485227  50.0161553  70.3627645  45.4776256
  50.8793014  70.0064450  45.6879581  49.4426963  70.0241540  46.1651661
  69.8609930  91.9929502  36.2838657  70.4988339  91.8736249  35.5801997
  69.7430772  92.9410346  36.3426610  66.6699636  91.9456930  36.2200182
  66.3318147  91.8297994  35.3320717  67.5389404  91.5448095  36.2001188
  62.5286452  93.7992406  32.2097073  61.9651317  93.7082343  31.4413361
  62.4138847  92.9792311  32.6899566  67.1519419  93.0991781  42.1786388
  67.1408060  92.7044580  41.3066891  67.3140058  92.3657854  42.7720159
  60.0750883  95.2943598  35.0481293  60.8672175  94.9534422  34.6327593
  60.3147534  95.4038573  35.9683447  68.1086010  97.4663374  27.5211538
  67.4573990  98.0517454  27.1345552  68.9030373  97.9969569  27.5806575
  62.0341637  94.5552511  27.9198672  62.8072513  94.0081498  27.7811548
  62.3867036  95.4196760  28.1313134  63.8726680  95.8828893  41.1265572
  63.5816546  96.7874524  41.0112238  64.5083664  95.9245421  41.8409641
  64.7982887  93.2605742  37.7166931  65.3946459  93.0361764  37.0023894
  64.8557858  92.5190487  38.3192379  64.3707915  90.7145177  25.5517122
  64.6233436  90.1926698  24.7900585  63.4332474  90.5511323  25.6543806
  69.4151198  89.7180956  33.3591865  70.2014287  89.3000379  33.0082282
  69.6789902  90.6227048  33.5273514  69.5861275  95.1553806  28.0580522
  68.9507108  95.2288432  28.7701427  69.2558682  95.7447405  27.3799601
  74.8159625  89.6556189  34.2624844  75.5484797  89.0855406  34.4962673
  74.0598981  89.2677789  34.7031350  64.0904204  92.6173283  27.7541497
  63.9740462  91.9418186  28.4222581  64.2006464  92.1305657  26.9373650
  66.4335745  92.0783430  31.4588186  66.0693952  91.5514051  32.1701108
  67.2902861  91.6881899  31.2854672  72.3385045  83.3677763  38.7219453
  72.0068370  84.2373174  38.4980668  71.7430659  83.0514047  39.4013483
  66.0741232  87.1073330  26.4549535  66.2415634  87.9753566  26.8220006
  65.8838401  87.2700612  25.5310824  68.8316565  95.5690309  38.1215365
  68.5317288  96.4715348  38.0131173  68.4867625  95.3022492  38.9736518
  62.2829047  92.0204106  34.1552070  61.3579543  91.8880320  34.3629761
  62.5313460  92.7998325  34.6522012  72.2313709  88.0872849  35.8012803
  71.3230586  88.0188257  35.5071564  72.1801305  88.5644794  36.6294628
  66.0530453  89.5630987  27.4396202  65.9330078  90.0088038  28.2781682
  65.3583041  89.9116305  26.8809740  59.6437858  91.6637379  34.9895859
  59.7730239  91.9171858  35.9035270  58.9635309  92.2565087  34.6700514
  63.8137345 102.3334629  31.0886333  63.7361375 103.2842454  31.1674814
  63.2098988 101.9880502  31.7461259  66.3054575  89.5062495  43.7447700
  65.5287909  90.0656415  43.7350565  66.9445138  89.9919278  44.2662570
  74.0975355  86.2889287  37.5790677  73.4549735  86.5821821  36.9330471
  73.5930284  86.1742208  38.3843873  71.7515519  90.0352461  28.2676536
  72.6633375  90.2679847  28.0924233  71.2425166  90.6189505  27.7051614
  64.5600947  92.3147948  43.3065667  65.3015631  92.8532992  43.0300490
  63.8537932  92.9414237  43.4637219  70.0356287  94.4577088  41.9037828
  70.4439643  94.0159499  41.1592461  69.3133548  93.8829716  42.1572021
  66.3887357  89.3949695  39.2771385  67.2348552  89.8189109  39.4206034
  66.3285994  88.7383319  39.9709948  70.3585101  95.0178279  35.6590117
  69.7293964  95.1823993  34.9566185  69.9710763  95.4319889  36.4301081
  74.2374333  95.9532717  33.0134481  73.5525371  96.3331618  32.4631514
  74.3218182  96.5628044  33.7466429  69.5386802  87.0554064  40.9352559
  69.2947734  87.8096124  40.3986835  69.8146732  87.4339411  41.7699806
  71.4925265  93.5992676  39.6129825  71.7042160  94.2424436  38.9364206
  71.4455013  92.7654992  39.1451755  69.0951494  86.2110497  36.5166397
  68.2335973  86.5091750  36.8083134  69.1213928  86.4280895  35.5847429
  65.9113063  94.7552687  32.9240202  66.3751409  95.0340390  32.1344825
  65.6469861  93.8536132  32.7413293  62.8037144  94.3024169  35.8619966
  63.3738501  94.7311437  35.2237450  63.3945256  94.0206753  36.5604151
  64.8481949  90.8775839  29.7329767  65.5505992  91.3296883  30.2003694
  64.5162578  90.2359658  30.3609661  63.2962311  89.4687596  44.1080977
  62.6660971  90.1503877  44.3416374  63.1898399  89.3570678  43.1634115
  58.5907283  89.1359392  35.0346901  57.8006337  89.3916921  34.5587012
  59.0818530  89.9507730  35.1398942  72.6071093  96.4764631  37.7852182
  73.4288536  96.0744819  37.5034864  72.6033496  96.3732865  38.7368298
  60.5422028  89.5003971  31.9930378  59.7453192  89.6122666  32.5113873
  60.3147621  89.8390624  31.1271268  66.3727696  96.0248675  39.9412892
  66.4372129  96.4869082  40.7771064  65.6638620  95.3946040  40.0695202
  56.8744986  89.3889883  37.4661892  57.1253024  90.2736893  37.7319468
  57.4104534  89.2094484  36.6936984  80.6977086  92.8203380  34.1337153
  79.9440794  92.2510778  33.9781158  80.8324627  92.7866044  35.0807788
  66.0875714  97.6916782  29.8091873  65.9521389  98.5368318  30.2376721
  66.6285526  97.8936060  29.0457806  62.5743053  83.7708362  46.4706228
  62.1809999  83.2174561  47.1453872  63.3909194  84.0818940  46.8612745
  59.5405111  95.2092220  30.3819798  60.0529632  96.0035470  30.5325362
  60.1927824  94.5118511  30.3153399  61.3499996  98.3257976  32.4642551
  61.5266624  99.2475941  32.2763535  62.1456829  98.0116396  32.8936931
  65.4911014  85.1866241  44.0626484  66.2320728  85.7873394  43.9830947
  65.7228937  84.4443879  43.5044527  60.6352352  90.3722608  42.3404714
  60.5205868  89.4707866  42.6411813  59.7796870  90.6186305  41.9889531
  67.7144190  98.3140349  43.9392215  67.2708044  97.5276727  43.6213119
  68.3761404  98.5019499  43.2736106  62.4731311  99.8436150  38.4652893
  63.0238736  99.7153214  37.6929887  61.6342787 100.1431039  38.1147786
  69.8125428  98.5943149  41.9673616  69.7943904  99.4152030  41.4753885
  70.7345348  98.4697224  42.1923757  66.2698482  96.1087278  42.8097124
  66.8026819  95.3475566  42.5796432  65.7412563  95.8160930  43.5521279
  69.4368177  81.2147344  38.3390766  69.0932447  82.1048986  38.2629877
  69.8047140  81.0249002  37.4760351  57.5054028  93.5380874  31.1579368
  58.3429250  93.9477883  30.9413076  57.6832296  92.5980317  31.1279562
  69.4018460  91.2055955  26.8463201  68.8865083  91.9760560  27.0851589
  69.1295768  90.5321091  27.4696263  66.9865571  86.0505656  31.9048440
  66.1307167  85.6612506  31.7254078  67.3992523  86.1297617  31.0448225
  68.5164718  83.5851999  36.3039999  68.0129513  83.5482134  35.4907805
  68.8095325  84.4944742  36.3636656  64.7607604  83.6690729  35.3106181
  65.6260600  83.4733538  34.9512071  64.8285113  83.4401081  36.2375538
  74.3752734  93.9588310  28.7816375  73.5982177  93.6199469  28.3371537
  75.0544215  93.9640933  28.1071340  69.1904763  89.0783047  28.6722982
  68.8854899  89.3929196  29.5233126  70.1435205  89.1564467  28.7150315
  67.6351195  95.2373271  30.3215936  67.1072557  94.5026030  30.0089174
  67.1338698  96.0147947  30.0755905  72.6144041  93.4322291  35.4382983
  71.9567716  94.1221552  35.5263111  73.4184440  93.8218723  35.7816969
  62.3669923  85.8992937  32.6822548  62.9413675  85.6768118  31.9495741
  62.9540905  85.9681631  33.4351149  71.4249500  91.7866664  33.4886924
  71.9381382  92.4196656  33.9908634  72.0750724  91.1867859  33.1230285
  62.6939510  87.9297398  26.7018433  61.8576822  88.2672084  27.0227708
  62.5544279  87.7946378  25.7645570  64.6692590  82.7734186  31.4097617
  64.0157003  82.4583203  30.7854232  64.6273065  82.1509926  32.1357440
  65.7803795  93.0553481  23.3250909  64.8730857  92.8242734  23.5242058
  66.2774827  92.2591100  23.5124891  68.6871874 101.7650988  26.2447596
  68.0133573 102.0682685  26.8532553  69.0737696 102.5680068  25.8953053
  67.9030331  89.2616119  35.7345265  66.9852892  89.4831066  35.5766953
  68.3190474  89.3362430  34.8756972  68.6865379  90.6607535  30.8647945
  69.4337197  91.1728932  30.5555067  68.9556968  90.3391588  31.7252339
  66.9592029  93.1566076  27.8474900  66.0503248  92.8725108  27.9447369
  66.9887112  93.5765154  26.9878206  72.1911296  96.7672665  31.6166067
  71.7373623  95.9263575  31.6731258  71.5605263  97.4034064  31.9540847
  71.1344216  87.6964651  32.8466735  70.3966972  87.1842037  33.1776977
  71.3870989  87.2565033  32.0350011  70.6344235  98.6049162  32.5515885
  70.9267210  99.1654219  31.8328251  71.1442856  98.8977723  33.3069044
  71.2355843  80.4740903  33.4408504  71.5414720  79.6138267  33.1534419
  71.9608448  81.0658523  33.2407498  57.5280199  90.8771590  31.8290102
  57.3304599  90.2840950  31.1041168  56.9726863  90.5723800  32.5466041
  65.5076923  90.7694696  33.9484695  65.5625532  89.8168533  33.8727171
  64.6968125  90.9254135  34.4325993  66.6568116  94.6974819  25.1862978
  66.2187546  93.9810678  24.7268615  67.3978557  94.9250934  24.6248070
  63.4469283  89.3871756  31.7075074  62.6337148  89.6865927  32.1140266
  63.9428277  88.9927445  32.4249556  65.5977861  99.3829513  33.6409338
  65.5554039  99.6090359  32.7117870  66.5140559  99.1492888  33.7895140
  69.0443494  89.8513580  40.5389968  69.3992882  90.0785054  41.3984433
  69.6915626  90.1831957  39.9167223  74.7741231  92.9732016  31.2439297
  74.6359130  93.1633612  30.3160486  74.4177450  93.7351399  31.7007348
  62.9383357  86.9590112  37.3236309  63.5782737  86.8178871  36.6259272
  62.1060888  86.6724625  36.9474911  74.8010611  95.0408543  36.2550568
  75.2347118  94.9483832  37.1033622  75.5142192  95.0166044  35.6170584
  63.7143661  96.2592542  33.4371301  64.5084260  95.7642862  33.2353876
  63.0035354  95.7310405  33.0739007  68.5338506  98.6410637  37.7883669
  68.5875528  99.2101574  38.5561385  67.6653287  98.8112523  37.4237706
  60.0226425  90.4035624  29.5131054  59.0924013  90.3420079  29.7301016
  60.1183897  89.8811576  28.7167695  59.9411974  86.9290437  32.1009296
  60.2018791  87.8435770  31.9918456  60.7629146  86.4614879  32.2505908
  61.4136899  88.3428194  39.2708120  62.0859953  88.1345556  38.6220769
  60.5866686  88.1450280  38.8313352  75.6626160  95.0832244  38.7883454
  75.8562051  95.9878055  39.0342729  75.5626779  94.6239663  39.6222039
  67.3162471  84.9690135  41.2873781  66.6690386  85.6680084  41.1938257
  68.0863487  85.4026279  41.6550029  70.7241269  95.2338987  44.3624334
  70.5726776  95.0049538  43.4454418  70.7145949  96.1909588  44.3755679
  67.4926606  92.8070900  39.3470601  68.4218666  92.9582059  39.1739568
  67.0717636  92.8954920  38.4919247  66.2914937  96.8321564  37.1169138
  66.1526023  96.4640348  37.9895076  65.5029534  97.3469203  36.9453096
  66.8863089 101.9330660  28.4594675  67.0614845 101.4618704  29.2740297
  66.1995877 102.5596427  28.6875936  67.8420152  96.2103167  34.5057976
  67.5069985  96.1703937  35.4015626  67.3424098  95.5447883  34.0328386
  61.8164396  91.6170797  40.0310557  61.6784194  90.8851035  40.6322096
  62.7269320  91.5279697  39.7494745  70.7779344  93.5559201  24.7795036
  70.1608515  92.8306029  24.6828088  70.3095833  94.3168561  24.4362110
  64.4446697  91.3290756  39.5194237  65.1546316  90.6883948  39.4780855
  64.4016005  91.5803651  40.4420418  72.4333476  98.2658109  42.4400816
  72.3746022  97.5817329  41.7731399  72.8352994  99.0077099  41.9881442
  63.1575631  88.3155974  41.3389876  62.6212988  87.8646712  41.9911473
  62.5692340  88.4501883  40.5960341  61.4524175 105.0820023  35.2334535
  61.6920773 105.7138547  35.9113554  60.6093371 104.7308063  35.5199894
  62.5677890  87.7744625  23.9016340  61.6907356  87.6533426  23.5378587
  63.0435643  86.9830704  23.6495229  72.4350883  96.2297693  40.6714796
  71.5477662  95.8923615  40.7941195  73.0049434  95.4980724  40.9083561
  54.0880030  92.5621785  33.9957847  54.7751070  92.2483515  33.4078862
  53.9328159  93.4663150  33.7225099  58.8914752  87.4511982  38.4242871
  58.8072941  86.8437651  37.6893281  58.0697459  87.9421000  38.4252367
  65.9652036 100.8899146  37.6376039  65.8922208 101.6954117  38.1495344
  65.5229430 101.0891111  36.8124060  65.7541816 100.1270916  31.1478861
  64.9709338 100.6692596  31.2417085  66.4534561 100.6444895  31.5473102
  69.0638466  85.9365545  33.7913066  69.5607166  85.1835507  33.4714136
  68.2925448  85.9729862  33.2256275  76.9168224  91.6405911  35.4331357
  76.9058100  92.5230626  35.0625290  76.0485603  91.2877461  35.2385894
  68.4250720 100.7885980  39.7934198  69.1378692 101.4233444  39.7210099
  67.9340749 100.8849846  38.9774199  70.1468247  94.6937232  31.3651489
  69.2124526  94.8138695  31.1956194  70.3244915  93.7909699  31.1011499
  65.6473435  88.0782928  33.5184750  65.2771222  87.5253968  34.2065656
  66.1432527  87.4741062  32.9659751  73.5340798  90.5354552  31.9001523
  74.0001250  91.3682543  31.8261826  73.9848299  90.0699533  32.6046782
  63.4762633  98.5380423  40.6139768  64.1772093  99.1716906  40.7669163
  63.0057748  98.8795155  39.8535408  71.6017029  96.8798373  28.8987675
  71.8776873  96.7654967  29.8081550  70.7321528  96.4815858  28.8599849
  71.5057461  82.9035139  35.9392425  70.5920541  83.1339365  36.1074632
  71.9350562  82.9873583  36.7906457  71.2763919  91.0925031  38.4392319
  70.6235370  91.3400938  37.7844772  71.6544299  90.2789169  38.1054796
  68.2371093 101.1284724  32.5420489  68.4193488 100.3106380  33.0048241
  69.0604079 101.3452416  32.1045379  68.5713259 100.0552909  29.8035538
  69.1001025  99.5445363  29.1905700  68.8341478  99.7395439  30.6681071
  67.3251492  91.8344842  44.9258356  66.6492129  91.7338971  45.5960731
  68.1479126  91.6784055  45.3894353  59.0730352  98.0716778  37.5470871
  59.6583788  97.3260466  37.6798775  58.8755190  98.3820735  38.4307535
  61.9269007 101.1068026  32.5633314  61.2579382 101.5914153  32.0797354
  61.7881876 101.3537246  33.4776692  53.6648006  90.6422378  36.2675314
  53.7032106  90.1085969  37.0612432  53.1588299  90.1157584  35.6486291
  66.0674275 103.1411769  39.1615972  66.6192583 103.3043391  39.9265057
  66.4080469 103.7316207  38.4895997  61.0438769  85.4886919  39.7637857
  61.1080095  86.3501750  39.3515254  60.9805889  84.8760921  39.0310215
  60.5191041  87.5610051  43.4110891  61.1463080  87.1787129  44.0248415
  59.6618960  87.3424253  43.7766583  70.9185150  97.9673027  45.0164626
  71.4625054  98.5802985  44.5219581  70.3371995  98.5252605  45.5331639
  57.2956584  89.3686481  29.3429246  57.5910025  88.4597159  29.2896299
  56.3944620  89.3474220  29.0210248  69.2042663 101.0893745  36.1479654
  69.0793802 100.2883484  35.6390600  69.8621754 101.5839938  35.6593624
  60.8250831  87.4442477  35.3256794  60.1037417  88.0578445  35.1864268
  61.6144087  87.9800242  35.2473440  71.2677571  98.8902765  37.7759204
  70.3207907  98.7708116  37.7037531  71.6160344  98.0025263  37.8585466
  63.6277144  84.7796904  41.5997446  64.1511546  85.0259200  42.3623755
  63.4089478  85.6116938  41.1800583  59.0244425  87.0500578  29.4668571
  58.6957132  86.1697957  29.2843677  59.3783796  86.9948247  30.3544960
  68.2724004  98.6855481  33.9763556  68.1248967  97.7572188  34.1571126
  69.0977498  98.7075572  33.4920632  62.1386249  87.3373548  29.8344049
  62.4782321  87.8659469  29.1122657  62.5858369  87.6753954  30.6102615
  71.8758126  99.5084040  35.0628429  72.8004674  99.3026901  34.9252880
  71.7073430  99.2600441  35.9717771  64.8329689  85.7210599  39.2847117
  64.4926510  84.9218412  39.6867796  64.1268696  86.0212310  38.7123950
  65.4846161  82.8059911  37.7374440  66.3072231  82.3320389  37.6153330
  65.7284225  83.5850395  38.2373126  64.1254396  85.8348170  28.0337341
  64.8462758  86.2129422  27.5301058  63.5019700  86.5537046  28.1372319
  68.2685519  86.5393319  28.9695674  68.4849133  87.4217956  28.6684502
  67.7879586  86.1479532  28.2401316  63.0084740  89.4979032  35.5466418
  62.8629321  89.8119335  36.4390700  62.5309944  90.1163932  34.9937317
  64.8681123  86.4881580  35.5947308  64.8542692  85.5922673  35.2579606
  65.5853551  86.4952243  36.2285594  66.7207254  86.9218920  37.6400435
  66.4625031  87.8435991  37.6384766  66.1892294  86.5249354  38.3300899
  71.6653442 100.0269707  30.4190521  71.8390320  99.4616130  29.6664373
  72.1582334 100.8270602  30.2370011  57.4830402  92.0384376  38.4854079
  56.9383870  92.8144184  38.6174354  58.3609752  92.3855181  38.3273201
  64.2718019  85.3695960  30.8634878  64.3933930  84.4412606  31.0625765
  63.9820061  85.3834646  29.9513193  67.1409209  83.0550870  34.0001598
  67.1630906  83.1190204  33.0453577  67.5577268  82.2155379  34.1942104
  77.5192834  92.7906130  32.0380820  77.9623980  92.0413455  31.6399944
  76.6419344  92.7816266  31.6554552  72.6528615  99.3436471  27.5187419
  73.3479519  99.9643164  27.7374733  72.9951765  98.4931823  27.7939797
  58.2696424  91.1654272  41.3784236  57.5278160  91.3136908  41.9648867
  57.9489168  91.4262538  40.5150986  74.5520038  96.7936177  29.0474750
  75.0771362  97.1323450  28.3224070  74.4642391  95.8583192  28.8637884
  66.2140087 100.7070251  41.1764626  66.5227213 100.4619397  42.0487326
  67.0115569 100.9116889  40.6883496  66.2360699 102.8608160  33.4070003
  65.7965689 102.3684539  34.1002859  66.9868816 102.3181128  33.1662078
  58.7153038  99.0519701  33.4094631  59.5411058  98.7523473  33.0293274
  58.3647090  98.2827324  33.8584420  63.6834571  98.4046169  35.4792304
  63.0614580  97.7416874  35.1794532  64.3539438  98.4307301  34.7965952
  56.9161643  96.9706028  34.3683564  56.0793551  96.5428202  34.1867566
  56.8885288  97.1638471  35.3054356  63.7559098  86.8827957  45.0724810
  63.8047254  87.7590080  44.6902580  64.2981613  86.3405350  44.4996454
  74.2413944  97.4269081  44.3525948  73.4509488  97.4093219  43.8130447
  74.0047299  97.9657374  45.1074984  74.3611819  94.2761547  41.6658676
  74.4109824  94.1111554  42.6074199  74.2525742  93.4088806  41.2756557
  63.2448078  96.9550093  28.9550765  63.3936198  97.6385557  28.3017438
  64.0514521  96.9355183  29.4700221  71.6515581  90.2592475  42.9817983
  72.5525444  90.1198940  42.6901981  71.7263556  90.4246930  43.9216160
  65.9858387  87.6359330  41.8271169  65.1161696  87.9292896  41.5553758
  66.2217867  88.2199775  42.5478433  75.8630016  96.6958489  41.9100698
  75.5714824  97.0588469  42.7464159  75.2502147  95.9825497  41.7314030
  77.0625698  94.2611368  34.4303268  77.8972590  94.7001172  34.5940828
  77.1984827  93.7850022  33.6111514  74.1117204  91.8191103  40.3780756
  74.5871326  92.0118749  39.5699607  73.1882770  91.8750289  40.1324139
  61.0000711  92.9815270  29.9611834  60.7546753  92.0777600  30.1592044
  61.1696625  92.9832421  29.0191312  68.6897421  83.8538947  39.3436590
  69.2079365  84.5899974  39.0183078  68.3352553  84.1602940  40.1783349
  60.2696358  88.7143628  27.4597995  59.5765603  88.7887983  26.8038031
  60.0248110  87.9503972  27.9819512  68.9410015  80.2739229  34.8637486
  69.2211769  79.6062418  35.4897913  69.7260622  80.4668325  34.3512150
  66.7443483  99.4498223  26.4262512  66.1717450 100.0688410  25.9732984
  67.3176277  99.9997585  26.9602434  72.8118873  88.6956863  38.6109061
  73.7636296  88.7954961  38.6321285  72.6422324  87.9035132  39.1207146
  70.8333253  85.7812446  38.7968462  70.2383185  86.0617459  38.1014951
  70.5482949  86.2706347  39.5685203  69.9640743  99.7335373  27.5571095
  70.8971416  99.6680935  27.7603970  69.8763956 100.5691640  27.0985627
  72.5928760  99.0501244  24.5175042  72.5142391  98.7161107  25.4110800
  73.4138427  99.5423012  24.5166515  75.2906951  91.9162983  37.7251361
  75.2583271  90.9778984  37.9111045  75.9007575  91.9947020  36.9917186
  67.1290282  90.7859036  23.7678565  68.0749387  90.6565244  23.8366983
  66.7504527  90.0473698  24.2447993  75.4401439  88.7074026  37.7709644
  74.9240488  87.9232483  37.5839573  76.3241388  88.3792743  37.9356164
  73.1012166  82.4515042  33.7305457  72.9036987  82.1430130  34.6148789
  73.7111872  83.1776681  33.8603387  81.1083501  92.9778990  36.8657398
  81.8386889  92.7164278  37.4265101  80.4990446  92.2407712  36.9059466
  79.1898798  91.1186852  37.4631849  78.4631961  90.9842817  36.8548340
  78.7746085  91.4263681  38.2688567  67.0128974  94.8376782  45.2279222
  67.9331984  95.0155381  45.4219268  66.9778557  93.8932827  45.0758921
  65.3133199  88.7109012  23.7033450  64.4064654  88.4142125  23.7796164
  65.5909180  88.4138830  22.8367736  56.2311139  90.0315376  34.1532497
  55.9113924  89.1780684  33.8606871  55.6844568  90.2463954  34.9090464
  60.0091047  92.7477817  37.8702003  60.2277057  93.6794925  37.8890037
  60.4216821  92.3885791  38.6556807  66.9295265  83.2545902  29.8577691
  66.1195993  82.9092987  30.2332938  67.6179682  82.9453446  30.4465303
  68.8585813  82.3323949  31.4801988  69.4116852  82.7519402  32.1392011
  69.0955899  81.4059697  31.5224944  64.8818912  88.3211022  47.2604752
  64.7815639  89.2705379  47.1916843  64.6640454  87.9929261  46.3880822
  64.0831984  85.5695948  23.8445429  64.9451148  85.8950846  24.1041247
  64.2682328  84.7827443  23.3318495  56.0999399  93.6518287  36.1225618
  55.4062871  93.2372240  35.6095573  56.8472390  93.6938824  35.5259037
  72.2364620  84.4424474  30.9880652  71.6563289  85.1009278  30.6058705
  71.9700553  83.6201819  30.5768070  70.6868186  83.8429532  33.1901973
  71.1867965  83.9546066  32.3816292  71.3303794  83.5390585  33.8302781
  64.7450182  91.7508161  46.0769814  64.2617264  92.5508521  46.2833703
  64.8311121  91.7616106  45.1237258  58.0136142  93.5836541  33.9991633
  57.9906830  93.6824228  33.0473516  58.3236778  94.4301692  34.3208799
  60.6723520  95.6412696  38.1138247  61.6266773  95.6096638  38.0468179
  60.4736043  95.1803320  38.9288473  61.2622902  94.2113812  40.6809045
  62.0815791  94.7057891  40.7043882  61.5359710  93.2945780  40.6526613
  71.0189498  86.6024564  30.0437001  70.1315353  86.8874215  29.8257195
  71.4343487  86.4418328  29.1964278  74.3704034  86.6271085  33.7591340
  75.1464424  87.1167538  34.0315957  73.6452168  87.0529140  34.2163209
  76.8076593  87.3398705  34.8165280  77.4021084  87.0994441  34.1058589
  76.8803177  86.6205835  35.4438817  59.0273749 101.1832315  35.1308445
  58.8928216 100.4232716  34.5646443  58.6105811 101.9073215  34.6637234
  70.1632712  96.3669239  24.1385021  70.8668562  96.5719242  24.7542676
  69.4395360  96.9346001  24.4034104  70.9930522  92.1179100  30.2587291
  70.9365723  92.5747652  29.4194923  71.5458864  91.3569785  30.0810134
  74.8035328  87.9068832  31.0837410  74.5472262  87.5065468  31.9145618
  74.1788196  88.6212626  30.9587549  79.1147666  90.6464905  33.5908702
  78.5547224  90.7158095  34.3640264  78.5091169  90.4705890  32.8708198
  62.1842874 102.0801633  35.3426888  62.0675259 103.0247065  35.2405578
  61.3635321 101.7775194  35.7312687  72.0719409  96.8051768  26.1883481
  72.9065013  96.3732967  26.0060955  71.9103752  96.6333782  27.1160375
  71.7265301  93.3083882  27.5539820  71.6714105  93.1428153  26.6128264
  71.1011356  94.0159914  27.7102010  56.5157816  88.5451946  41.3801242
  57.1616680  88.0350900  41.8688467  56.3074967  89.2820628  41.9544667
  69.0411208  95.6132793  46.8793383  69.9102368  95.7873446  46.5180018
  68.5617960  96.4327210  46.7569112  65.0361427  82.8091991  27.1325138
  65.0240096  83.7533830  27.2893409  65.9284848  82.6262136  26.8384600
  63.2097389 102.7329894  38.5582816  64.1124635 102.7653505  38.8749311
  62.9834759 101.8030345  38.5729152  64.9650991 101.4860881  35.2192895
  64.0146622 101.4862743  35.1057267  65.2683477 100.7393616  34.7028930
  68.8513546  79.4034767  31.3871075  68.0845942  78.8493254  31.5327757
  69.2624251  79.4756636  32.2485227  60.8555307  85.6919563  45.4776256
  61.7186769  85.3356368  45.6879581  60.2820718  85.3533458  46.1651661
  80.7003684 107.3221419  36.2838657  81.3382094 107.2028167  35.5801997
  80.5824527 108.2702263  36.3426610  77.5093390 107.2748847  36.2200182
  77.1711902 107.1589912  35.3320717  78.3783159 106.8740013  36.2001188
  73.3680206 109.1284324  32.2097073  72.8045071 109.0374261  31.4413361
  73.2532601 108.3084228  32.6899566  77.9913173 108.4283699  42.1786388
  77.9801814 108.0336497  41.3066891  78.1533813 107.6949772  42.7720159
  70.9144638 110.6235515  35.0481293  71.7065930 110.2826340  34.6327593
  71.1541288 110.7330491  35.9683447  78.9479765 112.7955292  27.5211538
  78.2967744 113.3809372  27.1345552  79.7424128 113.3261486  27.5806575
  72.8735392 109.8844429  27.9198672  73.6466268 109.3373416  27.7811548
  73.2260791 110.7488678  28.1313134  74.7120434 111.2120811  41.1265572
  74.4210300 112.1166442  41.0112238  75.3477419 111.2537339  41.8409641
  75.6376641 108.5897659  37.7166931  76.2340214 108.3653682  37.0023894
  75.6951613 107.8482405  38.3192379  75.2101670 106.0437095  25.5517122
  75.4627190 105.5218616  24.7900585  74.2726229 105.8803240  25.6543806
  80.2544953 105.0472873  33.3591865  81.0408042 104.6292296  33.0082282
  80.5183657 105.9518965  33.5273514  80.4255030 110.4845723  28.0580522
  79.7900863 110.5580350  28.7701427  80.0952436 111.0739322  27.3799601
  85.6553380 104.9848106  34.2624844  86.3878552 104.4147323  34.4962673
  84.8992735 104.5969707  34.7031350  74.9297958 107.9465201  27.7541497
  74.8134217 107.2710104  28.4222581  75.0400218 107.4597575  26.9373650
  77.2729499 107.4075348  31.4588186  76.9087707 106.8805969  32.1701108
  78.1296615 107.0173817  31.2854672  83.1778800  98.6969680  38.7219453
  82.8462125  99.5665091  38.4980668  82.5824413  98.3805964  39.4013483
  76.9134986 102.4365248  26.4549535  77.0809389 103.3045484  26.8220006
  76.7232155 102.5992529  25.5310824  79.6710320 110.8982226  38.1215365
  79.3711043 111.8007265  38.0131173  79.3261379 110.6314410  38.9736518
  73.1222801 107.3496023  34.1552070  72.1973297 107.2172237  34.3629761
  73.3707214 108.1290243  34.6522012  83.0707463 103.4164767  35.8012803
  82.1624341 103.3480175  35.5071564  83.0195059 103.8936712  36.6294628
  76.8924207 104.8922905  27.4396202  76.7723832 105.3379956  28.2781682
  76.1976796 105.2408223  26.8809740  70.4831612 106.9929297  34.9895859
  70.6123993 107.2463776  35.9035270  69.8029063 107.5857005  34.6700514
  74.6531099 117.6626547  31.0886333  74.5755129 118.6134372  31.1674814
  74.0492743 117.3172419  31.7461259  77.1448329 104.8354412  43.7447700
  76.3681663 105.3948332  43.7350565  77.7838892 105.3211195  44.2662570
  84.9369110 101.6181205  37.5790677  84.2943490 101.9113738  36.9330471
  84.4324038 101.5034125  38.3843873  82.5909273 105.3644378  28.2676536
  83.5027129 105.5971765  28.0924233  82.0818920 105.9481422  27.7051614
  75.3994701 107.6439866  43.3065667  76.1409386 108.1824910  43.0300490
  74.6931687 108.2706154  43.4637219  80.8750041 109.7869006  41.9037828
  81.2833397 109.3451417  41.1592461  80.1527303 109.2121634  42.1572021
  77.2281111 104.7241613  39.2771385  78.0742306 105.1481026  39.4206034
  77.1679749 104.0675237  39.9709948  81.1978856 110.3470197  35.6590117
  80.5687718 110.5115911  34.9566185  80.8104518 110.7611806  36.4301081
  85.0768088 111.2824635  33.0134481  84.3919126 111.6623536  32.4631514
  85.1611937 111.8919961  33.7466429  80.3780556 102.3845981  40.9352559
  80.1341488 103.1388042  40.3986835  80.6540487 102.7631329  41.7699806
  82.3319019 108.9284594  39.6129825  82.5435914 109.5716353  38.9364206
  82.2848767 108.0946910  39.1451755  79.9345248 101.5402414  36.5166397
  79.0729727 101.8383668  36.8083134  79.9607683 101.7572813  35.5847429
  76.7506818 110.0844605  32.9240202  77.2145163 110.3632308  32.1344825
  76.4863616 109.1828049  32.7413293  73.6430899 109.6316086  35.8619966
  74.2132256 110.0603355  35.2237450  74.2339010 109.3498671  36.5604151
  75.6875704 106.2067757  29.7329767  76.3899747 106.6588801  30.2003694
  75.3556332 105.5651576  30.3609661  74.1356065 104.7979514  44.1080977
  73.5054726 105.4795795  44.3416374  74.0292153 104.6862595  43.1634115
  69.4301038 104.4651310  35.0346901  68.6400092 104.7208838  34.5587012
  69.9212285 105.2799648  35.1398942  83.4464847 111.8056549  37.7852182
  84.2682291 111.4036736  37.5034864  83.4427250 111.7024783  38.7368298
  71.3815783 104.8295889  31.9930378  70.5846946 104.9414583  32.5113873
  71.1541375 105.1682541  31.1271268  77.2121451 111.3540592  39.9412892
  77.2765883 111.8161000  40.7771064  76.5032374 110.7237957  40.0695202
  67.7138741 104.7181800  37.4661892  67.9646779 105.6028810  37.7319468
  68.2498289 104.5386402  36.6936984  91.5370840 108.1495297  34.1337153
  90.7834549 107.5802696  33.9781158  91.6718381 108.1157962  35.0807788
  76.9269468 113.0208700  29.8091873  76.7915143 113.8660236  30.2376721
  77.4679281 113.2227977  29.0457806  73.4136808  99.1000280  46.4706228
  73.0203753  98.5466478  47.1453872  74.2302948  99.4110858  46.8612745
  70.3798866 110.5384138  30.3819798  70.8923386 111.3327388  30.5325362
  71.0321578 109.8410428  30.3153399  72.1893750 113.6549894  32.4642551
  72.3660379 114.5767859  32.2763535  72.9850584 113.3408313  32.8936931
  76.3304769 100.5158159  44.0626484  77.0714482 101.1165312  43.9830947
  76.5622692  99.7735797  43.5044527  71.4746107 105.7014526  42.3404714
  71.3599622 104.7999783  42.6411813  70.6190625 105.9478223  41.9889531
  78.5537945 113.6432266  43.9392215  78.1101799 112.8568645  43.6213119
  79.2155158 113.8311417  43.2736106  73.3125066 115.1728068  38.4652893
  73.8632491 115.0445131  37.6929887  72.4736542 115.4722957  38.1147786
  80.6519183 113.9235066  41.9673616  80.6337658 114.7443947  41.4753885
  81.5739103 113.7989141  42.1923757  77.1092237 111.4379196  42.8097124
  77.6420574 110.6767484  42.5796432  76.5806318 111.1452848  43.5521279
  80.2761932  96.5439262  38.3390766  79.9326201  97.4340903  38.2629877
  80.6440894  96.3540919  37.4760351  68.3447782 108.8672792  31.1579368
  69.1823004 109.2769800  30.9413076  68.5226050 107.9272234  31.1279562
  80.2412215 106.5347873  26.8463201  79.7258838 107.3052477  27.0851589
  79.9689523 105.8613009  27.4696263  77.8259326 101.3797574  31.9048440
  76.9700922 100.9904424  31.7254078  78.2386277 101.4589534  31.0448225
  79.3558472  98.9143917  36.3039999  78.8523268  98.8774052  35.4907805
  79.6489079  99.8236660  36.3636656  75.6001358  98.9982647  35.3106181
  76.4654355  98.8025455  34.9512071  75.6678867  98.7692998  36.2375538
  85.2146489 109.2880227  28.7816375  84.4375931 108.9491387  28.3371537
  85.8937970 109.2932851  28.1071340  80.0298518 104.4074965  28.6722982
  79.7248653 104.7221114  29.5233126  80.9828960 104.4856385  28.7150315
  78.4744950 110.5665188  30.3215936  77.9466311 109.8317948  30.0089174
  77.9732452 111.3439865  30.0755905  83.4537796 108.7614209  35.4382983
  82.7961470 109.4513470  35.5263111  84.2578195 109.1510641  35.7816969
  73.2063677 101.2284854  32.6822548  73.7807429 101.0060036  31.9495741
  73.7934660 101.2973549  33.4351149  82.2643254 107.1158581  33.4886924
  82.7775136 107.7488573  33.9908634  82.9144478 106.5159777  33.1230285
  73.5333264 103.2589316  26.7018433  72.6970577 103.5964002  27.0227708
  73.3938034 103.1238295  25.7645570  75.5086345  98.1026103  31.4097617
  74.8550757  97.7875121  30.7854232  75.4666819  97.4801844  32.1357440
  76.6197550 108.3845398  23.3250909  75.7124611 108.1534652  23.5242058
  77.1168582 107.5883018  23.5124891  78.7424085 104.5908037  35.7345265
  77.8246647 104.8122984  35.5766953  79.1584229 104.6654347  34.8756972
  79.5259133 105.9899453  30.8647945  80.2730952 106.5020850  30.5555067
  79.7950723 105.6683505  31.7252339  77.7985783 108.4857993  27.8474900
  76.8897002 108.2017026  27.9447369  77.8280867 108.9057072  26.9878206
  83.0305051 112.0964583  31.6166067  82.5767378 111.2555493  31.6731258
  82.3999017 112.7325981  31.9540847  81.9737970 103.0256569  32.8466735
  81.2360727 102.5133955  33.1776977  82.2264744 102.5856950  32.0350011
  81.4737990 113.9341080  32.5515885  81.7660964 114.4946137  31.8328251
  81.9836610 114.2269641  33.3069044  82.0749597  95.8032821  33.4408504
  82.3808474  94.9430184  33.1534419  82.8002202  96.3950441  33.2407498
  68.3673954 106.2063507  31.8290102  68.1698353 105.6132868  31.1041168
  67.8120618 105.9015718  32.5466041  76.3470677 106.0986614  33.9484695
  76.4019287 105.1460450  33.8727171  75.5361879 106.2546053  34.4325993
  77.4961871 110.0266737  25.1862978  77.0581301 109.3102596  24.7268615
  78.2372312 110.2542852  24.6248070  74.2863037 104.7163674  31.7075074
  73.4730903 105.0157844  32.1140266  74.7822031 104.3219362  32.4249556
  76.4371615 114.7121431  33.6409338  76.3947794 114.9382277  32.7117870
  77.3534314 114.4784805  33.7895140  79.8837249 105.1805498  40.5389968
  80.2386637 105.4076971  41.3984433  80.5309380 105.5123875  39.9167223
  85.6134986 108.3023934  31.2439297  85.4752884 108.4925530  30.3160486
  85.2571205 109.0643317  31.7007348  73.7777112 102.2882029  37.3236309
  74.4176491 102.1470788  36.6259272  72.9454642 102.0016543  36.9474911
  85.6404365 110.3700461  36.2550568  86.0740872 110.2775750  37.1033622
  86.3535946 110.3457962  35.6170584  74.5537416 111.5884460  33.4371301
  75.3478014 111.0934780  33.2353876  73.8429108 111.0602323  33.0739007
  79.3732260 113.9702555  37.7883669  79.4269283 114.5393491  38.5561385
  78.5047042 114.1404440  37.4237706  70.8620179 105.7327541  29.5131054
  69.9317767 105.6711997  29.7301016  70.9577651 105.2103494  28.7167695
  70.7805728 102.2582354  32.1009296  71.0412546 103.1727687  31.9918456
  71.6022901 101.7906797  32.2505908  72.2530654 103.6720111  39.2708120
  72.9253707 103.4637473  38.6220769  71.4260440 103.4742197  38.8313352
  86.5019915 110.4124162  38.7883454  86.6955805 111.3169972  39.0342729
  86.4020533 109.9531581  39.6222039  78.1556226 100.2982052  41.2873781
  77.5084141 100.9972002  41.1938257  78.9257241 100.7318196  41.6550029
  81.5635024 110.5630904  44.3624334  81.4120530 110.3341456  43.4454418
  81.5539703 111.5201506  44.3755679  78.3320360 108.1362817  39.3470601
  79.2612420 108.2873977  39.1739568  77.9111390 108.2246838  38.4919247
  77.1308692 112.1613482  37.1169138  76.9919777 111.7932266  37.9895076
  76.3423288 112.6761121  36.9453096  77.7256844 117.2622578  28.4594675
  77.9008599 116.7910621  29.2740297  77.0389632 117.8888344  28.6875936
  78.6813907 111.5395084  34.5057976  78.3463740 111.4995854  35.4015626
  78.1817853 110.8739800  34.0328386  72.6558151 106.9462714  40.0310557
  72.5177949 106.2142953  40.6322096  73.5663074 106.8571614  39.7494745
  81.6173099 108.8851119  24.7795036  81.0002269 108.1597947  24.6828088
  81.1489587 109.6460479  24.4362110  75.2840452 106.6582674  39.5194237
  75.9940070 106.0175866  39.4780855  75.2409760 106.9095568  40.4420418
  83.2727230 113.5950027  42.4400816  83.2139776 112.9109247  41.7731399
  83.6746749 114.3369017  41.9881442  73.9969386 103.6447892  41.3389876
  73.4606743 103.1938630  41.9911473  73.4086094 103.7793800  40.5960341
  72.2917929 120.4111941  35.2334535  72.5314527 121.0430465  35.9113554
  71.4487126 120.0599981  35.5199894  73.4071644 103.1036543  23.9016340
  72.5301111 102.9825344  23.5378587  73.8829398 102.3122621  23.6495229
  83.2744638 111.5589611  40.6714796  82.3871416 111.2215533  40.7941195
  83.8443189 110.8272642  40.9083561  64.9273785 107.8913703  33.9957847
  65.6144824 107.5775433  33.4078862  64.7721913 108.7955067  33.7225099
  69.7308507 102.7803899  38.4242871  69.6466696 102.1729569  37.6893281
  68.9091213 103.2712918  38.4252367  76.8045791 116.2191063  37.6376039
  76.7315962 117.0246035  38.1495344  76.3623184 116.4183029  36.8124060
  76.5935571 115.4562833  31.1478861  75.8103092 115.9984513  31.2417085
  77.2928316 115.9736813  31.5473102  79.9032221 101.2657463  33.7913066
  80.4000920 100.5127425  33.4714136  79.1319202 101.3021779  33.2256275
  87.7561978 106.9697828  35.4331357  87.7451854 107.8522544  35.0625290
  86.8879357 106.6169379  35.2385894  79.2644474 116.1177897  39.7934198
  79.9772447 116.7525362  39.7210099  78.7734503 116.2141763  38.9774199
  80.9862001 110.0229150  31.3651489  80.0518280 110.1430612  31.1956194
  81.1638670 109.1201617  31.1011499  76.4867189 103.4074846  33.5184750
  76.1164977 102.8545886  34.2065656  76.9826282 102.8032979  32.9659751
  84.3734553 105.8646469  31.9001523  84.8395005 106.6974461  31.8261826
  84.8242053 105.3991451  32.6046782  74.3156388 113.8672341  40.6139768
  75.0165847 114.5008824  40.7669163  73.8451503 114.2087072  39.8535408
  82.4410784 112.2090291  28.8987675  82.7170628 112.0946885  29.8081550
  81.5715283 111.8107775  28.8599849  82.3451215  98.2327056  35.9392425
  81.4314295  98.4631283  36.1074632  82.7744317  98.3165500  36.7906457
  82.1157674 106.4216948  38.4392319  81.4629124 106.6692856  37.7844772
  82.4938054 105.6081086  38.1054796  79.0764848 116.4576641  32.5420489
  79.2587242 115.6398297  33.0048241  79.8997834 116.6744334  32.1045379
  79.4107013 115.3844827  29.8035538  79.9394780 114.8737281  29.1905700
  79.6735233 115.0687357  30.6681071  78.1645247 107.1636759  44.9258356
  77.4885884 107.0630889  45.5960731  78.9872881 107.0075973  45.3894353
  69.9124106 113.4008696  37.5470871  70.4977543 112.6552384  37.6798775
  69.7148944 113.7112653  38.4307535  72.7662761 116.4359943  32.5633314
  72.0973137 116.9206071  32.0797354  72.6275631 116.6829164  33.4776692
  64.5041761 105.9714296  36.2675314  64.5425860 105.4377887  37.0612432
  63.9982054 105.4449502  35.6486291  76.9068030 118.4703687  39.1615972
  77.4586338 118.6335308  39.9265057  77.2474223 119.0608125  38.4895997
  71.8832523 100.8178837  39.7637857  71.9473850 101.6793667  39.3515254
  71.8199643 100.2052838  39.0310215  71.3584796 102.8901969  43.4110891
  71.9856834 102.5079046  44.0248415  70.5012714 102.6716171  43.7766583
  81.7578904 113.2964944  45.0164626  82.3018808 113.9094903  44.5219581
  81.1765749 113.8544523  45.5331639  68.1350338 104.6978398  29.3429246
  68.4303779 103.7889077  29.2896299  67.2338374 104.6766138  29.0210248
  80.0436417 116.4185662  36.1479654  79.9187557 115.6175402  35.6390600
  80.7015508 116.9131856  35.6593624  71.6644585 102.7734395  35.3256794
  70.9431171 103.3870362  35.1864268  72.4537841 103.3092160  35.2473440
  82.1071325 114.2194682  37.7759204  81.1601661 114.1000034  37.7037531
  82.4554099 113.3317180  37.8585466  74.4670899 100.1088821  41.5997446
  74.9905301 100.3551118  42.3623755  74.2483232 100.9408856  41.1800583
  69.8638180 102.3792496  29.4668571  69.5350886 101.4989875  29.2843677
  70.2177551 102.3240165  30.3544960  79.1117759 114.0147399  33.9763556
  78.9642721 113.0864106  34.1571126  79.9371252 114.0367489  33.4920632
  72.9780003 102.6665466  29.8344049  73.3176076 103.1951387  29.1122657
  73.4252124 103.0045872  30.6102615  82.7151881 114.8375957  35.0628429
  83.6398428 114.6318819  34.9252880  82.5467184 114.5892358  35.9717771
  75.6723444 101.0502516  39.2847117  75.3320264 100.2510329  39.6867796
  74.9662450 101.3504227  38.7123950  76.3239916  98.1351829  37.7374440
  77.1465985  97.6612307  37.6153330  76.5677979  98.9142313  38.2373126
  74.9648150 101.1640087  28.0337341  75.6856513 101.5421340  27.5301058
  74.3413454 101.8828964  28.1372319  79.1079273 101.8685236  28.9695674
  79.3242887 102.7509874  28.6684502  78.6273340 101.4771450  28.2401316
  73.8478494 104.8270949  35.5466418  73.7023075 105.1411252  36.4390700
  73.3703698 105.4455850  34.9937317  75.7074877 101.8173497  35.5947308
  75.6936446 100.9214591  35.2579606  76.4247305 101.8244161  36.2285594
  77.5601008 102.2510838  37.6400435  77.3018786 103.1727908  37.6384766
  77.0286048 101.8541272  38.3300899  82.5047197 115.3561625  30.4190521
  82.6784074 114.7908047  29.6664373  82.9976088 116.1562520  30.2370011
  68.3224157 107.3676294  38.4854079  67.7777625 108.1436102  38.6174354
  69.2003507 107.7147098  38.3273201  75.1111773 100.6987878  30.8634878
  75.2327684  99.7704524  31.0625765  74.8213816 100.7126564  29.9513193
  77.9802964  98.3842788  34.0001598  78.0024661  98.4482121  33.0453577
  78.3971023  97.5447297  34.1942104  88.3586588 108.1198048  32.0380820
  88.8017734 107.3705373  31.6399944  87.4813098 108.1108184  31.6554552
  83.4922369 114.6728389  27.5187419  84.1873274 115.2935082  27.7374733
  83.8345519 113.8223740  27.7939797  69.1090179 106.4946190  41.3784236
  68.3671915 106.6428825  41.9648867  68.7882923 106.7554456  40.5150986
  85.3913792 112.1228095  29.0474750  85.9165117 112.4615367  28.3224070
  85.3036145 111.1875110  28.8637884  77.0533841 116.0362168  41.1764626
  77.3620968 115.7911315  42.0487326  77.8509323 116.2408807  40.6883496
  77.0754453 118.1900078  33.4070003  76.6359443 117.6976457  34.1002859
  77.8262570 117.6473046  33.1662078  69.5546792 114.3811619  33.4094631
  70.3804812 114.0815391  33.0293274  69.2040844 113.6119241  33.8584420
  74.5228325 113.7338087  35.4792304  73.9008335 113.0708792  35.1794532
  75.1933192 113.7599219  34.7965952  67.7555397 112.2997945  34.3683564
  66.9187306 111.8720120  34.1867566  67.7279043 112.4930389  35.3054356
  74.5952853 102.2119875  45.0724810  74.6441008 103.0881998  44.6902580
  75.1375367 101.6697268  44.4996454  85.0807699 112.7560998  44.3525948
  84.2903242 112.7385137  43.8130447  84.8441053 113.2949292  45.1074984
  85.2005574 109.6053465  41.6658676  85.2503578 109.4403472  42.6074199
  85.0919497 108.7380724  41.2756557  74.0841832 112.2842010  28.9550765
  74.2329953 112.9677475  28.3017438  74.8908276 112.2647100  29.4700221
  82.4909336 105.5884393  42.9817983  83.3919199 105.4490858  42.6901981
  82.5657310 105.7538848  43.9216160  76.8252141 102.9651247  41.8271169
  75.9555451 103.2584814  41.5553758  77.0611622 103.5491692  42.5478433
  86.7023770 112.0250406  41.9100698  86.4108579 112.3880387  42.7464159
  86.0895902 111.3117414  41.7314030  87.9019453 109.5903286  34.4303268
  88.7366344 110.0293090  34.5940828  88.0378582 109.1141939  33.6111514
  84.9510959 107.1483021  40.3780756  85.4265080 107.3410667  39.5699607
  84.0276524 107.2042207  40.1324139  71.8394465 108.3107188  29.9611834
  71.5940507 107.4069518  30.1592044  72.0090380 108.3124338  29.0191312
  79.5291175  99.1830864  39.3436590  80.0473119  99.9191891  39.0183078
  79.1746308  99.4894858  40.1783349  71.1090113 104.0435546  27.4597995
  70.4159358 104.1179901  26.8038031  70.8641865 103.2795889  27.9819512
  79.7803769  95.6031147  34.8637486  80.0605523  94.9354336  35.4897913
  80.5654376  95.7960243  34.3512150  77.5837238 114.7790141  26.4262512
  77.0111205 115.3980328  25.9732984  78.1570031 115.3289503  26.9602434
  83.6512628 104.0248781  38.6109061  84.6030051 104.1246879  38.6321285
  83.4816078 103.2327049  39.1207146  81.6727007 101.1104364  38.7968462
  81.0776939 101.3909377  38.1014951  81.3876704 101.5998265  39.5685203
  80.8034498 115.0627291  27.5571095  81.7365171 114.9972853  27.7603970
  80.7157710 115.8983558  27.0985627  86.1300705 107.2454901  37.7251361
  86.0977026 106.3070901  37.9111045  86.7401329 107.3238937  36.9917186
  77.9684036 106.1150954  23.7678565  78.9143141 105.9857162  23.8366983
  77.5898281 105.3765615  24.2447993  86.2795194 104.0365944  37.7709644
  85.7634243 103.2524401  37.5839573  87.1635142 103.7084661  37.9356164
  83.9405921  97.7806960  33.7305457  83.7430742  97.4722048  34.6148789
  84.5505626  98.5068599  33.8603387  91.9477255 108.3070907  36.8657398
  92.6780644 108.0456196  37.4265101  91.3384201 107.5699629  36.9059466
  90.0292552 106.4478770  37.4631849  89.3025716 106.3134735  36.8548340
  89.6139839 106.7555599  38.2688567  77.8522729 110.1668700  45.2279222
  78.7725738 110.3447299  45.4219268  77.8172312 109.2224745  45.0758921
  76.1526953 104.0400930  23.7033450  75.2458409 103.7434043  23.7796164
  76.4302934 103.7430748  22.8367736  67.0704894 105.3607293  34.1532497
  66.7507678 104.5072602  33.8606871  66.5238322 105.5755872  34.9090464
  70.8484801 108.0769734  37.8702003  71.0670811 109.0086842  37.8890037
  71.2610575 107.7177709  38.6556807  77.7689019  98.5837820  29.8577691
  76.9589747  98.2384905  30.2332938  78.4573436  98.2745363  30.4465303
  79.6979567  97.6615866  31.4801988  80.2510606  98.0811320  32.1392011
  79.9349654  96.7351615  31.5224944  75.7212667 103.6502940  47.2604752
  75.6209394 104.5997297  47.1916843  75.5034209 103.3221179  46.3880822
  74.9225738 100.8987865  23.8445429  75.7844902 101.2242764  24.1041247
  75.1076082 100.1119361  23.3318495  66.9393154 108.9810205  36.1225618
  66.2456625 108.5664158  35.6095573  67.6866145 109.0230741  35.5259037
  83.0758375  99.7716392  30.9880652  82.4957044 100.4301196  30.6058705
  82.8094307  98.9493736  30.5768070  81.5261941  99.1721449  33.1901973
  82.0261719  99.2837984  32.3816292  82.1697549  98.8682502  33.8302781
  75.5843937 107.0800079  46.0769814  75.1011018 107.8800439  46.2833703
  75.6704876 107.0908024  45.1237258  68.8529896 108.9128459  33.9991633
  68.8300584 109.0116146  33.0473516  69.1630533 109.7593609  34.3208799
  71.5117274 110.9704614  38.1138247  72.4660528 110.9388556  38.0468179
  71.3129798 110.5095237  38.9288473  72.1016656 109.5405730  40.6809045
  72.9209545 110.0349808  40.7043882  72.3753464 108.6237698  40.6526613
  81.8583253 101.9316482  30.0437001  80.9709108 102.2166133  29.8257195
  82.2737242 101.7710245  29.1964278  85.2097789 101.9563003  33.7591340
  85.9858179 102.4459455  34.0315957  84.4845923 102.3821057  34.2163209
  87.6470347 102.6690622  34.8165280  88.2414838 102.4286358  34.1058589
  87.7196931 101.9497753  35.4438817  69.8667503 116.5124233  35.1308445
  69.7321971 115.7524634  34.5646443  69.4499565 117.2365133  34.6637234
  81.0026466 111.6961157  24.1385021  81.7062316 111.9011159  24.7542676
  80.2789115 112.2637919  24.4034104  81.8324276 107.4471018  30.2587291
  81.7759478 107.9039569  29.4194923  82.3852619 106.6861703  30.0810134
  85.6429082 103.2360750  31.0837410  85.3866016 102.8357385  31.9145618
  85.0181950 103.9504544  30.9587549  89.9541420 105.9756823  33.5908702
  89.3940978 106.0450012  34.3640264  89.3484923 105.7997808  32.8708198
  73.0236629 117.4093550  35.3426888  72.9069013 118.3538983  35.2405578
  72.2029075 117.1067112  35.7312687  82.9113163 112.1343686  26.1883481
  83.7458767 111.7024884  26.0060955  82.7497506 111.9625700  27.1160375
  82.5659056 108.6375799  27.5539820  82.5107859 108.4720071  26.6128264
  81.9405111 109.3451832  27.7102010  67.3551571 103.8743864  41.3801242
  68.0010434 103.3642818  41.8688467  67.1468722 104.6112545  41.9544667
  79.8804963 110.9424711  46.8793383  80.7496122 111.1165363  46.5180018
  79.4011714 111.7619128  46.7569112  75.8755181  98.1383908  27.1325138
  75.8633851  99.0825748  27.2893409  76.7678603  97.9554054  26.8384600
  74.0491143 118.0621812  38.5582816  74.9518390 118.0945422  38.8749311
  73.8228513 117.1322263  38.5729152  75.8044745 116.8152799  35.2192895
  74.8540376 116.8154660  35.1057267  76.1077231 116.0685533  34.7028930
  79.6907301  94.7326685  31.3871075  78.9239696  94.1785172  31.5327757
  80.1018005  94.8048554  32.2485227  71.6949062 101.0211481  45.4776256
  72.5580523 100.6648286  45.6879581  71.1214472 100.6825375  46.1651661
  91.5397439 122.6513337  36.2838657  92.1775848 122.5320084  35.5801997
  91.4218281 123.5994181  36.3426610  88.3487145 122.6040765  36.2200182
  88.0105656 122.4881830  35.3320717  89.2176913 122.2031930  36.2001188
  88.8306928 123.7575617  42.1786388  88.8195569 123.3628415  41.3066891
  88.9927567 123.0241689  42.7720159  81.7538392 125.9527433  35.0481293
  82.5459684 125.6118258  34.6327593  81.9935043 126.0622408  35.9683447
  85.5514189 126.5412729  41.1265572  85.2604055 127.4458359  41.0112238
  86.1871173 126.5829256  41.8409641  86.4770396 123.9189577  37.7166931
  87.0733968 123.6945600  37.0023894  86.5345367 123.1774323  38.3192379
  91.0938707 120.3764791  33.3591865  91.8801796 119.9584214  33.0082282
  91.3577411 121.2810883  33.5273514  94.0172554 114.0261598  38.7219453
  93.6855879 114.8957009  38.4980668  93.4218168 113.7097882  39.4013483
  90.5104074 126.2274144  38.1215365  90.2104797 127.1299183  38.0131173
  90.1655134 125.9606327  38.9736518  83.9616555 122.6787941  34.1552070
  83.0367052 122.5464155  34.3629761  84.2100969 123.4582160  34.6522012
  93.9101218 118.7456684  35.8012803  93.0018095 118.6772093  35.5071564
  93.8588814 119.2228629  36.6294628  81.3225367 122.3221215  34.9895859
  81.4517748 122.5755693  35.9035270  80.6422818 122.9148923  34.6700514
  87.9842084 120.1646330  43.7447700  87.2075418 120.7240250  43.7350565
  88.6232647 120.6503113  44.2662570  95.7762864 116.9473123  37.5790677
  95.1337244 117.2405656  36.9330471  95.2717793 116.8326043  38.3843873
  86.2388456 122.9731783  43.3065667  86.9803140 123.5116827  43.0300490
  85.5325441 123.5998072  43.4637219  91.7143796 125.1160924  41.9037828
  92.1227152 124.6743334  41.1592461  90.9921057 124.5413551  42.1572021
  88.0674866 120.0533531  39.2771385  88.9136061 120.4772944  39.4206034
  88.0073503 119.3967155  39.9709948  91.2174311 117.7137899  40.9352559
  90.9735243 118.4679959  40.3986835  91.4934241 118.0923246  41.7699806
  93.1712774 124.2576511  39.6129825  93.3829669 124.9008271  38.9364206
  93.1242522 123.4238828  39.1451755  90.7739003 116.8694332  36.5166397
  89.9123482 117.1675585  36.8083134  90.8001437 117.0864731  35.5847429
  84.4824653 124.9608004  35.8619966  85.0526010 125.3895272  35.2237450
  85.0732765 124.6790589  36.5604151  84.9749820 120.1271431  44.1080977
  84.3448480 120.8087712  44.3416374  84.8685908 120.0154513  43.1634115
  80.2694792 119.7943228  35.0346901  79.4793846 120.0500756  34.5587012
  80.7606039 120.6091565  35.1398942  82.2209537 120.1587807  31.9930378
  81.4240701 120.2706501  32.5113873  81.9935130 120.4974459  31.1271268
  88.0515205 126.6832510  39.9412892  88.1159638 127.1452917  40.7771064
  87.3426129 126.0529875  40.0695202  78.5532495 120.0473718  37.4661892
  78.8040533 120.9320728  37.7319468  79.0892043 119.8678319  36.6936984
  84.2530562 114.4292197  46.4706228  83.8597508 113.8758396  47.1453872
  85.0696703 114.7402776  46.8612745  87.1698523 115.8450076  44.0626484
  87.9108237 116.4457230  43.9830947  87.4016446 115.1027714  43.5044527
  82.3139861 121.0306444  42.3404714  82.1993377 120.1291701  42.6411813
  81.4584379 121.2770140  41.9889531  84.1518820 130.5019986  38.4652893
  84.7026245 130.3737049  37.6929887  83.3130296 130.8014875  38.1147786
  87.9485991 126.7671113  42.8097124  88.4814328 126.0059402  42.5796432
  87.4200072 126.4744765  43.5521279  91.1155686 111.8731179  38.3390766
  90.7719956 112.7632821  38.2629877  91.4834649 111.6832837  37.4760351
  79.1841537 124.1964710  31.1579368  80.0216759 124.6061718  30.9413076
  79.3619805 123.2564152  31.1279562  88.6653080 116.7089491  31.9048440
  87.8094676 116.3196342  31.7254078  89.0780032 116.7881452  31.0448225
  90.1952227 114.2435835  36.3039999  89.6917022 114.2065970  35.4907805
  90.4882834 115.1528577  36.3636656  86.4395113 114.3274564  35.3106181
  87.3048109 114.1317373  34.9512071  86.5072621 114.0984916  36.2375538
  84.0457432 116.5576772  32.6822548  84.6201184 116.3351954  31.9495741
  84.6328414 116.6265467  33.4351149  86.3480099 113.4318021  31.4097617
  85.6944512 113.1167038  30.7854232  86.3060574 112.8093762  32.1357440
  89.5817840 119.9199955  35.7345265  88.6640401 120.1414902  35.5766953
  89.9977983 119.9946265  34.8756972  92.9143352 111.1324739  33.4408504
  93.2202229 110.2722102  33.1534419  93.6395957 111.7242359  33.2407498
  79.2067708 121.5355425  31.8290102  79.0092108 120.9424786  31.1041168
  78.6514372 121.2307635  32.5466041  87.1864432 121.4278532  33.9484695
  87.2413041 120.4752368  33.8727171  86.3755634 121.5837971  34.4325993
  85.1256792 120.0455591  31.7075074  84.3124657 120.3449762  32.1140266
  85.6215786 119.6511280  32.4249556  90.7231003 120.5097416  40.5389968
  91.0780391 120.7368889  41.3984433  91.3703135 120.8415793  39.9167223
  84.6170866 117.6173947  37.3236309  85.2570246 117.4762706  36.6259272
  83.7848397 117.3308460  36.9474911  81.6199483 117.5874272  32.1009296
  81.8806300 118.5019605  31.9918456  82.4416655 117.1198714  32.2505908
  83.0924408 119.0012029  39.2708120  83.7647462 118.7929391  38.6220769
  82.2654195 118.8034115  38.8313352  88.9949980 115.6273970  41.2873781
  88.3477895 116.3263920  41.1938257  89.7650996 116.0610114  41.6550029
  89.1714114 123.4654735  39.3470601  90.1006174 123.6165894  39.1739568
  88.7505145 123.5538756  38.4919247  87.9702446 127.4905399  37.1169138
  87.8313532 127.1224184  37.9895076  87.1817043 128.0053039  36.9453096
  83.4951905 122.2754632  40.0310557  83.3571703 121.5434871  40.6322096
  84.4056829 122.1863532  39.7494745  86.1234206 121.9874591  39.5194237
  86.8333825 121.3467784  39.4780855  86.0803514 122.2387486  40.4420418
  84.8363140 118.9739809  41.3389876  84.3000497 118.5230548  41.9911473
  84.2479848 119.1085718  40.5960341  75.7667539 123.2205620  33.9957847
  76.4538579 122.9067350  33.4078862  75.6115668 124.1246985  33.7225099
  80.5702261 118.1095817  38.4242871  80.4860450 117.5021486  37.6893281
  79.7484968 118.6004835  38.4252367  90.7425975 116.5949380  33.7913066
  91.2394675 115.8419343  33.4714136  89.9712957 116.6313697  33.2256275
  87.3260944 118.7366763  33.5184750  86.9558731 118.1837804  34.2065656
  87.8220036 118.1324897  32.9659751  85.1550142 129.1964258  40.6139768
  85.8559602 129.8300741  40.7669163  84.6845257 129.5378990  39.8535408
  93.1844970 113.5618974  35.9392425  92.2708050 113.7923201  36.1074632
  93.6138071 113.6457418  36.7906457  92.9551428 121.7508866  38.4392319
  92.3022879 121.9984773  37.7844772  93.3331808 120.9373004  38.1054796
  89.0039001 122.4928677  44.9258356  88.3279638 122.3922806  45.5960731
  89.8266635 122.3367891  45.3894353  80.7517861 128.7300613  37.5470871
  81.3371297 127.9844301  37.6798775  80.5542699 129.0404570  38.4307535
  75.3435515 121.3006214  36.2675314  75.3819615 120.7669804  37.0612432
  74.8375808 120.7741419  35.6486291  82.7226278 116.1470754  39.7637857
  82.7867604 117.0085585  39.3515254  82.6593398 115.5344756  39.0310215
  82.1978550 118.2193887  43.4110891  82.8250589 117.8370964  44.0248415
  81.3406469 118.0008089  43.7766583  78.9744093 120.0270316  29.3429246
  79.2697534 119.1180994  29.2896299  78.0732129 120.0058055  29.0210248
  82.5038340 118.1026312  35.3256794  81.7824926 118.7162280  35.1864268
  83.2931596 118.6384077  35.2473440  85.3064653 115.4380739  41.5997446
  85.8299055 115.6843035  42.3623755  85.0876987 116.2700774  41.1800583
  80.7031934 117.7084414  29.4668571  80.3744641 116.8281792  29.2843677
  81.0571305 117.6532082  30.3544960  83.8173758 117.9957383  29.8344049
  84.1569830 118.5243305  29.1122657  84.2645878 118.3337789  30.6102615
  86.5117198 116.3794434  39.2847117  86.1714019 115.5802247  39.6867796
  85.8056205 116.6796145  38.7123950  87.1633670 113.4643746  37.7374440
  87.9859740 112.9904225  37.6153330  87.4071734 114.2434230  38.2373126
  84.6872249 120.1562867  35.5466418  84.5416830 120.4703170  36.4390700
  84.2097453 120.7747767  34.9937317  86.5468632 117.1465415  35.5947308
  86.5330201 116.2506508  35.2579606  87.2641060 117.1536079  36.2285594
  88.3994763 117.5802755  37.6400435  88.1412540 118.5019826  37.6384766
  87.8679803 117.1833190  38.3300899  79.1617911 122.6968211  38.4854079
  78.6171379 123.4728019  38.6174354  80.0397261 123.0439016  38.3273201
  85.9505528 116.0279795  30.8634878  86.0721439 115.0996442  31.0625765
  85.6607570 116.0418481  29.9513193  88.8196718 113.7134706  34.0001598
  88.8418415 113.7774039  33.0453577  89.2364777 112.8739214  34.1942104
  79.9483933 121.8238108  41.3784236  79.2065669 121.9720743  41.9648867
  79.6276677 122.0846373  40.5150986  78.5949152 127.6289863  34.3683564
  77.7581060 127.2012037  34.1867566  78.5672797 127.8222306  35.3054356
  85.4346607 117.5411793  45.0724810  85.4834763 118.4173916  44.6902580
  85.9769122 116.9989186  44.4996454  93.3303090 120.9176310  42.9817983
  94.2312953 120.7782775  42.6901981  93.4051065 121.0830765  43.9216160
  87.6645896 118.2943165  41.8271169  86.7949205 118.5876731  41.5553758
  87.9005376 118.8783610  42.5478433  95.7904713 122.4774939  40.3780756
  96.2658835 122.6702585  39.5699607  94.8670279 122.5334124  40.1324139
  90.3684930 114.5122782  39.3436590  90.8866873 115.2483809  39.0183078
  90.0140062 114.8186775  40.1783349  90.6197524 110.9323065  34.8637486
  90.8999278 110.2646254  35.4897913  91.4048131 111.1252160  34.3512150
  94.4906382 119.3540699  38.6109061  95.4423805 119.4538796  38.6321285
  94.3209833 118.5618967  39.1207146  92.5120762 116.4396282  38.7968462
  91.9170694 116.7201295  38.1014951  92.2270458 116.9290183  39.5685203
  97.1188948 119.3657862  37.7709644  96.6027997 118.5816318  37.5839573
  98.0028897 119.0376578  37.9356164  94.7799675 113.1098877  33.7305457
  94.5824496 112.8013965  34.6148789  95.3899381 113.8360516  33.8603387
  88.6916483 125.4960617  45.2279222  89.6119493 125.6739216  45.4219268
  88.6566066 124.5516663  45.0758921  77.9098648 120.6899211  34.1532497
  77.5901433 119.8364519  33.8606871  77.3632076 120.9047789  34.9090464
  81.6878556 123.4061652  37.8702003  81.9064566 124.3378760  37.8890037
  82.1004330 123.0469626  38.6556807  88.6082774 113.9129737  29.8577691
  87.7983502 113.5676822  30.2332938  89.2967191 113.6037281  30.4465303
  90.5373322 112.9907784  31.4801988  91.0904361 113.4103238  32.1392011
  90.7743408 112.0643532  31.5224944  86.5606421 118.9794858  47.2604752
  86.4603148 119.9289215  47.1916843  86.3427963 118.6513097  46.3880822
  77.7786908 124.3102123  36.1225618  77.0850380 123.8956075  35.6095573
  78.5259899 124.3522659  35.5259037  92.3655695 114.5013367  33.1901973
  92.8655474 114.6129902  32.3816292  93.0091303 114.1974420  33.8302781
  86.4237691 122.4091997  46.0769814  85.9404773 123.2092357  46.2833703
  86.5098630 122.4199942  45.1237258  79.6923651 124.2420376  33.9991633
  79.6694339 124.3408064  33.0473516  80.0024287 125.0885527  34.3208799
  82.3511029 126.2996531  38.1138247  83.3054282 126.2680474  38.0468179
  82.1523552 125.8387155  38.9288473  82.9410411 124.8697647  40.6809045
  83.7603300 125.3641726  40.7043882  83.2147219 123.9529616  40.6526613
  96.0491543 117.2854921  33.7591340  96.8251933 117.7751373  34.0315957
  95.3239677 117.7112975  34.2163209  78.1945325 119.2035781  41.3801242
  78.8404189 118.6934735  41.8688467  77.9862476 119.9404463  41.9544667
  90.5301055 110.0618603  31.3871075  89.7633451 109.5077089  31.5327757
  90.9411760 110.1340471  32.2485227  82.5342816 116.3503398  45.4776256
  83.3974278 115.9940203  45.6879581  81.9608227 116.0117293  46.1651661
  24.3569173  14.0034801  30.6637521  23.9133028  13.2171179  30.3458426
  25.0186387  14.1913951  29.9981412  26.4550411  14.2837600  28.6918923
  26.4368887  15.1046481  28.1999192  27.3770332  14.1591676  28.9169064
  27.3666252  10.9233439  31.0869641  27.2151759  10.6943990  30.1699725
  27.3570932  11.8804040  31.1000986  29.0758459  13.9552561  29.1646123
  29.0171005  13.2711781  28.4976706  29.4777977  14.6971551  28.7126749
  27.5610133  13.6567478  31.7409933  28.1050037  14.2697437  31.2464888
  26.9796978  14.2147057  32.2576946  30.8838927  13.1163533  31.0771254
  30.0934471  13.0987671  30.5375754  30.6472282  13.6551826  31.8320291
  32.5054999  12.3852940  28.6346004  32.2139808  12.7482921  29.4709465
  31.8927130  11.6719949  28.4559336  25.6836192  11.3027245  33.6038689
  26.5527351  11.4767898  33.2425324  25.2042943  12.1221662  33.4814419
  37.3428667  23.0115871  23.0083964  37.9807077  22.8922619  22.3047304
  37.2249510  23.9596715  23.0671916  34.1518374  22.9643299  22.9445489
  33.8136885  22.8484364  22.0566024  35.0208142  22.5634464  22.9246495
  34.6338157  24.1178151  28.9031694  34.6226797  23.7230949  28.0312198
  34.7958796  23.3844224  29.4965466  27.5569621  26.3129967  21.7726600
  28.3490913  25.9720792  21.3572899  27.7966271  26.4224942  22.6928753
  31.3545418  26.9015263  27.8510878  31.0635284  27.8060894  27.7357545
  31.9902402  26.9431790  28.5654948  32.2801625  24.2792111  24.4412238
  32.8765197  24.0548134  23.7269201  32.3376596  23.5376857  25.0437686
  42.2978363  20.6742558  20.9870151  43.0303535  20.1041775  21.2207980
  41.5417719  20.2864159  21.4276656  39.8203783  14.3864132  25.4464759
  39.4887108  15.2559543  25.2225974  39.2249397  14.0700416  26.1258790
  36.3135303  26.5876678  24.8460672  36.0136026  27.4901717  24.7376479
  35.9686362  26.3208862  25.6981825  39.7132447  19.1059219  22.5258109
  38.8049324  19.0374627  22.2316870  39.6620042  19.5831163  23.3539935
  31.2956083  33.3520999  17.8131640  31.2180112  34.3028824  17.8920120
  30.6917726  33.0066871  18.4706566  33.7873312  20.5248864  30.4693007
  33.0106646  21.0842784  30.4595871  34.4263875  21.0105647  30.9907877
  41.5794093  17.3075657  24.3035983  40.9368473  17.6008190  23.6575778
  41.0749022  17.1928577  25.1089180  32.0419685  23.3334318  30.0310974
  32.7834369  23.8719361  29.7545797  31.3356670  23.9600606  30.1882525
  37.5175024  25.4763458  28.6283135  37.9258380  25.0345868  27.8837767
  36.7952286  24.9016085  28.8817328  33.8706094  20.4136065  26.0016692
  34.7167290  20.8375478  26.1451341  33.8104732  19.7569689  26.6955255
  37.8403839  26.0364649  22.3835424  37.2112701  26.2010363  21.6811492
  37.4529501  26.4506258  23.1546388  41.7193071  26.9719086  19.7379788
  41.0344109  27.3517988  19.1876821  41.8036920  27.5814413  20.4711735
  37.0205540  18.0740433  27.6597866  36.7766472  18.8282494  27.1232141
  37.2965470  18.4525781  28.4945113  38.9744002  24.6179045  26.3375131
  39.1860898  25.2610805  25.6609512  38.9273751  23.7841362  25.8697061
  33.3931801  25.7739057  19.6485509  33.8570146  26.0526760  18.8590131
  33.1288599  24.8722501  19.4658600  30.2855882  25.3210538  22.5865272
  30.8557239  25.7497807  21.9482757  30.8763994  25.0393123  23.2849458
  30.7781048  20.4873966  30.8326284  30.1479709  21.1690247  31.0661680
  30.6717136  20.3757047  29.8879422  40.0889830  27.4951001  24.5097489
  40.9107274  27.0931188  24.2280170  40.0852233  27.3919235  25.4613604
  33.8546434  27.0435044  26.6658199  33.9190866  27.5055451  27.5016371
  33.1457358  26.4132409  26.7940509  48.1795823  23.8389749  20.8582460
  47.4259532  23.2697147  20.7026464  48.3143365  23.8052414  21.8053095
  30.0561791  14.7894732  33.1951535  29.6628737  14.2360930  33.8699179
  30.8727932  15.1005310  33.5858052  28.8318734  29.3444346  19.1887858
  29.0085362  30.2662311  19.0008841  29.6275567  29.0302765  19.6182237
  32.9729752  16.2052611  30.7871791  33.7139466  16.8059764  30.7076254
  33.2047675  15.4630248  30.2289834  28.1171090  21.3908978  29.0650021
  28.0024605  20.4894235  29.3657120  27.2615608  21.6372675  28.7134837
  35.1962928  29.3326718  30.6637521  34.7526782  28.5463097  30.3458426
  35.8580142  29.5205869  29.9981412  29.9550049  30.8622520  25.1898200
  30.5057474  30.7339583  24.4175194  29.1161525  31.1617409  24.8393093
  37.2944166  29.6129518  28.6918923  37.2762641  30.4338399  28.1999192
  38.2164086  29.4883593  28.9169064  33.7517220  27.1273648  29.5342431
  34.2845557  26.3661936  29.3041739  33.2231301  26.8347299  30.2766586
  40.0962779  24.4508661  22.1628289  39.4386453  25.1407922  22.2508418
  40.9003178  24.8405093  22.5062276  38.9068238  22.8053033  20.2132231
  39.4200119  23.4383025  20.7153941  39.5569462  22.2054229  19.8475591
  35.3849069  20.2802489  22.4590572  34.4671630  20.5017436  22.3012260
  35.8009212  20.3548799  21.6002279  39.6730034  27.7859035  18.3411374
  39.2192361  26.9449945  18.3976564  39.0424001  28.4220433  18.6786154
  38.1162973  29.6235531  19.2761192  38.4085947  30.1840589  18.5573558
  38.6261594  29.9164092  20.0314351  33.0796598  30.4015882  20.3654645
  33.0372777  30.6276729  19.4363177  33.9959297  30.1679257  20.5140446
  36.5262232  20.8699950  27.2635274  36.8811620  21.0971423  28.1229740
  37.1734363  21.2018327  26.6412530  42.2559969  23.9918386  17.9684603
  42.1177868  24.1819982  17.0405793  41.8996188  24.7537769  18.4252654
  42.2829349  26.0594913  22.9795875  42.7165855  25.9670202  23.8278929
  42.9960929  26.0352413  22.3415891  31.1962399  27.2778911  20.1616608
  31.9902998  26.7829232  19.9599183  30.4854091  26.7496775  19.7984313
  36.0157244  29.6597007  24.5128975  36.0694266  30.2287943  25.2806691
  35.1472025  29.8298892  24.1483013  28.8955637  19.3614563  25.9953427
  29.5678690  19.1531925  25.3466076  28.0685423  19.1636649  25.5558659
  43.1444898  26.1018614  25.5128760  43.3380788  27.0064424  25.7588035
  43.0445516  25.6426033  26.3467345  34.7981209  15.9876504  28.0119088
  34.1509124  16.6866454  27.9183564  35.5682224  16.4212648  28.3795336
  38.2060007  26.2525356  31.0869641  38.0545513  26.0235908  30.1699725
  38.1964686  27.2095958  31.1000986  34.9745343  23.8257269  26.0715907
  35.9037403  23.9768429  25.8984875  34.5536373  23.9141290  25.2164554
  33.7733675  27.8507933  23.8414445  33.6344761  27.4826718  24.7140383
  32.9848271  28.3655573  23.6698403  34.3681827  32.9517030  15.1839981
  34.5433583  32.4805073  15.9985604  33.6814615  33.5782796  15.4121242
  35.3238890  27.2289536  21.2303283  34.9888723  27.1890306  22.1260933
  34.8242836  26.5634252  20.7573693  29.2983134  22.6357166  26.7555864
  29.1602932  21.9037405  27.3567403  30.2088058  22.5466066  26.4740052
  31.9265435  22.3477126  26.2439544  32.6365053  21.7070318  26.2026162
  31.8834743  22.5990020  27.1665724  39.9152214  29.2844479  29.1646123
  39.8564760  28.6003699  28.4976706  40.3171732  30.0263469  28.7126749
  30.6394369  19.3342343  28.0635183  30.1031726  18.8833082  28.7156779
  30.0511077  19.4688252  27.3205647  28.9342912  36.1006393  21.9579842
  29.1739511  36.7324917  22.6358860  28.0912109  35.7494433  22.2445201
  39.9169621  27.2484063  27.3960102  39.0296400  26.9109985  27.5186501
  40.4868172  26.5167094  27.6328868  33.4470774  31.9085515  24.3621346
  33.3740946  32.7140487  24.8740650  33.0048167  32.1077481  23.5369367
  33.2360554  31.1457285  17.8724167  32.4528076  31.6878965  17.9662392
  33.9353299  31.6631265  18.2718408  44.3986961  22.6592280  22.1576664
  44.3876838  23.5416996  21.7870597  43.5304341  22.3063831  21.9631201
  35.9069458  31.8072349  26.5179504  36.6197430  32.4419814  26.4455406
  35.4159486  31.9036215  25.7019506  37.6286985  25.7123602  18.0896796
  36.6943263  25.8325064  17.9201500  37.8063653  24.8096069  17.8256806
  41.0159536  21.5540921  18.6246830  41.4819988  22.3868913  18.5507133
  41.4667036  21.0885903  19.3292089  30.9581371  29.5566793  27.3385075
  31.6590831  30.1903276  27.4914469  30.4876486  29.8981524  26.5780714
  38.7582657  22.1111400  25.1637625  38.1054107  22.3587308  24.5090078
  39.1363037  21.2975538  24.8300103  35.7189831  32.1471093  19.2665796
  35.9012226  31.3292749  19.7293548  36.5422817  32.3638786  18.8290686
  36.0531997  31.0739278  16.5280844  36.5819763  30.5631733  15.9151006
  36.3160216  30.7581809  17.3926377  34.8070230  22.8531211  31.6503663
  34.1310867  22.7525340  32.3206038  35.6297864  22.6970425  32.1139660
  26.5549089  29.0903148  24.2716178  27.1402526  28.3446836  24.4044082
  26.3573928  29.4007104  25.1552842  29.4087745  32.1254395  19.2878620
  28.7398120  32.6100523  18.8042660  29.2700614  32.3723616  20.2021999
  33.5493013  34.1598139  25.8861279  34.1011321  34.3229760  26.6510364
  33.8899207  34.7502576  25.2141303  28.0009779  18.5796421  30.1356197
  28.6281818  18.1973498  30.7493722  27.1437698  18.3610623  30.5011890
  38.4003887  28.9859396  31.7409933  38.9443791  29.5989354  31.2464888
  37.8190732  29.5438975  32.2576946  36.6861400  32.1080114  22.8724961
  36.5612540  31.3069854  22.3635906  37.3440492  32.6026308  22.3838931
  38.7496309  29.9089134  24.5004511  37.8026644  29.7894485  24.4282837
  39.0979082  29.0211632  24.5830772  31.1095882  15.7983273  28.3242753
  31.6330284  16.0445570  29.0869062  30.8908215  16.6303308  27.9045890
  35.7542742  29.7041850  20.7008863  35.6067705  28.7758558  20.8816433
  36.5796236  29.7261941  20.2165938  39.3576864  30.5270409  21.7873736
  40.2823411  30.3213271  21.6498187  39.1892167  30.2786810  22.6963077
  32.3148427  16.7396968  26.0092423  31.9745248  15.9404781  26.4113103
  31.6087433  17.0398679  25.4369256  34.2025991  17.9405290  24.3645742
  33.9443769  18.8622360  24.3630072  33.6711032  17.5435724  25.0546206
  39.1472180  31.0456077  17.1435827  39.3209058  30.4802499  16.3909680
  39.6401071  31.8456972  16.9615317  24.9649140  23.0570746  25.2099386
  24.4202608  23.8330554  25.3419660  25.8428490  23.4041550  25.0518507
  45.0011571  23.8092500  18.7626127  45.4442717  23.0599825  18.3645250
  44.1238082  23.8002636  18.3799859  40.1347353  30.3622841  14.2432725
  40.8298257  30.9829534  14.4620040  40.4770503  29.5118192  14.5185103
  25.7515162  22.1840642  28.1029543  25.0096898  22.3323277  28.6894173
  25.4307906  22.4448908  27.2396292  42.0338776  27.8122547  15.7720056
  42.5590100  28.1509819  15.0469376  41.9461128  26.8769562  15.5883191
  33.6958824  31.7256620  27.9009933  34.0045951  31.4805767  28.7732632
  34.4934306  31.9303259  27.4128803  33.7179436  33.8794530  20.1315309
  33.2784427  33.3870909  20.8248166  34.4687553  33.3367498  19.8907385
  26.1971775  30.0706071  20.1339937  27.0229795  29.7709843  19.7538581
  25.8465827  29.3013693  20.5829726  31.1653309  29.4232539  22.2037611
  30.5433318  28.7603244  21.9039839  31.8358176  29.4493671  21.5211259
  31.2377836  17.9014327  31.7970117  31.2865992  18.7776450  31.4147887
  31.7800350  17.3591720  31.2241760  41.7232682  28.4455450  31.0771254
  40.9328226  28.4279589  30.5375754  41.4866036  28.9843744  31.8320291
  41.8430557  25.2947917  28.3903983  41.8928562  25.1297924  29.3319506
  41.7344480  24.4275176  28.0001864  39.1334319  21.2778845  29.7063289
  40.0344182  21.1385309  29.4147287  39.2082294  21.4433299  30.6461467
  33.4677125  18.6545699  28.5516476  32.5980434  18.9479265  28.2799064
  33.7036605  19.2386144  29.2723739  43.3448754  27.7144858  28.6346004
  43.0533562  28.0774839  29.4709465  42.7320885  27.0011866  28.4559336
  44.5444436  25.2797738  21.1548575  45.3791327  25.7187542  21.3186135
  44.6803565  24.8036391  20.3356820  41.5935942  22.8377473  27.1026062
  42.0690064  23.0305119  26.2944914  40.6701507  22.8936659  26.8569446
  36.1716158  14.8725316  26.0681896  36.6898102  15.6086343  25.7428385
  35.8171291  15.1789310  26.9028655  40.2937611  19.7143233  25.3354368
  41.2455034  19.8141330  25.3566592  40.1241061  18.9221501  25.8452452
  38.3151990  16.7998816  25.5213769  37.7201923  17.0803829  24.8260257
  38.0301687  17.2892717  26.2930510  42.7725689  22.9349353  24.4496668
  42.7402009  21.9965353  24.6356351  43.3826312  23.0133389  23.7162492
  42.9220177  19.7260396  24.4954951  42.4059226  18.9418853  24.3084880
  43.8060126  19.3979113  24.6601470  48.5902239  23.9965359  23.5902704
  49.3205627  23.7350647  24.1510408  47.9809184  23.2594081  23.6304772
  46.6717536  22.1373222  24.1877156  45.9450699  22.0029187  23.5793647
  46.2564823  22.4450051  24.9933874  34.4947712  25.8563152  31.9524529
  35.4150722  26.0341751  32.1464575  34.4597295  24.9119197  31.8004228
  27.4909785  23.7664186  24.5947310  27.7095794  24.6981294  24.6135344
  27.9035558  23.4072161  25.3802114  32.3637650  19.3397392  33.9850059
  32.2634377  20.2891749  33.9162150  32.1459192  19.0115631  33.1126129
  32.2268920  22.7694531  32.8015120  31.7436002  23.5694891  33.0079009
  32.3129859  22.7802476  31.8482564  28.1542258  26.6599066  24.8383554
  29.1085511  26.6283008  24.7713486  27.9554781  26.1989689  25.6533780
  28.7441640  25.2300182  27.4054352  29.5634529  25.7244260  27.4289189
  29.0178447  24.3132150  27.3771919  41.8522772  17.6457455  20.4836646
  42.6283162  18.1353907  20.7561263  41.1270906  18.0715509  20.9408516
  44.2895331  18.3585074  21.5410587  44.8839821  18.1180810  20.8303895
  44.3621914  17.6392205  22.1684123  26.5092486  32.2018685  21.8553752
  26.3746954  31.4419086  21.2891750  26.0924549  32.9259585  21.3882541
  46.5966403  21.6651275  20.3154008  46.0365961  21.7344464  21.0885570
  45.9909907  21.4892260  19.5953505  29.6661612  33.0988002  22.0672195
  29.5493996  34.0433435  21.9650885  28.8454058  32.7961564  22.4557994
  23.9976554  19.5638315  28.1046549  24.6435418  19.0537269  28.5933774
  23.7893705  20.3006997  28.6789974  36.5229946  26.6319163  33.6038689
  37.3921106  26.8059815  33.2425324  36.0436698  27.4513580  33.4814419
  30.6916126  33.7516264  25.2828123  31.5943373  33.7839874  25.5994618
  30.4653496  32.8216715  25.2974459  32.4469728  32.5047251  21.9438202
  31.4965359  32.5049112  21.8302574  32.7502214  31.7579985  21.4274236
  28.3374045  16.7105933  32.2021563  29.2005506  16.3542737  32.4124888
  27.7639456  16.3719827  32.8896967  48.1822422  38.3407789  23.0083964
  48.8200832  38.2214536  22.3047304  48.0643265  39.2888633  23.0671916
  44.9912128  38.2935217  22.9445489  44.6530640  38.1776282  22.0566024
  45.8601896  37.8926382  22.9246495  40.8498944  40.1470693  18.9342380
  40.2863809  40.0560630  18.1658667  40.7351339  39.3270598  19.4144872
  45.4731911  39.4470069  28.9031694  45.4620552  39.0522867  28.0312198
  45.6352551  38.7136141  29.4965466  38.3963376  41.6421885  21.7726600
  39.1884668  41.3012710  21.3572899  38.6360026  41.7516860  22.6928753
  46.4298503  43.8141661  14.2456845  45.7786482  44.3995742  13.8590858
  47.2242865  44.3447856  14.3051882  40.3554130  40.9030798  14.6443979
  41.1285006  40.3559785  14.5056855  40.7079529  41.7675048  14.8558440
  42.1939172  42.2307181  27.8510878  41.9029038  43.1352811  27.7357545
  42.8296157  42.2723708  28.5654948  43.1195379  39.6084029  24.4412238
  43.7158951  39.3840051  23.7269201  43.1770351  38.8668775  25.0437686
  42.6920407  37.0623464  12.2762429  42.9445928  36.5404986  11.5145892
  41.7544967  36.8989610  12.3789112  47.7363690  36.0659243  20.0837172
  48.5226780  35.6478666  19.7327589  48.0002395  36.9705335  20.2518820
  47.9073768  41.5032093  14.7825829  47.2719601  41.5766720  15.4946734
  47.5771174  42.0925692  14.1044908  53.1372117  36.0034476  20.9870151
  53.8697289  35.4333693  21.2207980  52.3811473  35.6156076  21.4276656
  42.4116696  38.9651570  14.4786804  42.2952954  38.2896474  15.1467888
  42.5218956  38.4783944  13.6618957  44.7548237  38.4261717  18.1833493
  44.3906444  37.8992338  18.8946415  45.6115353  38.0360187  18.0099978
  50.6597538  29.7156050  25.4464759  50.3280863  30.5851461  25.2225974
  50.0643151  29.3992334  26.1258790  44.3953724  33.4551617  13.1794842
  44.5628126  34.3231854  13.5465313  44.2050893  33.6178899  12.2556131
  47.1529057  41.9168596  24.8460672  46.8529780  42.8193635  24.7376479
  46.8080117  41.6500779  25.6981825  40.6041539  38.3682393  20.8797376
  39.6792035  38.2358607  21.0875068  40.8525952  39.1476612  21.3767319
  50.5526201  34.4351136  22.5258109  49.6443078  34.3666545  22.2316870
  50.5013797  34.9123081  23.3539935  44.3742945  35.9109275  14.1641508
  44.2542570  36.3566325  15.0026989  43.6795533  36.2594592  13.6055047
  37.9650350  38.0115666  21.7141165  38.0942731  38.2650145  22.6280577
  37.2847801  38.6043374  21.3945820  42.1349837  48.6812916  17.8131640
  42.0573867  49.6320741  17.8920120  41.5311481  48.3358789  18.4706566
  44.6267067  35.8540782  30.4693007  43.8500401  36.4134702  30.4595871
  45.2657630  36.3397565  30.9907877  52.4187848  32.6367575  24.3035983
  51.7762228  32.9300108  23.6575778  51.9142776  32.5220495  25.1089180
  50.0728011  36.3830748  14.9921842  50.9845867  36.6158135  14.8169540
  49.5637658  36.9667792  14.4296921  42.8813439  38.6626235  30.0310974
  43.6228124  39.2011279  29.7545797  42.1750425  39.2892524  30.1882525
  48.3568779  40.8055376  28.6283135  48.7652135  40.3637786  27.8837767
  47.6346040  40.2308003  28.8817328  44.7099849  35.7427982  26.0016692
  45.5561044  36.1667396  26.1451341  44.6498487  35.0861607  26.6955255
  48.6797593  41.3656566  22.3835424  48.0506456  41.5302280  21.6811492
  48.2923256  41.7798176  23.1546388  52.5586825  42.3011004  19.7379788
  51.8737864  42.6809905  19.1876821  52.6430675  42.9106331  20.4711735
  47.8599294  33.4032351  27.6597866  47.6160226  34.1574411  27.1232141
  48.1359225  33.7817698  28.4945113  49.8137757  39.9470963  26.3375131
  50.0254652  40.5902723  25.6609512  49.7667505  39.1133280  25.8697061
  47.4163986  32.5588784  23.2411703  46.5548465  32.8570037  23.5328441
  47.4426421  32.7759183  22.3092736  44.2325555  41.1030974  19.6485509
  44.6963901  41.3818677  18.8590131  43.9682353  40.2014419  19.4658600
  41.1249636  40.6502456  22.5865272  41.6950993  41.0789724  21.9482757
  41.7157748  40.3685041  23.2849458  43.1694441  37.2254127  16.4575074
  43.8718485  37.6775170  16.9249000  42.8375070  36.5837946  17.0854967
  41.6174803  35.8165883  30.8326284  40.9873464  36.4982164  31.0661680
  41.5110891  35.7048965  29.8879422  36.9119775  35.4837679  21.7592208
  36.1218829  35.7395208  21.2832318  37.4031023  36.2986017  21.8644248
  50.9283585  42.8242919  24.5097489  51.7501029  42.4223106  24.2280170
  50.9245988  42.7211153  25.4613604  38.8634521  35.8482259  18.7175684
  38.0665684  35.9600953  19.2359180  38.6360113  36.1868911  17.8516575
  44.6940188  42.3726962  26.6658199  44.7584621  42.8347369  27.5016371
  43.9851112  41.7424327  26.7940509  35.1957478  35.7368170  24.1907198
  35.4465517  36.6215180  24.4564774  35.7317027  35.5572771  23.4182290
  59.0189578  39.1681667  20.8582460  58.2653286  38.5989065  20.7026464
  59.1537119  39.1344332  21.8053095  44.4088206  44.0395069  16.5337179
  44.2733881  44.8846605  16.9622027  44.9498019  44.2414347  15.7703113
  40.8955546  30.1186649  33.1951535  40.5022491  29.5652848  33.8699179
  41.7121686  30.4297228  33.5858052  37.8617603  41.5570507  17.1065104
  38.3742124  42.3513758  17.2570669  38.5140316  40.8596798  17.0398706
  39.6712488  44.6736264  19.1887858  39.8479116  45.5954228  19.0008841
  40.4669322  44.3594683  19.6182237  43.8123507  31.5344528  30.7871791
  44.5533220  32.1351681  30.7076254  44.0441429  30.7922166  30.2289834
  38.9564845  36.7200896  29.0650021  38.8418360  35.8186153  29.3657120
  38.1009362  36.9664592  28.7134837  46.0356682  44.6618636  30.6637521
  45.5920537  43.8755014  30.3458426  46.6973896  44.8497786  29.9981412
  40.7943804  46.1914437  25.1898200  41.3451229  46.0631501  24.4175194
  39.9555279  46.4909326  24.8393093  48.1337920  44.9421436  28.6918923
  48.1156396  45.7630317  28.1999192  49.0557841  44.8175511  28.9169064
  44.5910975  42.4565565  29.5342431  45.1239311  41.6953853  29.3041739
  44.0625056  42.1639217  30.2766586  47.7580670  27.5625631  25.0636073
  47.4144939  28.4527273  24.9875183  48.1259632  27.3727289  24.2005658
  35.8266520  39.8859162  17.8824675  36.6641742  40.2956170  17.6658383
  36.0044788  38.9458604  17.8524869  47.7230952  37.5534242  13.5708508
  47.2077576  38.3238847  13.8096895  47.4508261  36.8799379  14.1941569
  45.3078063  32.3983943  18.6293746  44.4519660  32.0090794  18.4499385
  45.7205015  32.4775904  17.7693532  46.8377210  29.9330286  23.0285306
  46.3342006  29.8960422  22.2153111  47.1307817  30.8423029  23.0881963
  43.0820096  30.0169016  22.0351488  43.9473093  29.8211825  21.6757377
  43.1497605  29.7879368  22.9620845  52.6965226  40.3066597  15.5061681
  51.9194669  39.9677756  15.0616843  53.3756707  40.3119220  14.8316646
  47.5117255  35.4261334  15.3968289  47.2067391  35.7407484  16.2478432
  48.4647698  35.5042754  15.4395622  45.9563687  41.5851558  17.0461243
  45.4285049  40.8504317  16.7334481  45.4551190  42.3626234  16.8001211
  50.9356533  39.7800578  22.1628289  50.2780208  40.4699840  22.2508418
  51.7396933  40.1697010  22.5062276  40.6882415  32.2471224  19.4067855
  41.2626167  32.0246406  18.6741048  41.2753397  32.3159919  20.1596456
  49.7461992  38.1344951  20.2132231  50.2593874  38.7674943  20.7153941
  50.3963216  37.5346146  19.8475591  41.0152002  34.2775685  13.4263740
  40.1789314  34.6150372  13.7473015  40.8756772  34.1424665  12.4890877
  42.9905083  29.1212473  18.1342924  42.3369495  28.8061490  17.5099539
  42.9485557  28.4988213  18.8602747  44.1016288  39.4031768  10.0496216
  43.1943349  39.1721021  10.2487365  44.5987320  38.6069387  10.2370198
  47.0084366  48.1129275  12.9692902  46.3346065  48.4160972  13.5777860
  47.3950188  48.9158356  12.6198359  46.2242823  35.6094406  22.4590572
  45.3065384  35.8309353  22.3012260  46.6402967  35.6840717  21.6002279
  47.0077871  37.0085822  17.5893252  47.7549690  37.5207219  17.2800374
  47.2769460  36.6869875  18.4497645  45.2804521  39.5044363  14.5720206
  44.3715740  39.2203396  14.6692676  45.3099605  39.9243441  13.7123513
  50.5123788  43.1150952  18.3411374  50.0586115  42.2741862  18.3976564
  49.8817755  43.7512351  18.6786154  49.4556708  34.0442938  19.5712041
  48.7179465  33.5320325  19.9022284  49.7083481  33.6043320  18.7595318
  48.9556728  44.9527449  19.2761192  49.2479702  45.5132506  18.5573558
  49.4655348  45.2456010  20.0314351  49.5568335  26.8219190  20.1653810
  49.8627212  25.9616554  19.8779726  50.2820940  27.4136811  19.9652804
  35.8492691  37.2249877  18.5535408  35.6517091  36.6319238  17.8286475
  35.2939355  36.9202087  19.2711347  43.8289415  37.1172983  20.6730002
  43.8838025  36.1646820  20.5972478  43.0180617  37.2732423  21.1571300
  44.9780609  41.0453107  11.9108285  44.5400039  40.3288965  11.4513922
  45.7191050  41.2729221  11.3493376  41.7681775  35.7350043  18.4320380
  40.9549640  36.0344214  18.8385573  42.2640769  35.3405732  19.1494863
  43.9190353  45.7307800  20.3654645  43.8766532  45.9568646  19.4363177
  44.8353052  45.4971175  20.5140446  47.3655987  36.1991868  27.2635274
  47.7205374  36.4263341  28.1229740  48.0128118  36.5310244  26.6412530
  53.0953724  39.3210304  17.9684603  52.9571622  39.5111900  17.0405793
  52.7389942  40.0829686  18.4252654  41.2595850  33.3068399  24.0481615
  41.8995229  33.1657158  23.3504579  40.4273380  33.0202912  23.6720217
  53.1223103  41.3886831  22.9795875  53.5559610  41.2962120  23.8278929
  53.8354684  41.3644331  22.3415891  42.0356154  42.6070829  20.1616608
  42.8296752  42.1121149  19.9599183  41.3247846  42.0788692  19.7984313
  46.8550998  44.9888925  24.5128975  46.9088020  45.5579861  25.2806691
  45.9865779  45.1590810  24.1483013  38.3438917  36.7513911  16.2376361
  37.4136505  36.6898366  16.4546323  38.4396389  36.2289864  15.4413002
  38.2624466  33.2768724  18.8254602  38.5231283  34.1914057  18.7163763
  39.0841638  32.8093166  18.9751215  39.7349391  34.6906481  25.9953427
  40.4072445  34.4823843  25.3466076  38.9079178  34.4928567  25.5558659
  53.9838653  41.4310531  25.5128760  54.1774543  42.3356342  25.7588035
  53.8839271  40.9717950  26.3467345  45.6374963  31.3168422  28.0119088
  44.9902878  32.0158371  27.9183564  46.4075979  31.7504566  28.3795336
  49.0453761  41.5817274  31.0869641  48.8939268  41.3527826  30.1699725
  49.0358441  42.5387875  31.1000986  45.8139098  39.1549187  26.0715907
  46.7431158  39.3060346  25.8984875  45.3930128  39.2433208  25.2164554
  44.6127430  43.1799851  23.8414445  44.4738515  42.8118636  24.7140383
  43.8242026  43.6947491  23.6698403  45.2075582  48.2808948  15.1839981
  45.3827337  47.8096991  15.9985604  44.5208370  48.9074714  15.4121242
  46.1632645  42.5581454  21.2303283  45.8282477  42.5182224  22.1260933
  45.6636590  41.8926170  20.7573693  40.1376889  37.9649084  26.7555864
  39.9996687  37.2329323  27.3567403  41.0481812  37.8757984  26.4740052
  49.0991836  39.9037488  11.5040342  48.4821007  39.1784316  11.4073395
  48.6308325  40.6646848  11.1607417  42.7659189  37.6769043  26.2439544
  43.4758808  37.0362235  26.2026162  42.7228498  37.9281938  27.1665724
  50.7545968  44.6136397  29.1646123  50.6958514  43.9295617  28.4976706
  51.1565486  45.3555387  28.7126749  41.4788123  34.6634261  28.0635183
  40.9425480  34.2125000  28.7156779  40.8904832  34.7980170  27.3205647
  39.7736667  51.4298310  21.9579842  40.0133265  52.0616835  22.6358860
  38.9305863  51.0786350  22.2445201  50.7563375  42.5775980  27.3960102
  49.8690154  42.2401902  27.5186501  51.3261926  41.8459012  27.6328868
  32.4092522  38.9100072  20.7203154  33.0963562  38.5961802  20.1324169
  32.2540651  39.8141437  20.4470405  37.2127245  33.7990269  25.1488177
  37.1285433  33.1915938  24.4138587  36.3909951  34.2899287  25.1497674
  44.2864529  47.2377433  24.3621346  44.2134700  48.0432404  24.8740650
  43.8441922  47.4369399  23.5369367  44.0754308  46.4749203  17.8724167
  43.2921830  47.0170883  17.9662392  44.7747053  46.9923183  18.2718408
  47.3850958  32.2843832  20.5158373  47.8819658  31.5313795  20.1959443
  46.6137940  32.3208149  19.9501582  55.2380716  37.9884198  22.1576664
  55.2270592  38.8708913  21.7870597  54.3698095  37.6355749  21.9631201
  46.7463212  47.1364267  26.5179504  47.4591184  47.7711732  26.4455406
  46.2553241  47.2328133  25.7019506  48.4680739  41.0415520  18.0896796
  47.5337018  41.1616982  17.9201500  48.6457408  40.1387986  17.8256806
  43.9685927  34.4261215  20.2430057  43.5983715  33.8732256  20.9310963
  44.4645020  33.8219349  19.6905057  51.8553290  36.8832839  18.6246830
  52.3213743  37.7160830  18.5507133  52.3060791  36.4177820  19.3292089
  41.7975126  44.8858710  27.3385075  42.4984585  45.5195193  27.4914469
  41.3270241  45.2273442  26.5780714  49.9229522  43.2276660  15.6232982
  50.1989365  43.1133255  16.5326856  49.0534020  42.8294145  15.5845155
  49.8269953  29.2513426  22.6637731  48.9133033  29.4817653  22.8319938
  50.2563055  29.3351870  23.5151764  49.5976412  37.4403318  25.1637625
  48.9447862  37.6879225  24.5090078  49.9756792  36.6267456  24.8300103
  46.5583586  47.4763011  19.2665796  46.7405980  46.6584667  19.7293548
  47.3816572  47.6930703  18.8290686  46.8925751  46.4031196  16.5280844
  47.4213518  45.8923651  15.9151006  47.1553971  46.0873726  17.3926377
  45.6463985  38.1823129  31.6503663  44.9704622  38.0817258  32.3206038
  46.4691619  38.0262343  32.1139660  37.3942844  44.4195065  24.2716178
  37.9796281  43.6738753  24.4044082  37.1967682  44.7299022  25.1552842
  40.2481499  47.4546313  19.2878620  39.5791874  47.9392440  18.8042660
  40.1094369  47.7015533  20.2021999  31.9860499  36.9900666  22.9920621
  32.0244598  36.4564256  23.7857739  31.4800791  36.4635871  22.3731598
  44.3886768  49.4890056  25.8861279  44.9405076  49.6521678  26.6510364
  44.7292961  50.0794494  25.2141303  39.3651261  31.8365206  26.4883163
  39.4292587  32.6980037  26.0760561  39.3018381  31.2239208  25.7555522
  38.8403533  33.9088339  30.1356197  39.4675572  33.5265416  30.7493722
  37.9831452  33.6902541  30.5011890  49.2397642  44.3151314  31.7409933
  49.7837546  44.9281272  31.2464888  48.6584487  44.8730892  32.2576946
  35.6169076  35.7164768  16.0674552  35.9122517  34.8075446  16.0141606
  34.7157112  35.6952507  15.7455555  47.5255155  47.4372032  22.8724961
  47.4006294  46.6361772  22.3635906  48.1834246  47.9318225  22.3838931
  39.1463323  33.7920764  22.0502101  38.4249909  34.4056732  21.9109574
  39.9356579  34.3278529  21.9718747  49.5890063  45.2381052  24.5004511
  48.6420399  45.1186403  24.4282837  49.9372836  44.3503550  24.5830772
  41.9489637  31.1275191  28.3242753  42.4724038  31.3737487  29.0869062
  41.7301970  31.9595226  27.9045890  37.3456918  33.3978865  16.1913877
  37.0169624  32.5176244  16.0088983  37.6996288  33.3426534  17.0790267
  46.5936497  45.0333768  20.7008863  46.4461459  44.1050476  20.8816433
  47.4189990  45.0553859  20.2165938  40.4598741  33.6851835  16.5589355
  40.7994813  34.2137756  15.8367963  40.9070861  34.0232241  17.3347922
  50.1970618  45.8562327  21.7873736  51.1217166  45.6505188  21.6498187
  50.0285922  45.6078728  22.6963077  43.1542182  32.0688886  26.0092423
  42.8139002  31.2696699  26.4113103  42.4481188  32.3690597  25.4369256
  43.8058654  29.1538198  24.4619746  44.6284723  28.6798677  24.3398637
  44.0496717  29.9328682  24.9618433  42.4466888  32.1826457  14.7582648
  43.1675251  32.5607710  14.2546365  41.8232192  32.9015334  14.8617626
  46.5898011  32.8871606  15.6940980  46.8061625  33.7696244  15.3929808
  46.1092078  32.4957819  14.9646622  41.3297232  35.8457319  22.2711725
  41.1841813  36.1597622  23.1636006  40.8522436  36.4642219  21.7182623
  43.1893615  32.8359867  22.3192614  43.1755184  31.9400960  21.9824912
  43.9066043  32.8430531  22.9530900  45.0419746  33.2697207  24.3645742
  44.7837524  34.1914278  24.3630072  44.5104786  32.8727642  25.0546206
  49.9865935  46.3747994  17.1435827  50.1602812  45.8094417  16.3909680
  50.4794826  47.1748889  16.9615317  35.8042894  38.3862663  25.2099386
  35.2596363  39.1622471  25.3419660  36.6822244  38.7333468  25.0518507
  42.5930511  31.7174247  17.5880185  42.7146422  30.7890893  17.7871072
  42.3032553  31.7312933  16.6758500  45.4621701  29.4029158  20.7246904
  45.4843398  29.4668491  19.7698884  45.8789760  28.5633666  20.9187411
  55.8405326  39.1384417  18.7626127  56.2836472  38.3891742  18.3645250
  54.9631836  39.1294554  18.3799859  50.9741107  45.6914759  14.2432725
  51.6692012  46.3121451  14.4620040  51.3164257  44.8410110  14.5185103
  36.5908916  37.5132560  28.1029543  35.8490652  37.6615195  28.6894173
  36.2701661  37.7740825  27.2396292  52.8732530  43.1414464  15.7720056
  53.3983854  43.4801737  15.0469376  52.7854883  42.2061480  15.5883191
  44.5352579  47.0548538  27.9009933  44.8439705  46.8097685  28.7732632
  45.3328061  47.2595176  27.4128803  44.5573191  49.2086448  20.1315309
  44.1178181  48.7162826  20.8248166  45.3081308  48.6659415  19.8907385
  37.0365530  45.3997988  20.1339937  37.8623550  45.1001760  19.7538581
  36.6859582  44.6305611  20.5829726  42.0047063  44.7524457  22.2037611
  41.3827072  44.0895162  21.9039839  42.6751930  44.7785588  21.5211259
  35.2374135  43.3184315  21.0928871  34.4006043  42.8906489  20.9112872
  35.2097780  43.5116758  22.0299662  42.0771591  33.2306245  31.7970117
  42.1259746  34.1068367  31.4147887  42.6194105  32.6883638  31.2241760
  52.5626436  43.7747368  31.0771254  51.7721980  43.7571507  30.5375754
  52.3259791  44.3135662  31.8320291  52.6824311  40.6239834  28.3903983
  52.7322316  40.4589842  29.3319506  52.5738235  39.7567093  28.0001864
  41.5660570  43.3028380  15.6796072  41.7148690  43.9863844  15.0262744
  42.3727014  43.2833470  16.1945527  49.9728074  36.6070762  29.7063289
  50.8737937  36.4677227  29.4147287  50.0476048  36.7725217  30.6461467
  44.3070879  33.9837617  28.5516476  43.4374188  34.2771183  28.2799064
  44.5430359  34.5678062  29.2723739  54.1842508  43.0436776  28.6346004
  53.8927316  43.4066756  29.4709465  53.5714639  42.3303784  28.4559336
  55.3838190  40.6089656  21.1548575  56.2185082  41.0479460  21.3186135
  55.5197319  40.1328309  20.3356820  52.4329696  38.1669390  27.1026062
  52.9083818  38.3597037  26.2944914  51.5095262  38.2228576  26.8569446
  39.3213203  39.3293558  16.6857141  39.0759245  38.4255888  16.8837351
  39.4909118  39.3310708  15.7436619  47.0109913  30.2017234  26.0681896
  47.5291857  30.9378261  25.7428385  46.6565046  30.5081227  26.9028655
  38.5908851  35.0621915  14.1843302  37.8978096  35.1366270  13.5283338
  38.3460602  34.2982259  14.7064819  47.2622507  26.6217516  21.5882793
  47.5424261  25.9540706  22.2143219  48.0473114  26.8146612  21.0757457
  45.0655976  45.7976510  13.1507819  44.4929943  46.4166698  12.6978291
  45.6388769  46.3475872  13.6847741  51.1331365  35.0435150  25.3354368
  52.0848788  35.1433248  25.3566592  50.9634816  34.2513419  25.8452452
  49.1545745  32.1290734  25.5213769  48.5595677  32.4095746  24.8260257
  48.8695442  32.6184635  26.2930510  48.2853235  46.0813661  14.2816401
  49.2183909  46.0159222  14.4849277  48.1976448  46.9169927  13.8230934
  50.9141252  45.3979531  11.2420349  50.8354884  45.0639394  12.1356107
  51.7350919  45.8901299  11.2411821  53.6119443  38.2641270  24.4496668
  53.5795763  37.3257271  24.6356351  54.2220067  38.3425307  23.7162492
  45.4502774  37.1337323  10.4923872  46.3961879  37.0043531  10.5612290
  45.0717019  36.3951985  10.9693300  53.7613932  35.0552314  24.4954951
  53.2452980  34.2710770  24.3084880  54.6453880  34.7271030  24.6601470
  51.4224659  28.7993329  20.4550763  51.2249480  28.4908417  21.3394095
  52.0324364  29.5254968  20.5848693  59.4295993  39.3257277  23.5902704
  60.1599382  39.0642565  24.1510408  58.8202939  38.5885999  23.6304772
  57.5111290  37.4665140  24.1877156  56.7844454  37.3321105  23.5793647
  57.0958577  37.7741968  24.9933874  45.3341467  41.1855069  31.9524529
  46.2544476  41.3633668  32.1464575  45.2991050  40.2411115  31.8004228
  43.6345691  35.0587300  10.4278757  42.7277147  34.7620412  10.5041470
  43.9121672  34.7617118   9.5613043  34.5523632  36.3793663  20.8777803
  34.2326416  35.5258971  20.5852177  34.0057060  36.5942241  21.6335771
  38.3303539  39.0956104  24.5947310  38.5489549  40.0273212  24.6135344
  38.7429313  38.7364078  25.3802114  45.2507757  29.6024189  16.5822998
  44.4408485  29.2571274  16.9578244  45.9392174  29.2931733  17.1710610
  47.1798305  28.6802236  18.2047295  47.7329344  29.0997689  18.8637318
  47.4168392  27.7537984  18.2470251  43.2031404  34.6689310  33.9850059
  43.1028131  35.6183667  33.9162150  42.9852947  34.3407549  33.1126129
  34.4211892  39.9996574  22.8470925  33.7275363  39.5850527  22.3340879
  35.1684883  40.0417111  22.2504344  50.5577112  30.7902761  17.7125959
  49.9775781  31.4487565  17.3304011  50.2913045  29.9680106  17.3013376
  49.0080679  30.1907819  19.9147279  49.5080457  30.3024353  19.1061598
  49.6516287  29.8868872  20.5548088  43.0662675  38.0986449  32.8015120
  42.5829756  38.8986809  33.0079009  43.1523614  38.1094393  31.8482564
  36.3348634  39.9314828  20.7236940  36.3119322  40.0302515  19.7718823
  36.6449271  40.7779979  21.0454106  38.9936012  41.9890983  24.8383554
  39.9479266  41.9574926  24.7713486  38.7948536  41.5281607  25.6533780
  39.5835394  40.5592099  27.4054352  40.4028283  41.0536178  27.4289189
  39.8572202  39.6424067  27.3771919  49.3401990  32.9502852  16.7682307
  48.4527845  33.2352502  16.5502502  49.7555979  32.7896615  15.9209584
  52.6916526  32.9749373  20.4836646  53.4676917  33.4645825  20.7561263
  51.9664661  33.4007427  20.9408516  55.1289085  33.6876992  21.5410587
  55.7233576  33.4472728  20.8303895  55.2015669  32.9684122  22.1684123
  37.3486241  47.5310603  21.8553752  37.2140709  46.7711004  21.2891750
  36.9318303  48.2551503  21.3882541  48.4845204  42.7147526  10.8630327
  49.1881054  42.9197529  11.4787983  47.7607853  43.2824288  11.1279411
  49.3143014  38.4657388  16.9832597  49.2578215  38.9225939  16.1440230
  49.8671357  37.7048072  16.8055440  53.1247820  34.2547119  17.8082717
  52.8684754  33.8543755  18.6390925  52.5000688  34.9690913  17.6832856
  57.4360158  36.9943193  20.3154008  56.8759716  37.0636382  21.0885570
  56.8303661  36.8184177  19.5953505  40.5055367  48.4279920  22.0672195
  40.3887751  49.3725352  21.9650885  39.6847813  48.1253481  22.4557994
  50.3931901  43.1530055  12.9128787  51.2277505  42.7211254  12.7306262
  50.2316244  42.9812069  13.8405682  50.0477793  39.6562169  14.2785127
  49.9926597  39.4906440  13.3373571  49.4223849  40.3638202  14.4347316
  34.8370308  34.8930233  28.1046549  35.4829172  34.3829187  28.5933774
  34.6287460  35.6298915  28.6789974  47.3623701  41.9611081  33.6038689
  48.2314860  42.1351733  33.2425324  46.8830452  42.7805497  33.4814419
  43.3573919  29.1570278  13.8570445  43.3452589  30.1012118  14.0138716
  44.2497341  28.9740423  13.5629906  41.5309881  49.0808182  25.2828123
  42.4337128  49.1131792  25.5994618  41.3047251  48.1508633  25.2974459
  43.2863483  47.8339168  21.9438202  42.3359114  47.8341030  21.8302574
  43.5895969  47.0871903  21.4274236  47.1726038  25.7513054  18.1116382
  46.4058434  25.1971541  18.2573064  47.5836743  25.8234923  18.9730533
  39.1767799  32.0397850  32.2021563  40.0399261  31.6834655  32.4124888
  38.6033210  31.7011745  32.8896967  59.0216176  53.6699707  23.0083964
  59.6594586  53.5506454  22.3047304  58.9037019  54.6180551  23.0671916
  55.8305883  53.6227135  22.9445489  55.4924394  53.5068199  22.0566024
  56.6995651  53.2218300  22.9246495  51.6892698  55.4762611  18.9342380
  51.1257563  55.3852548  18.1658667  51.5745093  54.6562516  19.4144872
  56.3125666  54.7761986  28.9031694  56.3014306  54.3814785  28.0312198
  56.4746305  54.0428059  29.4965466  49.2357130  56.9713803  21.7726600
  50.0278422  56.6304627  21.3572899  49.4753780  57.0808778  22.6928753
  57.2692257  59.1433579  14.2456845  56.6180237  59.7287659  13.8590858
  58.0636620  59.6739774  14.3051882  51.1947884  56.2322716  14.6443979
  51.9678760  55.6851703  14.5056855  51.5473283  57.0966965  14.8558440
  53.0332927  57.5599098  27.8510878  52.7422793  58.4644729  27.7357545
  53.6689911  57.6015626  28.5654948  53.9589134  54.9375947  24.4412238
  54.5552706  54.7131969  23.7269201  54.0164105  54.1960692  25.0437686
  53.5314162  52.3915382  12.2762429  53.7839683  51.8696903  11.5145892
  52.5938721  52.2281528  12.3789112  58.5757445  51.3951160  20.0837172
  59.3620534  50.9770584  19.7327589  58.8396149  52.2997253  20.2518820
  58.7467522  56.8324011  14.7825829  58.1113355  56.9058637  15.4946734
  58.4164929  57.4217610  14.1044908  63.9765872  51.3326394  20.9870151
  64.7091044  50.7625610  21.2207980  63.2205228  50.9447994  21.4276656
  53.2510451  54.2943488  14.4786804  53.1346709  53.6188391  15.1467888
  53.3612711  53.8075862  13.6618957  55.5941992  53.7553635  18.1833493
  55.2300199  53.2284256  18.8946415  56.4509108  53.3652104  18.0099978
  61.4991292  45.0447968  25.4464759  61.1674617  45.9143379  25.2225974
  60.9036906  44.7284252  26.1258790  55.2347479  48.7843535  13.1794842
  55.4021881  49.6523771  13.5465313  55.0444648  48.9470817  12.2556131
  57.9922812  57.2460514  24.8460672  57.6923535  58.1485553  24.7376479
  57.6473871  56.9792697  25.6981825  51.4435293  53.6974311  20.8797376
  50.5185790  53.5650525  21.0875068  51.6919706  54.4768530  21.3767319
  61.3919956  49.7643054  22.5258109  60.4836833  49.6958462  22.2316870
  61.3407551  50.2414999  23.3539935  55.2136700  51.2401192  14.1641508
  55.0936325  51.6858243  15.0026989  54.5189288  51.5886510  13.6055047
  48.8044104  53.3407584  21.7141165  48.9336485  53.5942063  22.6280577
  48.1241556  53.9335292  21.3945820  52.9743592  64.0104834  17.8131640
  52.8967621  64.9612659  17.8920120  52.3705235  63.6650707  18.4706566
  55.4660821  51.1832700  30.4693007  54.6894155  51.7426620  30.4595871
  56.1051384  51.6689482  30.9907877  63.2581602  47.9659492  24.3035983
  62.6155982  48.2592025  23.6575778  62.7536531  47.8512413  25.1089180
  60.9121766  51.7122666  14.9921842  61.8239622  51.9450052  14.8169540
  60.4031413  52.2959710  14.4296921  53.7207194  53.9918153  30.0310974
  54.4621878  54.5303197  29.7545797  53.0144179  54.6184442  30.1882525
  59.1962533  56.1347293  28.6283135  59.6045889  55.6929704  27.8837767
  58.4739795  55.5599921  28.8817328  55.5493603  51.0719900  26.0016692
  56.3954799  51.4959314  26.1451341  55.4892241  50.4153524  26.6955255
  59.5191348  56.6948484  22.3835424  58.8900210  56.8594198  21.6811492
  59.1317010  57.1090094  23.1546388  63.3980580  57.6302922  19.7379788
  62.7131618  58.0101823  19.1876821  63.4824429  58.2398248  20.4711735
  58.6993049  48.7324268  27.6597866  58.4553981  49.4866329  27.1232141
  58.9752979  49.1109616  28.4945113  60.6531511  55.2762881  26.3375131
  60.8648407  55.9194641  25.6609512  60.6061260  54.4425197  25.8697061
  58.2557740  47.8880701  23.2411703  57.3942219  48.1861955  23.5328441
  58.2820175  48.1051100  22.3092736  55.0719310  56.4322892  19.6485509
  55.5357655  56.7110595  18.8590131  54.8076108  55.5306337  19.4658600
  51.9643391  55.9794374  22.5865272  52.5344748  56.4081642  21.9482757
  52.5551503  55.6976958  23.2849458  54.0088196  52.5546044  16.4575074
  54.7112239  53.0067088  16.9249000  53.6768824  51.9129863  17.0854967
  52.4568557  51.1457801  30.8326284  51.8267218  51.8274082  31.0661680
  52.3504645  51.0340883  29.8879422  47.7513530  50.8129597  21.7592208
  46.9612584  51.0687126  21.2832318  48.2424777  51.6277935  21.8644248
  61.7677339  58.1534836  24.5097489  62.5894783  57.7515024  24.2280170
  61.7639742  58.0503070  25.4613604  49.7028275  51.1774176  18.7175684
  48.9059439  51.2892871  19.2359180  49.4753867  51.5160829  17.8516575
  55.5333943  57.7018880  26.6658199  55.5978375  58.1639287  27.5016371
  54.8244867  57.0716244  26.7940509  46.0351233  51.0660088  24.1907198
  46.2859271  51.9507097  24.4564774  46.5710781  50.8864689  23.4182290
  69.8583332  54.4973585  20.8582460  69.1047041  53.9280983  20.7026464
  69.9930874  54.4636249  21.8053095  55.2481961  59.3686987  16.5337179
  55.1127635  60.2138523  16.9622027  55.7891773  59.5706265  15.7703113
  51.7349300  45.4478567  33.1951535  51.3416246  44.8944765  33.8699179
  52.5515440  45.7589145  33.5858052  48.7011358  56.8862425  17.1065104
  49.2135878  57.6805675  17.2570669  49.3534071  56.1888716  17.0398706
  50.5106243  60.0028181  19.1887858  50.6872871  60.9246146  19.0008841
  51.3063076  59.6886601  19.6182237  54.6517261  46.8636446  30.7871791
  55.3926975  47.4643599  30.7076254  54.8835184  46.1214084  30.2289834
  49.7958599  52.0492813  29.0650021  49.6812114  51.1478070  29.3657120
  48.9403117  52.2956510  28.7134837  56.8750437  59.9910554  30.6637521
  56.4314291  59.2046932  30.3458426  57.5367650  60.1789704  29.9981412
  51.6337558  61.5206355  25.1898200  52.1844983  61.3923418  24.4175194
  50.7949034  61.8201244  24.8393093  58.9731675  60.2713353  28.6918923
  58.9550150  61.0922235  28.1999192  59.8951595  60.1467429  28.9169064
  55.4304729  57.7857483  29.5342431  55.9633066  57.0245771  29.3041739
  54.9018810  57.4931135  30.2766586  58.5974424  42.8917549  25.0636073
  58.2538693  43.7819191  24.9875183  58.9653387  42.7019207  24.2005658
  46.6660275  55.2151079  17.8824675  47.5035497  55.6248088  17.6658383
  46.8438542  54.2750522  17.8524869  58.5624707  52.8826160  13.5708508
  58.0471330  53.6530765  13.8096895  58.2902015  52.2091296  14.1941569
  56.1471818  47.7275861  18.6293746  55.2913414  47.3382711  18.4499385
  56.5598770  47.8067822  17.7693532  57.6770964  45.2622204  23.0285306
  57.1735760  45.2252339  22.2153111  57.9701571  46.1714947  23.0881963
  53.9213850  45.3460934  22.0351488  54.7866847  45.1503742  21.6757377
  53.9891359  45.1171286  22.9620845  63.5358981  55.6358515  15.5061681
  62.7588424  55.2969674  15.0616843  64.2150462  55.6411138  14.8316646
  58.3511010  50.7553252  15.3968289  58.0461146  51.0699401  16.2478432
  59.3041452  50.8334672  15.4395622  56.7957442  56.9143475  17.0461243
  56.2678803  56.1796235  16.7334481  56.2944945  57.6918152  16.8001211
  61.7750288  55.1092496  22.1628289  61.1173962  55.7991757  22.2508418
  62.5790687  55.4988928  22.5062276  51.5276169  47.5763142  19.4067855
  52.1019921  47.3538323  18.6741048  52.1147152  47.6451836  20.1596456
  60.5855747  53.4636869  20.2132231  61.0987628  54.0966860  20.7153941
  61.2356971  52.8638064  19.8475591  51.8545757  49.6067603  13.4263740
  51.0183069  49.9442289  13.7473015  51.7150526  49.4716583  12.4890877
  53.8298837  44.4504391  18.1342924  53.1763249  44.1353408  17.5099539
  53.7879311  43.8280131  18.8602747  54.9410042  54.7323686  10.0496216
  54.0337104  54.5012939  10.2487365  55.4381074  53.9361305  10.2370198
  57.8478121  63.4421193  12.9692902  57.1739820  63.7452890  13.5777860
  58.2343943  64.2450273  12.6198359  57.0636578  50.9386324  22.4590572
  56.1459139  51.1601271  22.3012260  57.4796721  51.0132635  21.6002279
  57.8471625  52.3377740  17.5893252  58.5943444  52.8499137  17.2800374
  58.1163215  52.0161793  18.4497645  56.1198275  54.8336281  14.5720206
  55.2109495  54.5495313  14.6692676  56.1493359  55.2535359  13.7123513
  61.3517543  58.4442870  18.3411374  60.8979870  57.6033780  18.3976564
  60.7211510  59.0804268  18.6786154  60.2950462  49.3734856  19.5712041
  59.5573219  48.8612242  19.9022284  60.5477236  48.9335238  18.7595318
  59.7950482  60.2819367  19.2761192  60.0873456  60.8424424  18.5573558
  60.3049103  60.5747928  20.0314351  60.3962090  42.1511108  20.1653810
  60.7020967  41.2908472  19.8779726  61.1214695  42.7428728  19.9652804
  46.6886446  52.5541795  18.5535408  46.4910846  51.9611155  17.8286475
  46.1333110  52.2494005  19.2711347  54.6683169  52.4464901  20.6730002
  54.7231779  51.4938738  20.5972478  53.8574372  52.6024340  21.1571300
  55.8174363  56.3745024  11.9108285  55.3793793  55.6580883  11.4513922
  56.5584804  56.6021139  11.3493376  52.6075529  51.0641961  18.4320380
  51.7943395  51.3636131  18.8385573  53.1034524  50.6697650  19.1494863
  54.7584107  61.0599718  20.3654645  54.7160286  61.2860564  19.4363177
  55.6746806  60.8263092  20.5140446  58.2049741  51.5283785  27.2635274
  58.5599129  51.7555259  28.1229740  58.8521872  51.8602162  26.6412530
  63.9347478  54.6502221  17.9684603  63.7965377  54.8403817  17.0405793
  63.5783697  55.4121604  18.4252654  52.0989604  48.6360316  24.0481615
  52.7388983  48.4949076  23.3504579  51.2667135  48.3494830  23.6720217
  63.9616858  56.7178748  22.9795875  64.3953364  56.6254037  23.8278929
  64.6748438  56.6936249  22.3415891  52.8749908  57.9362747  20.1616608
  53.6690507  57.4413067  19.9599183  52.1641600  57.4080610  19.7984313
  57.6944753  60.3180842  24.5128975  57.7481775  60.8871779  25.2806691
  56.8259534  60.4882727  24.1483013  49.1832672  52.0805829  16.2376361
  48.2530260  52.0190284  16.4546323  49.2790144  51.5581781  15.4413002
  49.1018221  48.6060641  18.8254602  49.3625038  49.5205975  18.7163763
  49.9235393  48.1385084  18.9751215  50.5743146  50.0198399  25.9953427
  51.2466199  49.8115761  25.3466076  49.7472932  49.8220485  25.5558659
  64.8232407  56.7602449  25.5128760  65.0168297  57.6648259  25.7588035
  64.7233025  56.3009868  26.3467345  56.4768718  46.6460340  28.0119088
  55.8296633  47.3450289  27.9183564  57.2469733  47.0796483  28.3795336
  59.8847516  56.9109192  31.0869641  59.7333022  56.6819743  30.1699725
  59.8752195  57.8679793  31.1000986  56.6532852  54.4841104  26.0715907
  57.5824912  54.6352264  25.8984875  56.2323882  54.5725125  25.2164554
  55.4521184  58.5091769  23.8414445  55.3132270  58.1410553  24.7140383
  54.6635780  59.0239408  23.6698403  56.0469336  63.6100865  15.1839981
  56.2221092  63.1388909  15.9985604  55.3602124  64.2366632  15.4121242
  57.0026399  57.8873372  21.2303283  56.6676232  57.8474142  22.1260933
  56.5030345  57.2218087  20.7573693  50.9770643  53.2941002  26.7555864
  50.8390441  52.5621240  27.3567403  51.8875567  53.2049902  26.4740052
  59.9385591  55.2329406  11.5040342  59.3214761  54.5076234  11.4073395
  59.4702079  55.9938766  11.1607417  53.6052944  53.0060961  26.2439544
  54.3152562  52.3654153  26.2026162  53.5622252  53.2573856  27.1665724
  61.5939723  59.9428314  29.1646123  61.5352269  59.2587534  28.4976706
  61.9959241  60.6847304  28.7126749  52.3181878  49.9926179  28.0635183
  51.7819235  49.5416917  28.7156779  51.7298586  50.1272088  27.3205647
  50.6130421  66.7590228  21.9579842  50.8527020  67.3908752  22.6358860
  49.7699618  66.4078268  22.2445201  51.7284137  49.4514830  10.6261647
  50.8513603  49.3303631  10.2623893  52.2041890  48.6600908  10.3740535
  61.5957130  57.9067898  27.3960102  60.7083909  57.5693820  27.5186501
  62.1655681  57.1750929  27.6328868  43.2486277  54.2391990  20.7203154
  43.9357317  53.9253720  20.1324169  43.0934406  55.1433355  20.4470405
  48.0520999  49.1282186  25.1488177  47.9679188  48.5207856  24.4138587
  47.2303705  49.6191205  25.1497674  55.1258283  62.5669351  24.3621346
  55.0528455  63.3724322  24.8740650  54.6835676  62.7661316  23.5369367
  54.9148063  61.8041121  17.8724167  54.1315585  62.3462801  17.9662392
  55.6140808  62.3215100  18.2718408  58.2244713  47.6135750  20.5158373
  58.7213412  46.8605712  20.1959443  57.4531694  47.6500067  19.9501582
  66.0774470  53.3176116  22.1576664  66.0664347  54.2000831  21.7870597
  65.2091850  52.9647666  21.9631201  57.5856967  62.4656185  26.5179504
  58.2984939  63.1003649  26.4455406  57.0946995  62.5620051  25.7019506
  59.3074494  56.3707437  18.0896796  58.3730772  56.4908900  17.9201500
  59.4851162  55.4679904  17.8256806  54.8079682  49.7553133  20.2430057
  54.4377469  49.2024173  20.9310963  55.3038774  49.1511266  19.6905057
  62.6947045  52.2124757  18.6246830  63.1607497  53.0452748  18.5507133
  63.1454545  51.7469738  19.3292089  52.6368880  60.2150628  27.3385075
  53.3378340  60.8487111  27.4914469  52.1663995  60.5565360  26.5780714
  60.7623276  58.5568578  15.6232982  61.0383120  58.4425172  16.5326856
  59.8927775  58.1586063  15.5845155  60.6663708  44.5805343  22.6637731
  59.7526788  44.8109570  22.8319938  61.0956809  44.6643788  23.5151764
  60.4370166  52.7695235  25.1637625  59.7841616  53.0171143  24.5090078
  60.8150546  51.9559374  24.8300103  57.3977340  62.8054929  19.2665796
  57.5799735  61.9876585  19.7293548  58.2210326  63.0222621  18.8290686
  57.7319506  61.7323114  16.5280844  58.2607272  61.2215568  15.9151006
  57.9947725  61.4165644  17.3926377  56.4857739  53.5115047  31.6503663
  55.8098376  53.4109176  32.3206038  57.3085373  53.3554260  32.1139660
  48.2336598  59.7486983  24.2716178  48.8190035  59.0030671  24.4044082
  48.0361437  60.0590940  25.1552842  51.0875254  62.7838230  19.2878620
  50.4185629  63.2684358  18.8042660  50.9488123  63.0307451  20.2021999
  42.8254253  52.3192583  22.9920621  42.8638353  51.7856174  23.7857739
  42.3194546  51.7927789  22.3731598  55.2280522  64.8181974  25.8861279
  55.7798830  64.9813595  26.6510364  55.5686716  65.4086412  25.2141303
  50.2045015  47.1657124  26.4883163  50.2686342  48.0271955  26.0760561
  50.1412136  46.5531125  25.7555522  49.6797288  49.2380256  30.1356197
  50.3069327  48.8557334  30.7493722  48.8225207  49.0194458  30.5011890
  60.0791396  59.6443231  31.7409933  60.6231300  60.2573190  31.2464888
  59.4978241  60.2022810  32.2576946  46.4562831  51.0456685  16.0674552
  46.7516272  50.1367364  16.0141606  45.5550866  51.0244425  15.7455555
  58.3648909  62.7663949  22.8724961  58.2400049  61.9653689  22.3635906
  59.0228000  63.2610143  22.3838931  49.9857078  49.1212682  22.0502101
  49.2643663  49.7348650  21.9109574  50.7750333  49.6570447  21.9718747
  60.4283818  60.5672970  24.5004511  59.4814153  60.4478321  24.4282837
  60.7766591  59.6795468  24.5830772  52.7883391  46.4567108  28.3242753
  53.3117793  46.7029405  29.0869062  52.5695724  47.2887143  27.9045890
  48.1850672  48.7270783  16.1913877  47.8563378  47.8468162  16.0088983
  48.5390043  48.6718452  17.0790267  57.4330251  60.3625686  20.7008863
  57.2855213  59.4342393  20.8816433  58.2583745  60.3845777  20.2165938
  51.2992495  49.0143753  16.5589355  51.6388568  49.5429674  15.8367963
  51.7464616  49.3524159  17.3347922  61.0364373  61.1854245  21.7873736
  61.9610920  60.9797106  21.6498187  60.8679676  60.9370646  22.6963077
  53.9935936  47.3980804  26.0092423  53.6532757  46.5988617  26.4113103
  53.2874942  47.6982514  25.4369256  54.6452408  44.4830116  24.4619746
  55.4678477  44.0090594  24.3398637  54.8890472  45.2620600  24.9618433
  53.2860643  47.5118374  14.7582648  54.0069005  47.8899627  14.2546365
  52.6625947  48.2307251  14.8617626  57.4291765  48.2163523  15.6940980
  57.6455380  49.0988161  15.3929808  56.9485833  47.8249737  14.9646622
  52.1690987  51.1749237  22.2711725  52.0235567  51.4889540  23.1636006
  51.6916190  51.7934137  21.7182623  54.0287370  48.1651785  22.3192614
  54.0148938  47.2692878  21.9824912  54.7459798  48.1722448  22.9530900
  55.8813500  48.5989125  24.3645742  55.6231278  49.5206196  24.3630072
  55.3498541  48.2019559  25.0546206  60.8259689  61.7039912  17.1435827
  60.9996567  61.1386334  16.3909680  61.3188580  62.5040807  16.9615317
  46.6436649  53.7154581  25.2099386  46.0990117  54.4914389  25.3419660
  47.5215999  54.0625386  25.0518507  53.4324266  47.0466165  17.5880185
  53.5540177  46.1182811  17.7871072  53.1426308  47.0604851  16.6758500
  56.3015456  44.7321075  20.7246904  56.3237153  44.7960408  19.7698884
  56.7183515  43.8925584  20.9187411  66.6799080  54.4676335  18.7626127
  67.1230226  53.7183660  18.3645250  65.8025591  54.4586471  18.3799859
  61.8134862  61.0206676  14.2432725  62.5085766  61.6413369  14.4620040
  62.1558012  60.1702028  14.5185103  47.4302671  52.8424477  28.1029543
  46.6884407  52.9907113  28.6894173  47.1095415  53.1032743  27.2396292
  63.7126285  58.4706382  15.7720056  64.2377609  58.8093655  15.0469376
  63.6248637  57.5353397  15.5883191  55.3746333  62.3840456  27.9009933
  55.6833460  62.1389602  28.7732632  56.1721815  62.5887094  27.4128803
  55.3966945  64.5378365  20.1315309  54.9571936  64.0454744  20.8248166
  56.1475062  63.9951333  19.8907385  47.8759284  60.7289906  20.1339937
  48.7017304  60.4293678  19.7538581  47.5253336  59.9597528  20.5829726
  52.8440818  60.0816374  22.2037611  52.2220827  59.4187079  21.9039839
  53.5145685  60.1077506  21.5211259  46.0767890  58.6476233  21.0928871
  45.2399798  58.2198407  20.9112872  46.0491535  58.8408676  22.0299662
  52.9165345  48.5598162  31.7970117  52.9653501  49.4360285  31.4147887
  53.4587859  48.0175555  31.2241760  63.4020191  59.1039286  31.0771254
  62.6115735  59.0863424  30.5375754  63.1653545  59.6427579  31.8320291
  63.5218066  55.9531752  28.3903983  63.5716071  55.7881759  29.3319506
  63.4131989  55.0859011  28.0001864  52.4054325  58.6320298  15.6796072
  52.5542445  59.3155762  15.0262744  53.2120768  58.6125388  16.1945527
  60.8121828  51.9362680  29.7063289  61.7131691  51.7969145  29.4147287
  60.8869803  52.1017135  30.6461467  55.1464634  49.3129535  28.5516476
  54.2767943  49.6063101  28.2799064  55.3824114  49.8969980  29.2723739
  65.0236263  58.3728693  28.6346004  64.7321071  58.7358674  29.4709465
  64.4108394  57.6595702  28.4559336  66.2231945  55.9381573  21.1548575
  67.0578836  56.3771377  21.3186135  66.3591074  55.4620226  20.3356820
  63.2723451  53.4961308  27.1026062  63.7477573  53.6888954  26.2944914
  62.3489016  53.5520494  26.8569446  50.1606958  54.6585475  16.6857141
  49.9152999  53.7547805  16.8837351  50.3302872  54.6602626  15.7436619
  57.8503667  45.5309152  26.0681896  58.3685611  46.2670179  25.7428385
  57.4958800  45.8373145  26.9028655  49.4302605  50.3913833  14.1843302
  48.7371850  50.4658188  13.5283338  49.1854357  49.6274176  14.7064819
  58.1016262  41.9509434  21.5882793  58.3818015  41.2832623  22.2143219
  58.8866868  42.1438530  21.0757457  55.9049730  61.1268428  13.1507819
  55.3323697  61.7458615  12.6978291  56.4782524  61.6767790  13.6847741
  61.9725120  50.3727068  25.3354368  62.9242543  50.4725166  25.3566592
  61.8028570  49.5805337  25.8452452  59.9939499  47.4582651  25.5213769
  59.3989431  47.7387664  24.8260257  59.7089196  47.9476552  26.2930510
  59.1246990  61.4105578  14.2816401  60.0577663  61.3451140  14.4849277
  59.0370203  62.2461845  13.8230934  61.7535007  60.7271449  11.2420349
  61.6748638  60.3931312  12.1356107  62.5744673  61.2193216  11.2411821
  64.4513198  53.5933188  24.4496668  64.4189518  52.6549189  24.6356351
  65.0613821  53.6717225  23.7162492  56.2896529  52.4629241  10.4923872
  57.2355633  52.3335449  10.5612290  55.9110774  51.7243903  10.9693300
  64.6007686  50.3844231  24.4954951  64.0846735  49.6002688  24.3084880
  65.4847635  50.0562948  24.6601470  62.2618413  44.1285247  20.4550763
  62.0643234  43.8200335  21.3394095  62.8718119  44.8546886  20.5848693
  70.2689748  54.6549195  23.5902704  70.9993136  54.3934483  24.1510408
  69.6596693  53.9177917  23.6304772  68.3505045  52.7957057  24.1877156
  67.6238208  52.6613022  23.5793647  67.9352332  53.1033886  24.9933874
  56.1735221  56.5146987  31.9524529  57.0938231  56.6925586  32.1464575
  56.1384804  55.5703032  31.8004228  54.4739446  50.3879217  10.4278757
  53.5670901  50.0912330  10.5041470  54.7515427  50.0909035   9.5613043
  45.3917386  51.7085581  20.8777803  45.0720170  50.8550889  20.5852177
  44.8450814  51.9234159  21.6335771  49.1697294  54.4248022  24.5947310
  49.3883303  55.3565129  24.6135344  49.5823067  54.0655996  25.3802114
  56.0901511  44.9316107  16.5822998  55.2802240  44.5863192  16.9578244
  56.7785928  44.6223651  17.1710610  58.0192060  44.0094154  18.2047295
  58.5723098  44.4289607  18.8637318  58.2562146  43.0829902  18.2470251
  54.0425159  49.9981227  33.9850059  53.9421886  50.9475584  33.9162150
  53.8246701  49.6699466  33.1126129  53.2438230  47.2466152  10.5690736
  54.1057394  47.5721051  10.8286553  53.4288574  46.4597648  10.0563802
  45.2605646  55.3288492  22.8470925  44.5669118  54.9142445  22.3340879
  46.0078637  55.3709029  22.2504344  61.3970867  46.1194679  17.7125959
  60.8169536  46.7779483  17.3304011  61.1306800  45.2972023  17.3013376
  59.8474433  45.5199737  19.9147279  60.3474212  45.6316271  19.1061598
  60.4910041  45.2160789  20.5548088  53.9056429  53.4278366  32.8015120
  53.4223511  54.2278726  33.0079009  53.9917368  53.4386311  31.8482564
  47.1742389  55.2606746  20.7236940  47.1513077  55.3594433  19.7718823
  47.4843025  56.1071897  21.0454106  49.8329767  57.3182901  24.8383554
  50.7873020  57.2866843  24.7713486  49.6342290  56.8573525  25.6533780
  50.4229149  55.8884017  27.4054352  51.2422038  56.3828096  27.4289189
  50.6965956  54.9715985  27.3771919  60.1795745  48.2794769  16.7682307
  59.2921600  48.5644420  16.5502502  60.5949734  48.1188533  15.9209584
  63.5310281  48.3041290  20.4836646  64.3070671  48.7937743  20.7561263
  62.8058415  48.7299344  20.9408516  65.9682840  49.0168909  21.5410587
  66.5627330  48.7764645  20.8303895  66.0409423  48.2976040  22.1684123
  48.1879995  62.8602520  21.8553752  48.0534463  62.1002921  21.2891750
  47.7712058  63.5843420  21.3882541  59.3238958  58.0439444  10.8630327
  60.0274808  58.2489446  11.4787983  58.6001607  58.6116206  11.1279411
  60.1536769  53.7949305  16.9832597  60.0971970  54.2517857  16.1440230
  60.7065111  53.0339990  16.8055440  63.9641574  49.5839037  17.8082717
  63.7078509  49.1835673  18.6390925  63.3394443  50.2982831  17.6832856
  68.2753912  52.3235110  20.3154008  67.7153470  52.3928300  21.0885570
  67.6697416  52.1476095  19.5953505  51.3449121  63.7571837  22.0672195
  51.2281505  64.7017270  21.9650885  50.5241567  63.4545399  22.4557994
  61.2325656  58.4821973  12.9128787  62.0671260  58.0503172  12.7306262
  61.0709999  58.3103987  13.8405682  60.8871548  54.9854086  14.2785127
  60.8320352  54.8198358  13.3373571  60.2617603  55.6930119  14.4347316
  45.6764063  50.2222151  28.1046549  46.3222926  49.7121105  28.5933774
  45.4681214  50.9590832  28.6789974  58.2017455  57.2902998  33.6038689
  59.0708615  57.4643651  33.2425324  57.7224207  58.1097415  33.4814419
  54.1967673  44.4862195  13.8570445  54.1846343  45.4304035  14.0138716
  55.0891095  44.3032341  13.5629906  52.3703635  64.4100099  25.2828123
  53.2730882  64.4423710  25.5994618  52.1441005  63.4800550  25.2974459
  54.1257237  63.1631086  21.9438202  53.1752868  63.1632947  21.8302574
  54.4289723  62.4163820  21.4274236  58.0119793  41.0804972  18.1116382
  57.2452189  40.5263459  18.2573064  58.4230498  41.1526841  18.9730533
  50.0161554  47.3689768  32.2021563  50.8793015  47.0126573  32.4124888
  49.4426965  47.0303663  32.8896967  69.8609931  68.9991624  23.0083964
  70.4988341  68.8798372  22.3047304  69.7430774  69.9472468  23.0671916
  66.6699637  68.9519052  22.9445489  66.3318149  68.8360117  22.0566024
  67.5389405  68.5510217  22.9246495  62.5286453  70.8054529  18.9342380
  61.9651318  70.7144466  18.1658667  62.4138848  69.9854433  19.4144872
  67.1519420  70.1053904  28.9031694  67.1408061  69.7106702  28.0312198
  67.3140060  69.3719977  29.4965466  60.0750885  72.3005720  21.7726600
  60.8672177  71.9596545  21.3572899  60.3147535  72.4100695  22.6928753
  68.1086012  74.4725496  14.2456845  67.4573991  75.0579577  13.8590858
  68.9030374  75.0031691  14.3051882  62.0341639  71.5614634  14.6443979
  62.8072515  71.0143621  14.5056855  62.3867038  72.4258883  14.8558440
  63.8726681  72.8891016  27.8510878  63.5816547  73.7936647  27.7357545
  64.5083666  72.9307544  28.5654948  64.7982888  70.2667864  24.4412238
  65.3946460  70.0423887  23.7269201  64.8557860  69.5252610  25.0437686
  64.3707916  67.7207300  12.2762429  64.6233437  67.1988821  11.5145892
  63.4332476  67.5573445  12.3789112  69.4151199  66.7243078  20.0837172
  70.2014289  66.3062501  19.7327589  69.6789904  67.6289170  20.2518820
  69.5861277  72.1615928  14.7825829  68.9507110  72.2350555  15.4946734
  69.2558683  72.7509527  14.1044908  74.8159626  66.6618311  20.9870151
  75.5484798  66.0917528  21.2207980  74.0598982  66.2739912  21.4276656
  64.0904205  69.6235406  14.4786804  63.9740463  68.9480309  15.1467888
  64.2006465  69.1367780  13.6618957  66.4335746  69.0845553  18.1833493
  66.0693953  68.5576174  18.8946415  67.2902862  68.6944022  18.0099978
  72.3385047  60.3739885  25.4464759  72.0068372  61.2435296  25.2225974
  71.7430660  60.0576169  26.1258790  66.0741233  64.1135452  13.1794842
  66.2415635  64.9815689  13.5465313  65.8838402  64.2762734  12.2556131
  68.8316566  72.5752431  24.8460672  68.5317289  73.4777470  24.7376479
  68.4867626  72.3084615  25.6981825  62.2829048  69.0266228  20.8797376
  61.3579544  68.8942442  21.0875068  62.5313461  69.8060447  21.3767319
  72.2313710  65.0934972  22.5258109  71.3230587  65.0250380  22.2316870
  72.1801306  65.5706917  23.3539935  66.0530454  66.5693110  14.1641508
  65.9330079  67.0150161  15.0026989  65.3583042  66.9178428  13.6055047
  59.6437859  68.6699502  21.7141165  59.7730240  68.9233981  22.6280577
  58.9635310  69.2627210  21.3945820  63.8137346  79.3396752  17.8131640
  63.7361376  80.2904577  17.8920120  63.2098990  78.9942624  18.4706566
  66.3054576  66.5124617  30.4693007  65.5287910  67.0718537  30.4595871
  66.9445139  66.9981400  30.9907877  74.0975356  63.2951410  24.3035983
  73.4549737  63.5883943  23.6575778  73.5930285  63.1804330  25.1089180
  71.7515520  67.0414583  14.9921842  72.6633376  67.2741970  14.8169540
  71.2425167  67.6251627  14.4296921  64.5600948  69.3210071  30.0310974
  65.3015633  69.8595115  29.7545797  63.8537934  69.9476359  30.1882525
  70.0356288  71.4639211  28.6283135  70.4439644  71.0221622  27.8837767
  69.3133549  70.8891839  28.8817328  66.3887358  66.4011818  26.0016692
  67.2348553  66.8251231  26.1451341  66.3285996  65.7445442  26.6955255
  70.3585102  72.0240402  22.3835424  69.7293965  72.1886116  21.6811492
  69.9710765  72.4382011  23.1546388  74.2374334  72.9594839  19.7379788
  73.5525373  73.3393741  19.1876821  74.3218184  73.5690166  20.4711735
  69.5386803  64.0616186  27.6597866  69.2947735  64.8158247  27.1232141
  69.8146734  64.4401534  28.4945113  71.4925266  70.6054799  26.3375131
  71.7042161  71.2486558  25.6609512  71.4455014  69.7717115  25.8697061
  69.0951495  63.2172619  23.2411703  68.2335974  63.5153873  23.5328441
  69.1213930  63.4343018  22.3092736  65.9113064  71.7614810  19.6485509
  66.3751410  72.0402513  18.8590131  65.6469862  70.8598254  19.4658600
  62.8037145  71.3086291  22.5865272  63.3738502  71.7373560  21.9482757
  63.3945257  71.0268876  23.2849458  64.8481950  67.8837962  16.4575074
  65.5505994  68.3359006  16.9249000  64.5162579  67.2421781  17.0854967
  63.2962312  66.4749719  30.8326284  62.6660972  67.1566000  31.0661680
  63.1898400  66.3632800  29.8879422  58.5907284  66.1421515  21.7592208
  57.8006338  66.3979043  21.2832318  59.0818532  66.9569853  21.8644248
  72.6071094  73.4826754  24.5097489  73.4288538  73.0806941  24.2280170
  72.6033497  73.3794988  25.4613604  60.5422030  66.5066094  18.7175684
  59.7453193  66.6184788  19.2359180  60.3147622  66.8452746  17.8516575
  66.3727697  73.0310797  26.6658199  66.4372130  73.4931204  27.5016371
  65.6638621  72.4008162  26.7940509  56.8744987  66.3952005  24.1907198
  57.1253026  67.2799015  24.4564774  57.4104536  66.2156607  23.4182290
  80.6977087  69.8265502  20.8582460  79.9440795  69.2572900  20.7026464
  80.8324628  69.7928167  21.8053095  66.0875715  74.6978905  16.5337179
  65.9521390  75.5430440  16.9622027  66.6285528  74.8998182  15.7703113
  62.5743055  60.7770485  33.1951535  62.1810000  60.2236683  33.8699179
  63.3909195  61.0881063  33.5858052  59.5405112  72.2154343  17.1065104
  60.0529633  73.0097593  17.2570669  60.1927825  71.5180633  17.0398706
  61.3499997  75.3320099  19.1887858  61.5266625  76.2538064  19.0008841
  62.1456831  75.0178518  19.6182237  65.4911016  62.1928364  30.7871791
  66.2320729  62.7935517  30.7076254  65.7228938  61.4506001  30.2289834
  60.6352354  67.3784731  29.0650021  60.5205869  66.4769988  29.3657120
  59.7796871  67.6248428  28.7134837  67.7144191  75.3202471  30.6637521
  67.2708046  74.5338850  30.3458426  68.3761405  75.5081622  29.9981412
  62.4731313  76.8498273  25.1898200  63.0238738  76.7215336  24.4175194
  61.6342788  77.1493162  24.8393093  69.8125429  75.6005271  28.6918923
  69.7943905  76.4214152  28.1999192  70.7345350  75.4759346  28.9169064
  66.2698484  73.1149401  29.5342431  66.8026820  72.3537689  29.3041739
  65.7412565  72.8223052  30.2766586  69.4368179  58.2209467  25.0636073
  69.0932448  59.1111108  24.9875183  69.8047141  58.0311124  24.2005658
  57.5054029  70.5442997  17.8824675  58.3429251  70.9540005  17.6658383
  57.6832297  69.6042439  17.8524869  69.4018461  68.2118078  13.5708508
  68.8865085  68.9822682  13.8096895  69.1295770  67.5383214  14.1941569
  66.9865572  63.0567778  18.6293746  66.1307169  62.6674629  18.4499385
  67.3992524  63.1359739  17.7693532  68.5164719  60.5914122  23.0285306
  68.0129515  60.5544257  22.2153111  68.8095326  61.5006864  23.0881963
  64.7607605  60.6752851  22.0351488  65.6260602  60.4795660  21.6757377
  64.8285114  60.4463203  22.9620845  74.3752735  70.9650432  15.5061681
  73.5982178  70.6261592  15.0616843  75.0544216  70.9703056  14.8316646
  69.1904764  66.0845170  15.3968289  68.8854900  66.3991319  16.2478432
  70.1435207  66.1626590  15.4395622  67.6351196  72.2435393  17.0461243
  67.1072558  71.5088153  16.7334481  67.1338699  73.0210069  16.8001211
  72.6144042  70.4384414  22.1628289  71.9567717  71.1283675  22.2508418
  73.4184442  70.8280846  22.5062276  62.3669924  62.9055059  19.4067855
  62.9413676  62.6830241  18.6741048  62.9540906  62.9743754  20.1596456
  71.4249501  68.7928786  20.2132231  71.9381383  69.4258778  20.7153941
  72.0750725  68.1929982  19.8475591  62.6939511  64.9359520  13.4263740
  61.8576823  65.2734207  13.7473015  62.5544281  64.8008500  12.4890877
  64.6692592  59.7796308  18.1342924  64.0157004  59.4645325  17.5099539
  64.6273066  59.1572049  18.8602747  65.7803796  70.0615603  10.0496216
  64.8730858  69.8304857  10.2487365  66.2774828  69.2653223  10.2370198
  68.6871875  78.7713111  12.9692902  68.0133574  79.0744807  13.5777860
  69.0737697  79.5742191  12.6198359  67.9030332  66.2678242  22.4590572
  66.9852893  66.4893189  22.3012260  68.3190476  66.3424552  21.6002279
  68.6865380  67.6669658  17.5893252  69.4337199  68.1791055  17.2800374
  68.9556969  67.3453710  18.4497645  66.9592030  70.1628198  14.5720206
  66.0503249  69.8787231  14.6692676  66.9887114  70.5827277  13.7123513
  72.1911297  73.7734788  18.3411374  71.7373624  72.9325698  18.3976564
  71.5605264  74.4096186  18.6786154  71.1344217  64.7026774  19.5712041
  70.3966974  64.1904160  19.9022284  71.3870990  64.2627155  18.7595318
  70.6344237  75.6111284  19.2761192  70.9267211  76.1716342  18.5573558
  71.1442857  75.9039845  20.0314351  71.2355844  57.4803026  20.1653810
  71.5414721  56.6200389  19.8779726  71.9608449  58.0720646  19.9652804
  57.5280200  67.8833712  18.5535408  57.3304600  67.2903073  17.8286475
  56.9726864  67.5785923  19.2711347  65.5076924  67.7756819  20.6730002
  65.5625534  66.8230655  20.5972478  64.6968126  67.9316258  21.1571300
  66.6568118  71.7036942  11.9108285  66.2187548  70.9872801  11.4513922
  67.3978559  71.9313057  11.3493376  63.4469284  66.3933879  18.4320380
  62.6337149  66.6928049  18.8385573  63.9428278  65.9989567  19.1494863
  65.5977862  76.3891636  20.3654645  65.5554041  76.6152482  19.4363177
  66.5140561  76.1555010  20.5140446  69.0443496  66.8575703  27.2635274
  69.3992883  67.0847176  28.1229740  69.6915627  67.1894080  26.6412530
  74.7741233  69.9794139  17.9684603  74.6359131  70.1695735  17.0405793
  74.4177451  70.7413522  18.4252654  62.9383359  63.9652234  24.0481615
  63.5782738  63.8240993  23.3504579  62.1060889  63.6786748  23.6720217
  74.8010612  72.0470666  22.9795875  75.2347119  71.9545955  23.8278929
  75.5142193  72.0228166  22.3415891  63.7143663  73.2654665  20.1616608
  64.5084261  72.7704985  19.9599183  63.0035355  72.7372528  19.7984313
  68.5338507  75.6472760  24.5128975  68.5875529  76.2163696  25.2806691
  67.6653288  75.8174645  24.1483013  60.0226426  67.4097746  16.2376361
  59.0924014  67.3482202  16.4546323  60.1183898  66.8873699  15.4413002
  59.9411975  63.9352559  18.8254602  60.2018792  64.8497892  18.7163763
  60.7629147  63.4677002  18.9751215  61.4136900  65.3490316  25.9953427
  62.0859954  65.1407678  25.3466076  60.5866687  65.1512402  25.5558659
  75.6626162  72.0894367  25.5128760  75.8562052  72.9940177  25.7588035
  75.5626780  71.6301786  26.3467345  67.3162472  61.9752257  28.0119088
  66.6690387  62.6742207  27.9183564  68.0863488  62.4088401  28.3795336
  70.7241270  72.2401109  31.0869641  70.5726777  72.0111661  30.1699725
  70.7145950  73.1971711  31.1000986  67.4926607  69.8133022  26.0715907
  68.4218667  69.9644182  25.8984875  67.0717637  69.9017043  25.2164554
  66.2914939  73.8383687  23.8414445  66.1526024  73.4702471  24.7140383
  65.5029535  74.3531326  23.6698403  66.8863091  78.9392783  15.1839981
  67.0614846  78.4680826  15.9985604  66.1995879  79.5658549  15.4121242
  67.8420154  73.2165289  21.2303283  67.5069986  73.1766059  22.1260933
  67.3424099  72.5510005  20.7573693  61.8164398  68.6232919  26.7555864
  61.6784196  67.8913158  27.3567403  62.7269321  68.5341819  26.4740052
  70.7779345  70.5621324  11.5040342  70.1608516  69.8368152  11.4073395
  70.3095834  71.3230684  11.1607417  64.4446698  68.3352879  26.2439544
  65.1546317  67.6946071  26.2026162  64.4016006  68.5865773  27.1665724
  72.4333477  75.2720232  29.1646123  72.3746023  74.5879452  28.4976706
  72.8352995  76.0139222  28.7126749  63.1575632  65.3218096  28.0635183
  62.6212989  64.8708835  28.7156779  62.5692341  65.4564005  27.3205647
  61.4524176  82.0882146  21.9579842  61.6920774  82.7200670  22.6358860
  60.6093372  81.7370186  22.2445201  62.5677891  64.7806748  10.6261647
  61.6907358  64.6595549  10.2623893  63.0435644  63.9892826  10.3740535
  72.4350884  73.2359816  27.3960102  71.5477663  72.8985738  27.5186501
  73.0049435  72.5042847  27.6328868  54.0880031  69.5683908  20.7203154
  54.7751071  69.2545638  20.1324169  53.9328160  70.4725272  20.4470405
  58.8914754  64.4574104  25.1488177  58.8072942  63.8499774  24.4138587
  58.0697460  64.9483122  25.1497674  65.9652038  77.8961268  24.3621346
  65.8922209  78.7016240  24.8740650  65.5229431  78.0953234  23.5369367
  65.7541817  77.1333038  17.8724167  64.9709339  77.6754718  17.9662392
  66.4534562  77.6507018  18.2718408  69.0638467  62.9427668  20.5158373
  69.5607167  62.1897630  20.1959443  68.2925449  62.9791984  19.9501582
  76.9168225  68.6468033  22.1576664  76.9058101  69.5292749  21.7870597
  76.0485604  68.2939584  21.9631201  68.4250721  77.7948102  26.5179504
  69.1378693  78.4295567  26.4455406  67.9340750  77.8911968  25.7019506
  70.1468248  71.6999355  18.0896796  69.2124527  71.8200817  17.9201500
  70.3244917  70.7971822  17.8256806  65.6473436  65.0845051  20.2430057
  65.2771224  64.5316091  20.9310963  66.1432529  64.4803184  19.6905057
  73.5340799  67.5416674  18.6246830  74.0001252  68.3744666  18.5507133
  73.9848300  67.0761656  19.3292089  63.4762635  75.5442546  27.3385075
  64.1772094  76.1779029  27.4914469  63.0057750  75.8857277  26.5780714
  71.6017031  73.8860495  15.6232982  71.8776874  73.7717090  16.5326856
  70.7321529  73.4877980  15.5845155  71.5057462  59.9097261  22.6637731
  70.5920542  60.1401488  22.8319938  71.9350564  59.9935705  23.5151764
  71.2763921  68.0987153  25.1637625  70.6235371  68.3463061  24.5090078
  71.6544301  67.2851291  24.8300103  68.2371095  78.1346846  19.2665796
  68.4193489  77.3168502  19.7293548  69.0604081  78.3514539  18.8290686
  68.5713260  77.0615031  16.5280844  69.1001026  76.5507486  15.9151006
  68.8341480  76.7457562  17.3926377  67.3251494  68.8406964  31.6503663
  66.6492131  68.7401094  32.3206038  68.1479128  68.6846178  32.1139660
  59.0730353  75.0778901  24.2716178  59.6583790  74.3322589  24.4044082
  58.8755191  75.3882857  25.1552842  61.9269008  78.1130148  19.2878620
  61.2579383  78.5976276  18.8042660  61.7881878  78.3599369  20.2021999
  53.6648008  67.6484501  22.9920621  53.7032107  67.1148092  23.7857739
  53.1588300  67.1219706  22.3731598  66.0674277  80.1473892  25.8861279
  66.6192585  80.3105513  26.6510364  66.4080470  80.7378329  25.2141303
  61.0438770  62.4949041  26.4883163  61.1080096  63.3563872  26.0760561
  60.9805890  61.8823043  25.7555522  60.5191042  64.5672174  30.1356197
  61.1463081  64.1849251  30.7493722  59.6618961  64.3486376  30.5011890
  70.9185151  74.9735149  31.7409933  71.4625055  75.5865107  31.2464888
  70.3371996  75.5314728  32.2576946  57.2956585  66.3748603  16.0674552
  57.5910026  65.4659282  16.0141606  56.3944621  66.3536343  15.7455555
  69.2042664  78.0955867  22.8724961  69.0793803  77.2945607  22.3635906
  69.8621755  78.5902061  22.3838931  60.8250832  64.4504600  22.0502101
  60.1037418  65.0640567  21.9109574  61.6144088  64.9862364  21.9718747
  71.2677572  75.8964887  24.5004511  70.3207908  75.7770238  24.4282837
  71.6160345  75.0087385  24.5830772  63.6277146  61.7859026  28.3242753
  64.1511547  62.0321323  29.0869062  63.4089479  62.6179061  27.9045890
  59.0244427  64.0562701  16.1913877  58.6957133  63.1760080  16.0088983
  59.3783797  64.0010369  17.0790267  68.2724006  75.6917603  20.7008863
  68.1248968  74.7634311  20.8816433  69.0977499  75.7137694  20.2165938
  62.1386250  64.3435671  16.5589355  62.4782322  64.8721592  15.8367963
  62.5858370  64.6816077  17.3347922  71.8758127  76.5146162  21.7873736
  72.8004675  76.3089024  21.6498187  71.7073431  76.2662563  22.6963077
  64.8329691  62.7272721  26.0092423  64.4926511  61.9280534  26.4113103
  64.1268697  63.0274432  25.4369256  65.4846162  59.8122034  24.4619746
  66.3072232  59.3382512  24.3398637  65.7284226  60.5912517  24.9618433
  64.1254397  62.8410292  14.7582648  64.8462759  63.2191545  14.2546365
  63.5019701  63.5599169  14.8617626  68.2685520  63.5455441  15.6940980
  68.4849134  64.4280079  15.3929808  67.7879587  63.1541655  14.9646622
  63.0084741  66.5041154  22.2711725  62.8629322  66.8181457  23.1636006
  62.5309945  67.1226055  21.7182623  64.8681124  63.4943702  22.3192614
  64.8542693  62.5984796  21.9824912  65.5853552  63.5014366  22.9530900
  66.7207255  63.9281043  24.3645742  66.4625033  64.8498113  24.3630072
  66.1892295  63.5311477  25.0546206  71.6653444  77.0331830  17.1435827
  71.8390321  76.4678252  16.3909680  72.1582335  77.8332725  16.9615317
  57.4830403  69.0446499  25.2099386  56.9383871  69.8206307  25.3419660
  58.3609753  69.3917303  25.0518507  64.2718020  62.3758083  17.5880185
  64.3933931  61.4474729  17.7871072  63.9820062  62.3896769  16.6758500
  67.1409210  60.0612993  20.7246904  67.1630907  60.1252326  19.7698884
  67.5577269  59.2217502  20.9187411  77.5192835  69.7968253  18.7626127
  77.9623981  69.0475578  18.3645250  76.6419345  69.7878389  18.3799859
  72.6528616  76.3498594  14.2432725  73.3479521  76.9705287  14.4620040
  72.9951766  75.4993945  14.5185103  58.2696425  68.1716395  28.1029543
  57.5278161  68.3199030  28.6894173  57.9489170  68.4324661  27.2396292
  74.5520039  73.7998300  15.7720056  75.0771363  74.1385572  15.0469376
  74.4642392  72.8645315  15.5883191  66.2140088  77.7132373  27.9009933
  66.5227214  77.4681520  28.7732632  67.0115570  77.9179012  27.4128803
  66.2360700  79.8670283  20.1315309  65.7965690  79.3746662  20.8248166
  66.9868817  79.3243251  19.8907385  58.7153039  76.0581824  20.1339937
  59.5411059  75.7585596  19.7538581  58.3647091  75.2889446  20.5829726
  63.6834572  75.4108292  22.2037611  63.0614581  74.7478997  21.9039839
  64.3539439  75.4369424  21.5211259  56.9161644  73.9768150  21.0928871
  56.0793552  73.5490325  20.9112872  56.8885289  74.1700594  22.0299662
  63.7559100  63.8890080  31.7970117  63.8047255  64.7652203  31.4147887
  64.2981614  63.3467473  31.2241760  74.2413945  74.4331203  31.0771254
  73.4509489  74.4155342  30.5375754  74.0047300  74.9719497  31.8320291
  63.2448079  73.9612215  15.6796072  63.3936199  74.6447680  15.0262744
  64.0514522  73.9417305  16.1945527  71.6515583  67.2654598  29.7063289
  72.5525445  67.1261062  29.4147287  71.7263557  67.4309052  30.6461467
  65.9858388  64.6421452  28.5516476  65.1161697  64.9355018  28.2799064
  66.2217868  65.2261897  29.2723739  75.8630017  73.7020611  28.6346004
  75.5714825  74.0650592  29.4709465  75.2502148  72.9887619  28.4559336
  77.0625699  71.2673491  21.1548575  77.8972591  71.7063295  21.3186135
  77.1984828  70.7912144  20.3356820  74.1117205  68.8253226  27.1026062
  74.5871327  69.0180872  26.2944914  73.1882771  68.8812412  26.8569446
  61.0000712  69.9877393  16.6857141  60.7546754  69.0839723  16.8837351
  61.1696627  69.9894543  15.7436619  68.6897422  60.8601069  26.0681896
  69.2079366  61.5962096  25.7428385  68.3352555  61.1665063  26.9028655
  60.2696360  65.7205751  14.1843302  59.5765604  65.7950105  13.5283338
  60.0248111  64.9566094  14.7064819  68.9410016  57.2801352  21.5882793
  69.2211770  56.6124541  22.2143219  69.7260623  57.4730447  21.0757457
  66.7443485  76.4560346  13.1507819  66.1717452  77.0750533  12.6978291
  67.3176278  77.0059707  13.6847741  72.8118874  65.7018986  25.3354368
  73.7636297  65.8017084  25.3566592  72.6422325  64.9097254  25.8452452
  70.8333254  62.7874569  25.5213769  70.2383186  63.0679582  24.8260257
  70.5482951  63.2768470  26.2930510  69.9640744  76.7397496  14.2816401
  70.8971417  76.6743058  14.4849277  69.8763957  77.5753763  13.8230934
  72.5928761  76.0563366  11.2420349  72.5142393  75.7223230  12.1356107
  73.4138428  76.5485134  11.2411821  75.2906952  68.9225106  24.4496668
  75.2583272  67.9841106  24.6356351  75.9007576  69.0009142  23.7162492
  67.1290283  67.7921159  10.4923872  68.0749388  67.6627367  10.5612290
  66.7504528  67.0535820  10.9693300  75.4401441  65.7136149  24.4954951
  74.9240489  64.9294606  24.3084880  76.3241389  65.3854866  24.6601470
  73.1012168  59.4577165  20.4550763  72.9036989  59.1492253  21.3394095
  73.7111873  60.1838803  20.5848693  81.1083502  69.9841112  23.5902704
  81.8386891  69.7226400  24.1510408  80.4990448  69.2469834  23.6304772
  79.1898799  68.1248975  24.1877156  78.4631963  67.9904940  23.5793647
  78.7746086  68.4325804  24.9933874  67.0128976  71.8438905  31.9524529
  67.9331985  72.0217504  32.1464575  66.9778559  70.8994950  31.8004228
  65.3133200  65.7171135  10.4278757  64.4064656  65.4204248  10.5041470
  65.5909181  65.4200953   9.5613043  56.2311141  67.0377498  20.8777803
  55.9113925  66.1842806  20.5852177  55.6844569  67.2526076  21.6335771
  60.0091048  69.7539939  24.5947310  60.2277058  70.6857047  24.6135344
  60.4216822  69.3947914  25.3802114  66.9295266  60.2608025  16.5822998
  66.1195994  59.9155110  16.9578244  67.6179683  59.9515568  17.1710610
  68.8585814  59.3386071  18.2047295  69.4116853  59.7581525  18.8637318
  69.0955901  58.4121820  18.2470251  64.8818913  65.3273145  33.9850059
  64.7815640  66.2767502  33.9162150  64.6640455  64.9991384  33.1126129
  64.0831985  62.5758070  10.5690736  64.9451149  62.9012968  10.8286553
  64.2682329  61.7889566  10.0563802  56.0999401  70.6580410  22.8470925
  55.4062872  70.2434363  22.3340879  56.8472392  70.7000946  22.2504344
  72.2364621  61.4486597  17.7125959  71.6563290  62.1071401  17.3304011
  71.9700554  60.6263941  17.3013376  70.6868188  60.8491654  19.9147279
  71.1867966  60.9608189  19.1061598  71.3303796  60.5452707  20.5548088
  64.7450184  68.7570284  32.8015120  64.2617265  69.5570644  33.0079009
  64.8311123  68.7678229  31.8482564  58.0136143  70.5898664  20.7236940
  57.9906831  70.6886351  19.7718823  58.3236780  71.4363814  21.0454106
  60.6723521  72.6474819  24.8383554  61.6266775  72.6158761  24.7713486
  60.4736045  72.1865442  25.6533780  61.2622903  71.2175935  27.4054352
  62.0815792  71.7120013  27.4289189  61.5359711  70.3007903  27.3771919
  71.0189499  63.6086687  16.7682307  70.1315354  63.8936338  16.5502502
  71.4343488  63.4480450  15.9209584  74.3704035  63.6333208  20.4836646
  75.1464426  64.1229660  20.7561263  73.6452170  64.0591262  20.9408516
  76.8076594  64.3460827  21.5410587  77.4021085  64.1056563  20.8303895
  76.8803178  63.6267958  22.1684123  59.0273750  78.1894438  21.8553752
  58.8928218  77.4294839  21.2891750  58.6105812  78.9135338  21.3882541
  70.1632713  73.3731362  10.8630327  70.8668563  73.5781364  11.4787983
  69.4395362  73.9408124  11.1279411  70.9930523  69.1241223  16.9832597
  70.9365724  69.5809774  16.1440230  71.5458866  68.3631907  16.8055440
  74.8035329  64.9130955  17.8082717  74.5472263  64.5127590  18.6390925
  74.1788197  65.6274749  17.6832856  79.1147667  67.6527028  20.3154008
  78.5547225  67.7220217  21.0885570  78.5091170  67.4768013  19.5953505
  62.1842876  79.0863755  22.0672195  62.0675260  80.0309188  21.9650885
  61.3635322  78.7837317  22.4557994  72.0719410  73.8113891  12.9128787
  72.9065014  73.3795089  12.7306262  71.9103753  73.6395905  13.8405682
  71.7265302  70.3146004  14.2785127  71.6714106  70.1490276  13.3373571
  71.1011358  71.0222037  14.4347316  56.5157817  65.5514069  28.1046549
  57.1616681  65.0413022  28.5933774  56.3074968  66.2882750  28.6789974
  69.0411210  72.6194916  33.6038689  69.9102369  72.7935568  33.2425324
  68.5617961  73.4389333  33.4814419  65.0361428  59.8154113  13.8570445
  65.0240098  60.7595953  14.0138716  65.9284850  59.6324259  13.5629906
  63.2097390  79.7392017  25.2828123  64.1124636  79.7715627  25.5994618
  62.9834760  78.8092468  25.2974459  64.9650992  78.4923004  21.9438202
  64.0146623  78.4924865  21.8302574  65.2683478  77.7455738  21.4274236
  68.8513547  56.4096890  18.1116382  68.0845943  55.8555376  18.2573064
  69.2624252  56.4818759  18.9730533  60.8555308  62.6981686  32.2021563
  61.7186770  62.3418490  32.4124888  60.2820719  62.3595580  32.8896967
  80.7003685  84.3283542  23.0083964  81.3382095  84.2090289  22.3047304
  80.5824528  85.2764386  23.0671916  77.5093392  84.2810970  22.9445489
  77.1711903  84.1652035  22.0566024  78.3783160  83.8802135  22.9246495
  73.3680207  86.1346446  18.9342380  72.8045072  86.0436383  18.1658667
  73.2532602  85.3146351  19.4144872  77.9913175  85.4345822  28.9031694
  77.9801815  85.0398620  28.0312198  78.1533814  84.7011894  29.4965466
  70.9144639  87.6297638  21.7726600  71.7065931  87.2888463  21.3572899
  71.1541289  87.7392613  22.6928753  78.9479766  89.8017414  14.2456845
  78.2967746  90.3871495  13.8590858  79.7424129  90.3323609  14.3051882
  72.8735393  86.8906551  14.6443979  73.6466269  86.3435538  14.5056855
  73.2260792  87.7550801  14.8558440  74.7120436  88.2182934  27.8510878
  74.4210302  89.1228564  27.7357545  75.3477420  88.2599461  28.5654948
  75.6376643  85.5959782  24.4412238  76.2340215  85.3715804  23.7269201
  75.6951614  84.8544528  25.0437686  75.2101671  83.0499217  12.2762429
  75.4627192  82.5280739  11.5145892  74.2726230  82.8865363  12.3789112
  80.2544954  82.0534996  20.0837172  81.0408043  81.6354419  19.7327589
  80.5183658  82.9581088  20.2518820  80.4255031  87.4907846  14.7825829
  79.7900864  87.5642473  15.4946734  80.0952438  88.0801445  14.1044908
  85.6553381  81.9910229  20.9870151  86.3878553  81.4209446  21.2207980
  84.8992737  81.6031829  21.4276656  74.9297960  84.9527323  14.4786804
  74.8134218  84.2772227  15.1467888  75.0400220  84.4659697  13.6618957
  77.2729501  84.4137470  18.1833493  76.9087708  83.8868091  18.8946415
  78.1296617  84.0235940  18.0099978  83.1778801  75.7031803  25.4464759
  82.8462126  76.5727214  25.2225974  82.5824415  75.3868087  26.1258790
  76.9134988  79.4427370  13.1794842  77.0809390  80.3107607  13.5465313
  76.7232157  79.6054652  12.2556131  79.6710321  87.9044349  24.8460672
  79.3711044  88.8069388  24.7376479  79.3261380  87.6376532  25.6981825
  73.1222802  84.3558146  20.8797376  72.1973299  84.2234360  21.0875068
  73.3707215  85.1352365  21.3767319  83.0707465  80.4226889  22.5258109
  82.1624342  80.3542298  22.2316870  83.0195060  80.8998834  23.3539935
  76.8924208  81.8985028  14.1641508  76.7723834  82.3442078  15.0026989
  76.1976797  82.2470345  13.6055047  70.4831613  83.9991419  21.7141165
  70.6123994  84.2525898  22.6280577  69.8029065  84.5919127  21.3945820
  74.6531101  94.6688669  17.8131640  74.5755130  95.6196495  17.8920120
  74.0492744  94.3234542  18.4706566  77.1448330  81.8416535  30.4693007
  76.3681664  82.4010455  30.4595871  77.7838893  82.3273318  30.9907877
  84.9369111  78.6243328  24.3035983  84.2943491  78.9175861  23.6575778
  84.4324040  78.5096248  25.1089180  82.5909275  82.3706501  14.9921842
  83.5027131  82.6033888  14.8169540  82.0818922  82.9543545  14.4296921
  75.3994703  84.6501988  30.0310974  76.1409387  85.1887032  29.7545797
  74.6931688  85.2768277  30.1882525  80.8750042  86.7931129  28.6283135
  81.2833398  86.3513539  27.8837767  80.1527304  86.2183756  28.8817328
  77.2281112  81.7303735  26.0016692  78.0742308  82.1543149  26.1451341
  77.1679750  81.0737360  26.6955255  81.1978857  87.3532319  22.3835424
  80.5687719  87.5178033  21.6811492  80.8104519  87.7673929  23.1546388
  85.0768089  88.2886757  19.7379788  84.3919127  88.6685659  19.1876821
  85.1611938  88.8982084  20.4711735  80.3780558  79.3908104  27.6597866
  80.1341490  80.1450164  27.1232141  80.6540488  79.7693451  28.4945113
  82.3319020  85.9346716  26.3375131  82.5435916  86.5778476  25.6609512
  82.2848769  85.1009033  25.8697061  79.9345249  78.5464537  23.2411703
  79.0729728  78.8445790  23.5328441  79.9607684  78.7634936  22.3092736
  76.7506819  87.0906727  19.6485509  77.2145164  87.3694430  18.8590131
  76.4863617  86.1890172  19.4658600  73.6430900  86.6378209  22.5865272
  74.2132257  87.0665477  21.9482757  74.2339012  86.3560794  23.2849458
  75.6875705  83.2129880  16.4575074  76.3899748  83.6650923  16.9249000
  75.3556333  82.5713699  17.0854967  74.1356066  81.8041636  30.8326284
  73.5054727  82.4857917  31.0661680  74.0292154  81.6924718  29.8879422
  69.4301039  81.4713432  21.7592208  68.6400093  81.7270961  21.2832318
  69.9212286  82.2861770  21.8644248  83.4464848  88.8118672  24.5097489
  84.2682292  88.4098859  24.2280170  83.4427251  88.7086906  25.4613604
  71.3815784  81.8358012  18.7175684  70.5846947  81.9476706  19.2359180
  71.1541376  82.1744664  17.8516575  77.2121452  88.3602715  26.6658199
  77.2765884  88.8223122  27.5016371  76.5032376  87.7300080  26.7940509
  67.7138742  81.7243923  24.1907198  67.9646780  82.6090933  24.4564774
  68.2498290  81.5448524  23.4182290  91.5370841  85.1557420  20.8582460
  90.7834550  84.5864818  20.7026464  91.6718383  85.1220085  21.8053095
  76.9269469  90.0270822  16.5337179  76.7915144  90.8722358  16.9622027
  77.4679282  90.2290100  15.7703113  73.4136809  76.1062402  33.1951535
  73.0203755  75.5528601  33.8699179  74.2302949  76.4172981  33.5858052
  70.3798867  87.5446260  17.1065104  70.8923387  88.3389511  17.2570669
  71.0321580  86.8472551  17.0398706  72.1893752  90.6612017  19.1887858
  72.3660380  91.5829981  19.0008841  72.9850585  90.3470436  19.6182237
  76.3304770  77.5220281  30.7871791  77.0714483  78.1227434  30.7076254
  76.5622693  76.7797919  30.2289834  71.4746108  82.7076649  29.0650021
  71.3599623  81.8061906  29.3657120  70.6190626  82.9540345  28.7134837
  78.5537946  90.6494389  30.6637521  78.1101800  89.8630767  30.3458426
  79.2155159  90.8373539  29.9981412  73.3125067  92.1790190  25.1898200
  73.8632492  92.0507254  24.4175194  72.4736543  92.4785080  24.8393093
  80.6519184  90.9297189  28.6918923  80.6337659  91.7506070  28.1999192
  81.5739104  90.8051264  28.9169064  77.1092238  88.4441318  29.5342431
  77.6420575  87.6829606  29.3041739  76.5806319  88.1514970  30.2766586
  80.2761933  73.5501384  25.0636073  79.9326202  74.4403026  24.9875183
  80.6440896  73.3603042  24.2005658  68.3447784  85.8734915  17.8824675
  69.1823006  86.2831923  17.6658383  68.5226051  84.9334357  17.8524869
  80.2412216  83.5409995  13.5708508  79.7258839  84.3114600  13.8096895
  79.9689524  82.8675132  14.1941569  77.8259327  78.3859696  18.6293746
  76.9700923  77.9966547  18.4499385  78.2386279  78.4651657  17.7693532
  79.3558473  75.9206039  23.0285306  78.8523269  75.8836175  22.2153111
  79.6489080  76.8298782  23.0881963  75.6001359  76.0044769  22.0351488
  76.4654356  75.8087578  21.6757377  75.6678868  75.7755121  22.9620845
  85.2146490  86.2942350  15.5061681  84.4375933  85.9553510  15.0616843
  85.8937971  86.2994973  14.8316646  80.0298519  81.4137087  15.3968289
  79.7248655  81.7283237  16.2478432  80.9828961  81.4918507  15.4395622
  78.4744951  87.5727311  17.0461243  77.9466312  86.8380070  16.7334481
  77.9732454  88.3501987  16.8001211  83.4537797  85.7676331  22.1628289
  82.7961471  86.4575593  22.2508418  84.2578196  86.1572763  22.5062276
  73.2063678  78.2346977  19.4067855  73.7807430  78.0122159  18.6741048
  73.7934661  78.3035672  20.1596456  82.2643256  84.1220704  20.2132231
  82.7775137  84.7550696  20.7153941  82.9144480  83.5221899  19.8475591
  73.5333266  80.2651438  13.4263740  72.6970578  80.6026125  13.7473015
  73.3938035  80.1300418  12.4890877  75.5086346  75.1088226  18.1342924
  74.8550758  74.7937243  17.5099539  75.4666820  74.4863966  18.8602747
  76.6197551  85.3907521  10.0496216  75.7124613  85.1596775  10.2487365
  77.1168583  84.5945140  10.2370198  78.7424086  81.5970160  22.4590572
  77.8246648  81.8185107  22.3012260  79.1584230  81.6716470  21.6002279
  79.5259134  82.9961575  17.5893252  80.2730953  83.5082972  17.2800374
  79.7950724  82.6745628  18.4497645  77.7985784  85.4920116  14.5720206
  76.8897004  85.2079149  14.6692676  77.8280868  85.9119194  13.7123513
  83.0305052  89.1026705  18.3411374  82.5767379  88.2617615  18.3976564
  82.3999019  89.7388104  18.6786154  81.9737971  80.0318691  19.5712041
  81.2360728  79.5196078  19.9022284  82.2264745  79.5919073  18.7595318
  81.4737991  90.9403202  19.2761192  81.7660965  91.5008259  18.5573558
  81.9836612  91.2331763  20.0314351  82.0749599  72.8094943  20.1653810
  82.3808476  71.9492307  19.8779726  82.8002204  73.4012564  19.9652804
  68.3673955  83.2125630  18.5535408  68.1698355  82.6194991  17.8286475
  67.8120619  82.9077840  19.2711347  76.3470678  83.1048737  20.6730002
  76.4019288  82.1522573  20.5972478  75.5361880  83.2608176  21.1571300
  77.4961872  87.0328860  11.9108285  77.0581302  86.3164719  11.4513922
  78.2372313  87.2604974  11.3493376  74.2863038  81.7225796  18.4320380
  73.4730904  82.0219967  18.8385573  74.7822033  81.3281485  19.1494863
  76.4371616  91.7183553  20.3654645  76.3947795  91.9444400  19.4363177
  77.3534315  91.4846928  20.5140446  79.8837250  82.1867621  27.2635274
  80.2386638  82.4139094  28.1229740  80.5309381  82.5185998  26.6412530
  85.6134987  85.3086057  17.9684603  85.4752886  85.4987653  17.0405793
  85.2571206  86.0705439  18.4252654  73.7777113  79.2944152  24.0481615
  74.4176492  79.1532911  23.3504579  72.9454644  79.0078665  23.6720217
  85.6404367  87.3762584  22.9795875  86.0740873  87.2837873  23.8278929
  86.3535947  87.3520084  22.3415891  74.5537417  88.5946582  20.1616608
  75.3478016  88.0996902  19.9599183  73.8429109  88.0664445  19.7984313
  79.3732262  90.9764678  24.5128975  79.4269284  91.5455614  25.2806691
  78.5047043  91.1466563  24.1483013  70.8620181  82.7389664  16.2376361
  69.9317769  82.6774119  16.4546323  70.9577653  82.2165617  15.4413002
  70.7805730  79.2644477  18.8254602  71.0412547  80.1789810  18.7163763
  71.6022902  78.7968919  18.9751215  72.2530655  80.6782234  25.9953427
  72.9253708  80.4699596  25.3466076  71.4260441  80.4804320  25.5558659
  86.5019916  87.4186284  25.5128760  86.6955806  88.3232095  25.7588035
  86.4020534  86.9593703  26.3467345  78.1556227  77.3044175  28.0119088
  77.5084142  78.0034125  27.9183564  78.9257242  77.7380319  28.3795336
  81.5635025  87.5693027  31.0869641  81.4120531  87.3403579  30.1699725
  81.5539704  88.5263628  31.1000986  78.3320361  85.1424940  26.0715907
  79.2612421  85.2936099  25.8984875  77.9111391  85.2308961  25.2164554
  77.1308693  89.1675604  23.8414445  76.9919779  88.7994389  24.7140383
  76.3423289  89.6823244  23.6698403  77.7256845  94.2684701  15.1839981
  77.9008601  93.7972744  15.9985604  77.0389633  94.8950467  15.4121242
  78.6813908  88.5457207  21.2303283  78.3463741  88.5057977  22.1260933
  78.1817854  87.8801923  20.7573693  72.6558152  83.9524837  26.7555864
  72.5177950  83.2205076  27.3567403  73.5663076  83.8633737  26.4740052
  81.6173100  85.8913241  11.5040342  81.0002270  85.1660069  11.4073395
  81.1489588  86.6522602  11.1607417  75.2840453  83.6644796  26.2439544
  75.9940071  83.0237988  26.2026162  75.2409761  83.9157691  27.1665724
  83.2727231  90.6012150  29.1646123  83.2139778  89.9171370  28.4976706
  83.6746750  91.3431140  28.7126749  73.9969387  80.6510014  28.0635183
  73.4606744  80.2000753  28.7156779  73.4086095  80.7855923  27.3205647
  72.2917930  97.4174063  21.9579842  72.5314529  98.0492588  22.6358860
  71.4487127  97.0662103  22.2445201  73.4071646  80.1098666  10.6261647
  72.5301112  79.9887466  10.2623893  73.8829399  79.3184744  10.3740535
  83.2744639  88.5651734  27.3960102  82.3871418  88.2277655  27.5186501
  83.8443190  87.8334765  27.6328868  64.9273786  84.8975825  20.7203154
  65.6144826  84.5837555  20.1324169  64.7721915  85.8017190  20.4470405
  69.7308508  79.7866022  25.1488177  69.6466697  79.1791691  24.4138587
  68.9091214  80.2775040  25.1497674  76.8045792  93.2253186  24.3621346
  76.7315964  94.0308157  24.8740650  76.3623185  93.4245152  23.5369367
  76.5935572  92.4624956  17.8724167  75.8103094  93.0046636  17.9662392
  77.2928317  92.9798936  18.2718408  79.9032222  78.2719585  20.5158373
  80.4000921  77.5189548  20.1959443  79.1319203  78.3083902  19.9501582
  87.7561979  83.9759951  22.1576664  87.7451856  84.8584666  21.7870597
  86.8879359  83.6231502  21.9631201  79.2644476  93.1240020  26.5179504
  79.9772448  93.7587485  26.4455406  78.7734504  93.2203886  25.7019506
  80.9862003  87.0291273  18.0896796  80.0518281  87.1492735  17.9201500
  81.1638671  86.1263739  17.8256806  76.4867191  80.4136968  20.2430057
  76.1164978  79.8608009  20.9310963  76.9826283  79.8095102  19.6905057
  84.3734554  82.8708592  18.6246830  84.8395006  83.7036583  18.5507133
  84.8242054  82.4053573  19.3292089  74.3156389  90.8734463  27.3385075
  75.0165849  91.5070946  27.4914469  73.8451504  91.2149195  26.5780714
  82.4410785  89.2152413  15.6232982  82.7170629  89.1009008  16.5326856
  81.5715284  88.8169898  15.5845155  82.3451217  75.2389179  22.6637731
  81.4314296  75.4693406  22.8319938  82.7744318  75.3227623  23.5151764
  82.1157675  83.4279071  25.1637625  81.4629125  83.6754978  24.5090078
  82.4938055  82.6143209  24.8300103  79.0764849  93.4638764  19.2665796
  79.2587244  92.6460420  19.7293548  79.8997835  93.6806456  18.8290686
  79.4107015  92.3906949  16.5280844  79.9394781  91.8799404  15.9151006
  79.6735234  92.0749479  17.3926377  78.1645248  84.1698882  31.6503663
  77.4885885  84.0693011  32.3206038  78.9872882  84.0138096  32.1139660
  69.9124107  90.4070818  24.2716178  70.4977544  89.6614506  24.4044082
  69.7148946  90.7174775  25.1552842  72.7662762  93.4422066  19.2878620
  72.0973138  93.9268193  18.8042660  72.6275632  93.6891286  20.2021999
  64.5041762  82.9776419  22.9920621  64.5425862  82.4440009  23.7857739
  63.9982055  82.4511624  22.3731598  76.9068031  95.4765809  25.8861279
  77.4586339  95.6397431  26.6510364  77.2474225  96.0670247  25.2141303
  71.8832524  77.8240959  26.4883163  71.9473851  78.6855790  26.0760561
  71.8199645  77.2114961  25.7555522  71.3584797  79.8964092  30.1356197
  71.9856836  79.5141169  30.7493722  70.5012716  79.6778294  30.5011890
  81.7578905  90.3027067  31.7409933  82.3018809  90.9157025  31.2464888
  81.1765750  90.8606645  32.2576946  68.1350340  81.7040521  16.0674552
  68.4303781  80.7951199  16.0141606  67.2338375  81.6828260  15.7455555
  80.0436418  93.4247785  22.8724961  79.9187558  92.6237525  22.3635906
  80.7015509  93.9193978  22.3838931  71.6644587  79.7796517  22.0502101
  70.9431172  80.3932485  21.9109574  72.4537842  80.3154282  21.9718747
  82.1071327  91.2256805  24.5004511  81.1601662  91.1062156  24.4282837
  82.4554100  90.3379303  24.5830772  74.4670900  77.1150944  28.3242753
  74.9905302  77.3613240  29.0869062  74.2483233  77.9470979  27.9045890
  69.8638181  79.3854618  16.1913877  69.5350887  78.5051997  16.0088983
  70.2177552  79.3302287  17.0790267  79.1117760  91.0209521  20.7008863
  78.9642722  90.0926229  20.8816433  79.9371254  91.0429612  20.2165938
  72.9780004  79.6727588  16.5589355  73.3176077  80.2013509  15.8367963
  73.4252125  80.0107994  17.3347922  82.7151882  91.8438080  21.7873736
  83.6398429  91.6380941  21.6498187  82.5467185  91.5954481  22.6963077
  75.6723445  78.0564639  26.0092423  75.3320266  77.2572452  26.4113103
  74.9662451  78.3566350  25.4369256  76.3239917  75.1413951  24.4619746
  77.1465986  74.6674430  24.3398637  76.5677981  75.9204435  24.9618433
  74.9648151  78.1702210  14.7582648  75.6856514  78.5483463  14.2546365
  74.3413456  78.8891087  14.8617626  79.1079274  78.8747359  15.6940980
  79.3242889  79.7571997  15.3929808  78.6273342  78.4833572  14.9646622
  73.8478496  81.8333072  22.2711725  73.7023076  82.1473375  23.1636006
  73.3703699  82.4517972  21.7182623  75.7074879  78.8235620  22.3192614
  75.6936447  77.9276713  21.9824912  76.4247307  78.8306284  22.9530900
  77.5601009  79.2572960  24.3645742  77.3018787  80.1790031  24.3630072
  77.0286050  78.8603395  25.0546206  82.5047198  92.3623747  17.1435827
  82.6784076  91.7970170  16.3909680  82.9976089  93.1624642  16.9615317
  68.3224158  84.3738416  25.2099386  67.7777626  85.1498224  25.3419660
  69.2003508  84.7209221  25.0518507  75.1111775  77.7050000  17.5880185
  75.2327686  76.7766646  17.7871072  74.8213817  77.7188686  16.6758500
  77.9802965  75.3904911  20.7246904  78.0024662  75.4544244  19.7698884
  78.3971024  74.5509419  20.9187411  88.3586589  85.1260170  18.7626127
  88.8017735  84.3767495  18.3645250  87.4813100  85.1170307  18.3799859
  83.4922371  91.6790512  14.2432725  84.1873275  92.2997204  14.4620040
  83.8345521  90.8285863  14.5185103  69.1090180  83.5008313  28.1029543
  68.3671916  83.6490948  28.6894173  68.7882924  83.7616578  27.2396292
  85.3913794  89.1290217  15.7720056  85.9165118  89.4677490  15.0469376
  85.3036146  88.1937233  15.5883191  77.0533842  93.0424291  27.9009933
  77.3620969  92.7973438  28.7732632  77.8509324  93.2470929  27.4128803
  77.0754454  95.1962201  20.1315309  76.6359445  94.7038579  20.8248166
  77.8262571  94.6535168  19.8907385  69.5546793  91.3873741  20.1339937
  70.3804813  91.0877513  19.7538581  69.2040845  90.6181364  20.5829726
  74.5228327  90.7400210  22.2037611  73.9008336  90.0770915  21.9039839
  75.1933194  90.7661342  21.5211259  67.7555398  89.3060068  21.0928871
  66.9187307  88.8782242  20.9112872  67.7279044  89.4992511  22.0299662
  74.5952854  79.2181998  31.7970117  74.6441010  80.0944120  31.4147887
  75.1375368  78.6759391  31.2241760  85.0807700  89.7623121  31.0771254
  84.2903243  89.7447260  30.5375754  84.8441054  90.3011415  31.8320291
  85.2005575  86.6115587  28.3903983  85.2503580  86.4465595  29.3319506
  85.0919498  85.7442846  28.0001864  74.0841834  89.2904133  15.6796072
  74.2329954  89.9739597  15.0262744  74.8908277  89.2709223  16.1945527
  82.4909337  82.5946515  29.7063289  83.3919200  82.4552980  29.4147287
  82.5657312  82.7600970  30.6461467  76.8252143  79.9713370  28.5516476
  75.9555452  80.2646936  28.2799064  77.0611623  80.5553815  29.2723739
  86.7023772  89.0312529  28.6346004  86.4108580  89.3942509  29.4709465
  86.0895903  88.3179537  28.4559336  87.9019454  86.5965409  21.1548575
  88.7366345  87.0355213  21.3186135  88.0378583  86.1204062  20.3356820
  84.9510960  84.1545143  27.1026062  85.4265081  84.3472790  26.2944914
  84.0276525  84.2104329  26.8569446  71.8394466  85.3169311  16.6857141
  71.5940508  84.4131641  16.8837351  72.0090381  85.3186461  15.7436619
  79.5291176  76.1892987  26.0681896  80.0473120  76.9254014  25.7428385
  79.1746309  76.4956980  26.9028655  71.1090114  81.0497668  14.1843302
  70.4159359  81.1242023  13.5283338  70.8641866  80.2858012  14.7064819
  79.7803771  72.6093270  21.5882793  80.0605524  71.9416459  22.2143219
  80.5654377  72.8022365  21.0757457  77.5837239  91.7852263  13.1507819
  77.0111206  92.4042451  12.6978291  78.1570033  92.3351625  13.6847741
  83.6512629  81.0310904  25.3354368  84.6030052  81.1309001  25.3566592
  83.4816079  80.2389172  25.8452452  81.6727008  78.1166487  25.5213769
  81.0776940  78.3971499  24.8260257  81.3876705  78.6060388  26.2930510
  80.8034499  92.0689414  14.2816401  81.7365172  92.0034975  14.4849277
  80.7157712  92.9045680  13.8230934  86.1300707  84.2517023  24.4496668
  86.0977027  83.3133024  24.6356351  86.7401330  84.3301060  23.7162492
  77.9684038  83.1213076  10.4923872  78.9143142  82.9919284  10.5612290
  77.5898282  82.3827738  10.9693300  86.2795195  81.0428067  24.4954951
  85.7634244  80.2586523  24.3084880  87.1635144  80.7146783  24.6601470
  83.9405922  74.7869082  20.4550763  83.7430743  74.4784170  21.3394095
  84.5505628  75.5130721  20.5848693  91.9477257  85.3133030  23.5902704
  92.6780645  85.0518318  24.1510408  91.3384202  84.5761752  23.6304772
  90.0292554  83.4540893  24.1877156  89.3025717  83.3196858  23.5793647
  89.6139841  83.7617721  24.9933874  77.8522730  87.1730822  31.9524529
  78.7725740  87.3509421  32.1464575  77.8172313  86.2286868  31.8004228
  76.1526955  81.0463053  10.4278757  75.2458410  80.7496165  10.5041470
  76.4302936  80.7492871   9.5613043  67.0704895  82.3669416  20.8777803
  66.7507679  81.5134724  20.5852177  66.5238323  82.5817994  21.6335771
  70.8484803  85.0831857  24.5947310  71.0670812  86.0148965  24.6135344
  71.2610576  84.7239831  25.3802114  77.7689020  75.5899942  16.5822998
  76.9589749  75.2447027  16.9578244  78.4573437  75.2807486  17.1710610
  79.6979569  74.6677989  18.2047295  80.2510607  75.0873443  18.8637318
  79.9349655  73.7413737  18.2470251  75.7212668  80.6565063  33.9850059
  75.6209395  81.6059420  33.9162150  75.5034210  80.3283302  33.1126129
  74.9225739  77.9049988  10.5690736  75.7844903  78.2304886  10.8286553
  75.1076083  77.1181484  10.0563802  66.9393155  85.9872327  22.8470925
  66.2456627  85.5726280  22.3340879  67.6866146  86.0292864  22.2504344
  83.0758376  76.7778514  17.7125959  82.4957045  77.4363318  17.3304011
  82.8094308  75.9555859  17.3013376  81.5261942  76.1783572  19.9147279
  82.0261721  76.2900106  19.1061598  82.1697550  75.8744625  20.5548088
  75.5843938  84.0862202  32.8015120  75.1011020  84.8862562  33.0079009
  75.6704877  84.0970146  31.8482564  68.8529898  85.9190581  20.7236940
  68.8300586  86.0178269  19.7718823  69.1630534  86.7655732  21.0454106
  71.5117275  87.9766736  24.8383554  72.4660529  87.9450679  24.7713486
  71.3129799  87.5157360  25.6533780  72.1016658  86.5467852  27.4054352
  72.9209547  87.0411931  27.4289189  72.3753465  85.6299820  27.3771919
  81.8583254  78.9378605  16.7682307  80.9709109  79.2228255  16.5502502
  82.2737243  78.7772368  15.9209584  85.2097790  78.9625126  20.4836646
  85.9858180  79.4521578  20.7561263  84.4845924  79.3883180  20.9408516
  87.6470349  79.6752745  21.5410587  88.2414839  79.4348481  20.8303895
  87.7196932  78.9559875  22.1684123  69.8667504  93.5186356  21.8553752
  69.7321972  92.7586757  21.2891750  69.4499567  94.2427256  21.3882541
  81.0026467  88.7023279  10.8630327  81.7062317  88.9073282  11.4787983
  80.2789116  89.2700041  11.1279411  81.8324278  84.4533141  16.9832597
  81.7759479  84.9101692  16.1440230  82.3852620  83.6923825  16.8055440
  85.6429083  80.2422872  17.8082717  85.3866018  79.8419508  18.6390925
  85.0181952  80.9566666  17.6832856  89.9541421  82.9818946  20.3154008
  89.3940979  83.0512135  21.0885570  89.3484925  82.8059930  19.5953505
  73.0236630  94.4155673  22.0672195  72.9069014  95.3601105  21.9650885
  72.2029076  94.1129234  22.4557994  82.9113165  89.1405808  12.9128787
  83.7458769  88.7087007  12.7306262  82.7497508  88.9687822  13.8405682
  82.5659057  85.6437922  14.2785127  82.5107861  85.4782193  13.3373571
  81.9405112  86.3513955  14.4347316  67.3551572  80.8805986  28.1046549
  68.0010435  80.3704940  28.5933774  67.1468723  81.6174668  28.6789974
  79.8804964  87.9486834  33.6038689  80.7496124  88.1227486  33.2425324
  79.4011716  88.7681250  33.4814419  75.8755182  75.1446031  13.8570445
  75.8633852  76.0887871  14.0138716  76.7678604  74.9616176  13.5629906
  74.0491144  95.0683935  25.2828123  74.9518391  95.1007545  25.5994618
  73.8228514  94.1384386  25.2974459  75.8044746  93.8214921  21.9438202
  74.8540377  93.8216783  21.8302574  76.1077232  93.0747656  21.4274236
  79.6907302  71.7388807  18.1116382  78.9239698  71.1847294  18.2573064
  80.1018007  71.8110676  18.9730533  71.6949063  78.0273603  32.2021563
  72.5580524  77.6710408  32.4124888  71.1214474  77.6887498  32.8896967
  91.5397440  99.6575460  23.0083964  92.1775850  99.5382207  22.3047304
  91.4218283 100.6056304  23.0671916  88.3487146  99.6102888  22.9445489
  88.0105658  99.4943952  22.0566024  89.2176914  99.2094053  22.9246495
  88.8306929 100.7637739  28.9031694  88.8195570 100.3690538  28.0312198
  88.9927569 100.0303812  29.4965466  81.7538394 102.9589556  21.7726600
  82.5459686 102.6180380  21.3572899  81.9935044 103.0684531  22.6928753
  85.5514190 103.5474851  27.8510878  85.2604056 104.4520482  27.7357545
  86.1871175 103.5891379  28.5654948  86.4770397 100.9251700  24.4412238
  87.0733969 100.7007722  23.7269201  86.5345369 100.1836445  25.0437686
  91.0938708  97.3826913  20.0837172  91.8801797  96.9646337  19.7327589
  91.3577413  98.2873006  20.2518820  94.0172556  91.0323721  25.4464759
  93.6855881  91.9019132  25.2225974  93.4218169  90.7160005  26.1258790
  90.5104075 103.2336267  24.8460672  90.2104798 104.1361306  24.7376479
  90.1655135 102.9668450  25.6981825  83.9616557  99.6850064  20.8797376
  83.0367053  99.5526278  21.0875068  84.2100970 100.4644283  21.3767319
  93.9101219  95.7518807  22.5258109  93.0018096  95.6834215  22.2316870
  93.8588815  96.2290752  23.3539935  81.3225368  99.3283337  21.7141165
  81.4517749  99.5817816  22.6280577  80.6422819  99.9211045  21.3945820
  87.9842085  97.1708453  30.4693007  87.2075419  97.7302373  30.4595871
  88.6232648  97.6565236  30.9907877  95.7762865  93.9535245  24.3035983
  95.1337246  94.2467778  23.6575778  95.2717794  93.8388166  25.1089180
  86.2388457  99.9793906  30.0310974  86.9803142 100.5178950  29.7545797
  85.5325443 100.6060195  30.1882525  91.7143797 102.1223046  28.6283135
  92.1227153 101.6805457  27.8837767  90.9921058 101.5475674  28.8817328
  88.0674867  97.0595653  26.0016692  88.9136062  97.4835067  26.1451341
  88.0073505  96.4029277  26.6955255  91.2174312  94.7200021  27.6597866
  90.9735244  95.4742082  27.1232141  91.4934243  95.0985369  28.4945113
  93.1712775 101.2638634  26.3375131  93.3829670 101.9070394  25.6609512
  93.1242523 100.4300950  25.8697061  90.7739004  93.8756455  23.2411703
  89.9123483  94.1737708  23.5328441  90.8001439  94.0926853  22.3092736
  84.4824654 101.9670127  22.5865272  85.0526011 102.3957395  21.9482757
  85.0732766 101.6852711  23.2849458  84.9749821  97.1333554  30.8326284
  84.3448481  97.8149835  31.0661680  84.8685909  97.0216636  29.8879422
  80.2694793  96.8005350  21.7592208  79.4793847  97.0562879  21.2832318
  80.7606041  97.6153688  21.8644248  82.2209539  97.1649929  18.7175684
  81.4240702  97.2768624  19.2359180  81.9935131  97.5036582  17.8516575
  88.0515206 103.6894633  26.6658199  88.1159639 104.1515040  27.5016371
  87.3426130 103.0591997  26.7940509  78.5532496  97.0535841  24.1907198
  78.8040535  97.9382850  24.4564774  79.0892045  96.8740442  23.4182290
  84.2530564  91.4354320  33.1951535  83.8597509  90.8820518  33.8699179
  85.0696704  91.7464898  33.5858052  87.1698525  92.8512199  30.7871791
  87.9108238  93.4519352  30.7076254  87.4016447  92.1089837  30.2289834
  82.3139863  98.0368566  29.0650021  82.1993378  97.1353823  29.3657120
  81.4584380  98.2832263  28.7134837  89.3931700 105.9786307  30.6637521
  88.9495555 105.1922685  30.3458426  90.0548914 106.1665457  29.9981412
  84.1518822 107.5082108  25.1898200  84.7026247 107.3799172  24.4175194
  83.3130297 107.8076997  24.8393093  91.4912938 106.2589107  28.6918923
  91.4731414 107.0797988  28.1999192  92.4132858 106.1343182  28.9169064
  87.9485993 103.7733236  29.5342431  88.4814329 103.0121524  29.3041739
  87.4200074 103.4806888  30.2766586  91.1155688  88.8793302  25.0636073
  90.7719957  89.7694944  24.9875183  91.4834650  88.6894960  24.2005658
  79.1841538 101.2026832  17.8824675  80.0216760 101.6123841  17.6658383
  79.3619806 100.2626275  17.8524869  88.6653081  93.7151614  18.6293746
  87.8094678  93.3258464  18.4499385  89.0780033  93.7943575  17.7693532
  90.1952228  91.2497957  23.0285306  89.6917024  91.2128092  22.2153111
  90.4882835  92.1590700  23.0881963  86.4395114  91.3336687  22.0351488
  87.3048111  91.1379496  21.6757377  86.5072623  91.1047039  22.9620845
  84.0457433  93.5638895  19.4067855  84.6201185  93.3414076  18.6741048
  84.6328415  93.6327589  20.1596456  86.3480101  90.4380144  18.1342924
  85.6944513  90.1229161  17.5099539  86.3060575  89.8155884  18.8602747
  89.5817841  96.9262077  22.4590572  88.6640402  97.1477024  22.3012260
  89.9977985  97.0008388  21.6002279  92.9143353  88.1386861  20.1653810
  93.2202230  87.2784225  19.8779726  93.6395958  88.7304481  19.9652804
  79.2067709  98.5417548  18.5535408  79.0092109  97.9486908  17.8286475
  78.6514373  98.2369758  19.2711347  87.1864433  98.4340654  20.6730002
  87.2413043  97.4814491  20.5972478  86.3755635  98.5900093  21.1571300
  85.1256793  97.0517714  18.4320380  84.3124658  97.3511884  18.8385573
  85.6215787  96.6573403  19.1494863  90.7231005  97.5159538  27.2635274
  91.0780392  97.7431012  28.1229740  91.3703136  97.8477915  26.6412530
  84.6170868  94.6236069  24.0481615  85.2570247  94.4824829  23.3504579
  83.7848398  94.3370583  23.6720217  90.2126016 106.3056595  24.5128975
  90.2663038 106.8747532  25.2806691  89.3440797 106.4758480  24.1483013
  81.6199484  94.5936394  18.8254602  81.8806301  95.5081728  18.7163763
  82.4416656  94.1260837  18.9751215  83.0924409  96.0074152  25.9953427
  83.7647463  95.7991514  25.3466076  82.2654196  95.8096238  25.5558659
  88.9949981  92.6336093  28.0119088  88.3477896  93.3326042  27.9183564
  89.7650997  93.0672236  28.3795336  92.4028779 102.8984945  31.0869641
  92.2514286 102.6695496  30.1699725  92.3933459 103.8555546  31.1000986
  89.1714116 100.4716857  26.0715907  90.1006176 100.6228017  25.8984875
  88.7505146 100.5600878  25.2164554  87.9702448 104.4967522  23.8414445
  87.8313533 104.1286306  24.7140383  87.1817044 105.0115161  23.6698403
  83.4951907  99.2816755  26.7555864  83.3571705  98.5496993  27.3567403
  84.4056830  99.1925655  26.4740052  86.1234207  98.9936714  26.2439544
  86.8333826  98.3529906  26.2026162  86.0803515  99.2449609  27.1665724
  94.1120986 105.9304067  29.1646123  94.0533532 105.2463287  28.4976706
  94.5140504 106.6723057  28.7126749  84.8363141  95.9801932  28.0635183
  84.3000498  95.5292670  28.7156779  84.2479850  96.1147841  27.3205647
  94.1138393 103.8943651  27.3960102  93.2265172 103.5569573  27.5186501
  94.6836944 103.1626682  27.6328868  75.7667540 100.2267743  20.7203154
  76.4538580  99.9129473  20.1324169  75.6115669 101.1309108  20.4470405
  80.5702263  95.1157940  25.1488177  80.4860451  94.5083609  24.4138587
  79.7484969  95.6066958  25.1497674  90.7425976  93.6011503  20.5158373
  91.2394676  92.8481465  20.1959443  89.9712958  93.6375820  19.9501582
  90.1038230 108.4531938  26.5179504  90.8166202 109.0879402  26.4455406
  89.6128259 108.5495804  25.7019506  87.3260945  95.7428886  20.2430057
  86.9558733  95.1899926  20.9310963  87.8220038  95.1387020  19.6905057
  85.1550144 106.2026381  27.3385075  85.8559603 106.8362864  27.4914469
  84.6845259 106.5441113  26.5780714  93.1844971  90.5681097  22.6637731
  92.2708051  90.7985323  22.8319938  93.6138073  90.6519541  23.5151764
  92.9551430  98.7570988  25.1637625  92.3022880  99.0046896  24.5090078
  93.3331810  97.9435127  24.8300103  89.0039003  99.4990800  31.6503663
  88.3279640  99.3984929  32.3206038  89.8266637  99.3430013  32.1139660
  80.7517862 105.7362736  24.2716178  81.3371299 104.9906424  24.4044082
  80.5542700 106.0466693  25.1552842  75.3435517  98.3068336  22.9920621
  75.3819616  97.7731927  23.7857739  74.8375809  97.7803542  22.3731598
  82.7226279  93.1532877  26.4883163  82.7867605  94.0147708  26.0760561
  82.6593399  92.5406878  25.7555522  82.1978551  95.2256009  30.1356197
  82.8250590  94.8433087  30.7493722  81.3406470  95.0070211  30.5011890
  92.5972660 105.6318985  31.7409933  93.1412564 106.2448943  31.2464888
  92.0159505 106.1898563  32.2576946  78.9744094  97.0332438  16.0674552
  79.2697535  96.1243117  16.0141606  78.0732130  97.0120178  15.7455555
  82.5038341  95.1088435  22.0502101  81.7824927  95.7224403  21.9109574
  83.2931597  95.6446200  21.9718747  85.3064655  92.4442862  28.3242753
  85.8299056  92.6905158  29.0869062  85.0876988  93.2762896  27.9045890
  80.7031936  94.7146536  16.1913877  80.3744642  93.8343915  16.0088983
  81.0571306  94.6594205  17.0790267  83.8173759  95.0019506  16.5589355
  84.1569831  95.5305427  15.8367963  84.2645879  95.3399912  17.3347922
  86.5117200  93.3856557  26.0092423  86.1714020  92.5864370  26.4113103
  85.8056206  93.6858267  25.4369256  87.1633671  90.4705869  24.4619746
  87.9859741  89.9966347  24.3398637  87.4071735  91.2496353  24.9618433
  84.6872250  97.1624990  22.2711725  84.5416831  97.4765293  23.1636006
  84.2097454  97.7809890  21.7182623  86.5468633  94.1527538  22.3192614
  86.5330202  93.2568631  21.9824912  87.2641061  94.1598201  22.9530900
  88.3994764  94.5864878  24.3645742  88.1412542  95.5081949  24.3630072
  87.8679804  94.1895312  25.0546206  79.1617912  99.7030334  25.2099386
  78.6171380 100.4790142  25.3419660  80.0397262 100.0501139  25.0518507
  85.9505529  93.0341918  17.5880185  86.0721440  92.1058564  17.7871072
  85.6607571  93.0480604  16.6758500  88.8196719  90.7196828  20.7246904
  88.8418416  90.7836161  19.7698884  89.2364778  89.8801337  20.9187411
  79.9483934  98.8300230  28.1029543  79.2065670  98.9782866  28.6894173
  79.6276679  99.0908496  27.2396292  87.8927597 108.3716209  27.9009933
  88.2014723 108.1265355  28.7732632  88.6903079 108.5762847  27.4128803
  78.5949153 104.6351986  21.0928871  77.7581061 104.2074160  20.9112872
  78.5672798 104.8284429  22.0299662  85.4346609  94.5473915  31.7970117
  85.4834764  95.4236038  31.4147887  85.9769123  94.0051308  31.2241760
  95.9201454 105.0915039  31.0771254  95.1296998 105.0739177  30.5375754
  95.6834809 105.6303332  31.8320291  96.0399329 101.9407505  28.3903983
  96.0897334 101.7757512  29.3319506  95.9313253 101.0734764  28.0001864
  93.3303092  97.9238433  29.7063289  94.2312954  97.7844898  29.4147287
  93.4051066  98.0892888  30.6461467  87.6645897  95.3005288  28.5516476
  86.7949206  95.5938854  28.2799064  87.9005377  95.8845733  29.2723739
  97.5417526 104.3604446  28.6346004  97.2502334 104.7234427  29.4709465
  96.9289657 103.6471455  28.4559336  95.7904714  99.4837061  27.1026062
  96.2658836  99.6764707  26.2944914  94.8670280  99.5396247  26.8569446
  90.3684931  91.5184905  26.0681896  90.8866875  92.2545932  25.7428385
  90.0140064  91.8248898  26.9028655  90.6197525  87.9385187  21.5882793
  90.8999279  87.2708376  22.2143219  91.4048132  88.1314283  21.0757457
  94.4906383  96.3602821  25.3354368  95.4423806  96.4600919  25.3566592
  94.3209834  95.5681090  25.8452452  92.5120763  93.4458404  25.5213769
  91.9170695  93.7263417  24.8260257  92.2270460  93.9352305  26.2930510
  96.9694461  99.5808941  24.4496668  96.9370781  98.6424942  24.6356351
  97.5795085  99.6592978  23.7162492  97.1188950  96.3719984  24.4954951
  96.6027998  95.5878441  24.3084880  98.0028898  96.0438701  24.6601470
  94.7799677  90.1161000  20.4550763  94.5824498  89.8076088  21.3394095
  95.3899382  90.8422639  20.5848693  88.6916485 102.5022740  31.9524529
  89.6119494 102.6801339  32.1464575  88.6566068 101.5578785  31.8004228
  77.9098650  97.6961334  20.8777803  77.5901434  96.8426642  20.5852177
  77.3632078  97.9109912  21.6335771  81.6878557 100.4123775  24.5947310
  81.9064567 101.3440882  24.6135344  82.1004331 100.0531749  25.3802114
  88.6082775  90.9191860  16.5822998  87.7983503  90.5738945  16.9578244
  89.2967192  90.6099404  17.1710610  90.5373323  89.9969907  18.2047295
  91.0904362  90.4165360  18.8637318  90.7743410  89.0705655  18.2470251
  86.5606422  95.9856980  33.9850059  86.4603149  96.9351337  33.9162150
  86.3427964  95.6575219  33.1126129  77.7786910 101.3164245  22.8470925
  77.0850381 100.9018198  22.3340879  78.5259901 101.3584782  22.2504344
  92.3655697  91.5075490  19.9147279  92.8655475  91.6192024  19.1061598
  93.0091305  91.2036542  20.5548088  86.4237692  99.4154119  32.8015120
  85.9404774 100.2154479  33.0079009  86.5098632  99.4262064  31.8482564
  79.6923652 101.2482499  20.7236940  79.6694340 101.3470186  19.7718823
  80.0024289 102.0947650  21.0454106  82.3511030 103.3058654  24.8383554
  83.3054284 103.2742596  24.7713486  82.1523554 102.8449278  25.6533780
  82.9410412 101.8759770  27.4054352  83.7603301 102.3703849  27.4289189
  83.2147220 100.9591738  27.3771919  96.0491544  94.2917043  20.4836646
  96.8251935  94.7813496  20.7561263  95.3239679  94.7175097  20.9408516
  78.1945326  96.2097904  28.1046549  78.8404190  95.6996858  28.5933774
  77.9862477  96.9466586  28.6789974  90.7198719 103.2778751  33.6038689
  91.5889878 103.4519404  33.2425324  90.2405470 104.0973168  33.4814419
  84.8884899 110.3975852  25.2828123  85.7912145 110.4299463  25.5994618
  84.6622269 109.4676303  25.2974459  90.5301056  87.0680725  18.1116382
  89.7633452  86.5139212  18.2573064  90.9411761  87.1402594  18.9730533
  82.5342817  93.3565521  32.2021563  83.3974279  93.0002326  32.4124888
  81.9608228  93.0179416  32.8896967  95.0924318 106.7646238  33.1951535
  94.6991264 106.2112436  33.8699179  95.9090458 107.0756816  33.5858052
  98.0092279 108.1804117  30.7871791  98.7501992 108.7811270  30.7076254
  98.2410202 107.4381754  30.2289834  93.0372306 110.5547927  30.1356197
  93.6644345 110.1725004  30.7493722  92.1800225 110.3362129  30.5011890
  96.2740363 109.8765833  31.7970117  96.3228519 110.7527956  31.4147887
  96.8162877 109.3343226  31.2241760  97.4000177 111.3148898  33.9850059
  97.2996904 112.2643255  33.9162150  97.1821719 110.9867137  33.1126129
  89.0339081 111.5389822  28.1046549  89.6797944 111.0288776  28.5933774
  88.8256232 112.2758503  28.6789974  93.3736572 108.6857439  32.2021563
  94.2368033 108.3294243  32.4124888  92.8001982 108.3471333  32.8896967
  46.0356684  21.6680758  17.3882828  45.5920538  20.8817137  17.0703733
  46.6973897  21.8559909  16.7226719  48.1337922  21.9483558  15.4164229
  48.1156397  22.7692439  14.9244498  49.0557842  21.8237634  15.6414370
  49.0453763  18.5879397  17.8114947  48.8939269  18.3589948  16.8945031
  49.0358442  19.5449998  17.8246293  50.7545969  21.6198519  15.8891429
  50.6958515  20.9357739  15.2222012  51.1565488  22.3617509  15.4372055
  49.2397643  21.3213436  18.4655240  49.7837547  21.9343395  17.9710194
  48.6584488  21.8793015  18.9822253  52.5626438  20.7809490  17.8016561
  51.7721981  20.7633629  17.2621060  52.3259792  21.3197784  18.5565597
  54.1842509  20.0498898  15.3591311  53.8927318  20.4128879  16.1954772
  53.5714641  19.3365907  15.1804643  47.3623702  18.9673203  20.3283996
  48.2314861  19.1413856  19.9670631  46.8830453  19.7867620  20.2059725
  59.0216178  30.6761829   9.7329271  59.6594588  30.5568577   9.0292611
  58.9037020  31.6242673   9.7917223  55.8305884  30.6289257   9.6690795
  55.4924395  30.5130322   8.7811330  56.6995652  30.2280422   9.6491801
  56.3125667  31.7824109  15.6277001  56.3014308  31.3876907  14.7557505
  56.4746306  31.0490182  16.2210772  49.2357131  33.9775925   8.4971907
  50.0278423  33.6366750   8.0818206  49.4753782  34.0870900   9.4174060
  53.0332928  34.5661221  14.5756185  52.7422794  35.4706852  14.4602851
  53.6689912  34.6077748  15.2900254  53.9589135  31.9438069  11.1657545
  54.5552707  31.7194092  10.4514507  54.0164106  31.2022815  11.7682992
  63.9765873  28.3388516   7.7115457  64.7091045  27.7687733   7.9453287
  63.2205229  27.9510117   8.1521963  61.4991294  22.0510090  12.1710066
  61.1674618  22.9205501  11.9471281  60.9036907  21.7346374  12.8504096
  57.9922813  34.2522636  11.5705979  57.6923536  35.1547675  11.4621786
  57.6473873  33.9854820  12.4227131  61.3919957  26.7705177   9.2503416
  60.4836834  26.7020585   8.9562177  61.3407553  27.2477121  10.0785241
  52.9743593  41.0166957   4.5376946  52.8967623  41.9674782   4.6165427
  52.3705236  40.6712829   5.1951873  55.4660823  28.1894822  17.1938313
  54.6894157  28.7488742  17.1841178  56.1051386  28.6751605  17.7153183
  63.2581603  24.9721615  11.0281290  62.6155983  25.2654148  10.3821084
  62.7536532  24.8574535  11.8334486  53.7207195  30.9980275  16.7556280
  54.4621879  31.5365319  16.4791104  53.0144180  31.6246564  16.9127832
  59.1962535  33.1409416  15.3528442  59.6045891  32.6991826  14.6083074
  58.4739796  32.5662043  15.6062635  55.5493605  28.0782023  12.7261999
  56.3954800  28.5021436  12.8696648  55.4892242  27.4215647  13.4200562
  59.5191349  33.7010607   9.1080731  58.8900212  33.8656321   8.4056798
  59.1317011  34.1152216   9.8791695  63.3980581  34.6365044   6.4625094
  62.7131619  35.0163946   5.9122128  63.4824430  35.2460371   7.1957042
  58.6993050  25.7386391  14.3843172  58.4553982  26.4928452  13.8477448
  58.9752980  26.1171739  15.2190419  60.6531513  32.2825003  13.0620438
  60.8648408  32.9256763  12.3854819  60.6061261  31.4487320  12.5942368
  55.0719311  33.4385015   6.3730816  55.5357657  33.7172718   5.5835438
  54.8076109  32.5368459   6.1903906  51.9643392  32.9856496   9.3110579
  52.5344749  33.4143765   8.6728063  52.5551504  32.7039081  10.0094765
  52.4568559  28.1519924  17.5571590  51.8267219  28.8336204  17.7906987
  52.3504647  28.0403005  16.6124728  61.7677341  35.1596959  11.2342795
  62.5894784  34.7577146  10.9525477  61.7639744  35.0565193  12.1858911
  55.5333944  34.7081002  13.3903506  55.5978377  35.1701409  14.2261677
  54.8244868  34.0778367  13.5185815  69.8583334  31.5035707   7.5827767
  69.1047042  30.9343105   7.4271771  69.9930875  31.4698372   8.5298401
  51.7349301  22.4540689  19.9196841  51.3416247  21.9006888  20.5944485
  52.5515442  22.7651268  20.3103359  50.5106244  37.0090304   5.9133164
  50.6872872  37.9308269   5.7254148  51.3063077  36.6948723   6.3427544
  54.6517262  23.8698569  17.5117098  55.3926976  24.4705722  17.4321560
  54.8835185  23.1276206  16.9535140  49.7958600  29.0554936  15.7895327
  49.6812116  28.1540193  16.0902426  48.9403118  29.3018633  15.4380144
  56.8750438  36.9972676  17.3882828  56.4314292  36.2109055  17.0703733
  57.5367652  37.1851827  16.7226719  51.6337559  38.5268478  11.9143507
  52.1844984  38.3985541  11.1420501  50.7949035  38.8263367  11.5638399
  58.9731676  37.2775476  15.4164229  58.9550152  38.0984357  14.9244498
  59.8951596  37.1529551  15.6414370  55.4304730  34.7919606  16.2587738
  55.9633067  34.0307894  16.0287046  54.9018811  34.4993257  17.0011892
  61.7750289  32.1154619   8.8873596  61.1173964  32.8053880   8.9753725
  62.5790688  32.5051050   9.2307582  60.5855748  30.4698991   6.9377538
  61.0987630  31.1028983   7.4399247  61.2356972  29.8700187   6.5720898
  57.0636579  27.9448447   9.1835878  56.1459140  28.1663394   9.0257566
  57.4796722  28.0194757   8.3247586  61.3517544  35.4504993   5.0656680
  60.8979871  34.6095903   5.1221871  60.7211511  36.0866391   5.4031461
  59.7950483  37.2881489   6.0006499  60.0873458  37.8486546   5.2818864
  60.3049104  37.5810050   6.7559658  54.7584109  38.0661840   7.0899952
  54.7160287  38.2922687   6.1608484  55.6746807  37.8325215   7.2385753
  58.2049742  28.5345908  13.9880581  58.5599130  28.7617381  14.8475047
  58.8521874  28.8664285  13.3657836  63.9347479  31.6564344   4.6929910
  63.7965378  31.8465940   3.7651099  63.5783698  32.4183727   5.1497961
  63.9616859  33.7240871   9.7041181  64.3953366  33.6316160  10.5524236
  64.6748440  33.6998371   9.0661197  52.8749909  34.9424869   6.8861914
  53.6690508  34.4475190   6.6844489  52.1641602  34.4142733   6.5229620
  57.6944754  37.3242965  11.2374282  57.7481776  37.8933901  12.0051998
  56.8259535  37.4944850  10.8728319  50.5743147  27.0260521  12.7198733
  51.2466201  26.8177883  12.0711382  49.7472934  26.8282607  12.2803966
  64.8232408  33.7664572  12.2374067  65.0168299  34.6710382  12.4833342
  64.7233027  33.3071991  13.0712652  56.4768719  23.6522462  14.7364394
  55.8296634  24.3512412  14.6428871  57.2469735  24.0858606  15.1040642
  59.8847517  33.9171314  17.8114947  59.7333024  33.6881866  16.8945031
  59.8752197  34.8741916  17.8246293  56.6532854  31.4903227  12.7961214
  57.5824914  31.6414387  12.6230181  56.2323884  31.5787248  11.9409860
  55.4521185  35.5153891  10.5659752  55.3132271  35.1472676  11.4385690
  54.6635782  36.0301531  10.3943709  56.0469337  40.6162988   1.9085288
  56.2221093  40.1451031   2.7230911  55.3602125  41.2428754   2.1366549
  57.0026400  34.8935494   7.9548589  56.6676233  34.8536264   8.8506239
  56.5030346  34.2280210   7.4819000  50.9770644  30.3003124  13.4801171
  50.8390442  29.5683363  14.0812710  51.8875568  30.2112024  13.1985358
  53.6052945  30.0123083  12.9684850  54.3152564  29.3716276  12.9271469
  53.5622253  30.2635978  13.8911031  61.5939724  36.9490437  15.8891429
  61.5352270  36.2649657  15.2222012  61.9959242  37.6909427  15.4372055
  52.3181879  26.9988301  14.7880490  51.7819236  26.5479040  15.4402086
  51.7298588  27.1334210  14.0450954  50.6130423  43.7652351   8.6825148
  50.8527021  44.3970875   9.3604167  49.7699619  43.4140391   8.9690508
  61.5957131  34.9130021  14.1205409  60.7083910  34.5755943  14.2431808
  62.1655682  34.1813052  14.3574174  55.1258284  39.5731473  11.0866652
  55.0528456  40.3786445  11.5985957  54.6835678  39.7723439  10.2614674
  54.9148064  38.8103243   4.5969474  54.1315586  39.3524923   4.6907698
  55.6140809  39.3277223   4.9963715  66.0774472  30.3238238   8.8821971
  66.0664348  31.2062954   8.5115904  65.2091851  29.9709789   8.6876508
  57.5856968  39.4718307  13.2424811  58.2984940  40.1065772  13.1700712
  57.0946997  39.5682173  12.4264813  59.3074495  33.3769560   4.8142103
  58.3730774  33.4971022   4.6446807  59.4851163  32.4742027   4.5502112
  62.6947046  29.2186879   5.3492137  63.1607498  30.0514871   5.2752439
  63.1454547  28.7531861   6.0537395  52.6368881  37.2212751  14.0630382
  53.3378341  37.8549234  14.2159776  52.1663996  37.5627482  13.3026021
  60.4370167  29.7757358  11.8882932  59.7841618  30.0233266  11.2335385
  60.8150547  28.9621496  11.5545409  57.3977341  39.8117051   5.9911102
  57.5799736  38.9938707   6.4538855  58.2210327  40.0284743   5.5535992
  57.7319507  38.7385236   3.2526151  58.2607273  38.2277691   2.6396313
  57.9947726  38.4227767   4.1171684  56.4857740  30.5177169  18.3748969
  55.8098378  30.4171298  19.0451344  57.3085374  30.3616383  18.8384966
  48.2336600  36.7549106  10.9961484  48.8190036  36.0092794  11.1289389
  48.0361438  37.0653062  11.8798148  51.0875255  39.7900353   6.0123927
  50.4185630  40.2746481   5.5287967  50.9488124  40.0369573   6.9267305
  55.2280523  41.8244097  12.6106585  55.7798831  41.9875718  13.3755670
  55.5686717  42.4148534  11.9386610  49.6797289  26.2442379  16.8601504
  50.3069328  25.8619456  17.4739028  48.8225208  26.0256581  17.2257197
  60.0791398  36.6505354  18.4655240  60.6231302  37.2635312  17.9710194
  59.4978243  37.2084932  18.9822253  58.3648911  39.7726072   9.5970267
  58.2400050  38.9715812   9.0881213  59.0228002  40.2672265   9.1084237
  60.4283819  37.5735092  11.2249817  59.4814155  37.4540443  11.1528144
  60.7766592  36.6857590  11.3076079  52.7883392  23.4629231  15.0488059
  53.3117794  23.7091528  15.8114369  52.5695726  24.2949266  14.6291197
  57.4330252  37.3687808   7.4254170  57.2855215  36.4404516   7.6061740
  58.2583746  37.3907899   6.9411245  61.0364374  38.1916367   8.5119042
  61.9610922  37.9859228   8.3743494  60.8679678  37.9432768   9.4208384
  53.9935937  24.4042926  12.7337730  53.6532758  23.6050739  13.1358410
  53.2874944  24.7044637  12.1614563  55.8813502  25.6051247  11.0891048
  55.6231279  26.5268318  11.0875379  55.3498542  25.2081682  11.7791513
  60.8259690  38.7102035   3.8681134  60.9996568  38.1448457   3.1154986
  61.3188582  39.5102929   3.6860624  46.6436650  30.7216704  11.9344693
  46.0990118  31.4976512  12.0664967  47.5216000  31.0687508  11.7763814
  66.6799082  31.4738458   5.4871434  67.1230228  30.7245783   5.0890557
  65.8025592  31.4648594   5.1045166  61.8134863  38.0268799   0.9678032
  62.5085767  38.6475492   1.1865347  62.1558013  37.1764150   1.2430410
  47.4302672  29.8486600  14.8274849  46.6884408  29.9969235  15.4139480
  47.1095416  30.1094866  13.9641599  63.7126286  35.4768505   2.4965363
  64.2377610  35.8155777   1.7714683  63.6248639  34.5415520   2.3128498
  55.3746335  39.3902578  14.6255240  55.6833461  39.1451725  15.4977939
  56.1721817  39.5949217  14.1374110  55.3966947  41.5440488   6.8560616
  54.9571937  41.0516866   7.5493473  56.1475064  41.0013455   6.6152691
  47.8759286  37.7352029   6.8585244  48.7017306  37.4355801   6.4783888
  47.5253338  36.9659651   7.3075033  52.8440819  37.0878497   8.9282918
  52.2220828  36.4249202   8.6285146  53.5145686  37.1139629   8.2456566
  52.9165346  25.5660285  18.5215424  52.9653502  26.4422408  18.1393193
  53.4587861  25.0237678  17.9487067  63.4020192  36.1101408  17.8016561
  62.6115736  36.0925547  17.2621060  63.1653547  36.6489702  18.5565597
  63.5218067  32.9593875  15.1149289  63.5716072  32.7943882  16.0564812
  63.4131990  32.0921134  14.7247170  60.8121830  28.9424803  16.4308596
  61.7131692  28.8031267  16.1392594  60.8869804  29.1079257  17.3706774
  55.1464635  26.3191657  15.2761782  54.2767944  26.6125223  15.0044371
  55.3824115  26.9032102  15.9969046  65.0236264  35.3790816  15.3591311
  64.7321072  35.7420797  16.1954772  64.4108395  34.6657824  15.1804643
  66.2231946  32.9443696   7.8793881  67.0578838  33.3833500   8.0431442
  66.3591075  32.4682349   7.0602127  63.2723452  30.5023431  13.8271369
  63.7477574  30.6951077  13.0190220  62.3489018  30.5582616  13.5814753
  57.8503669  22.5371274  12.7927203  58.3685613  23.2732301  12.4673691
  57.4958801  22.8435268  13.6273962  61.9725121  27.3789191  12.0599675
  62.9242544  27.4787288  12.0811899  61.8028572  26.5867459  12.5697759
  59.9939501  24.4644774  12.2459075  59.3989433  24.7449787  11.5505564
  59.7089197  24.9538675  13.0175817  64.4513199  30.5995310  11.1741974
  64.4189519  29.6611311  11.3601658  65.0613823  30.6779347  10.4407799
  64.6007687  27.3906354  11.2200257  64.0846736  26.6064811  11.0330186
  65.4847636  27.0625070  11.3846777  70.2689749  31.6611317  10.3148011
  70.9993137  31.3996605  10.8755714  69.6596694  30.9240039  10.3550079
  68.3505046  29.8019180  10.9122462  67.6238210  29.6675145  10.3038954
  67.9352333  30.1096008  11.7179180  56.1735222  33.5209110  18.6769835
  57.0938232  33.6987709  18.8709882  56.1384805  32.5765155  18.5249534
  49.1697295  31.4310144  11.3192616  49.3883305  32.3627252  11.3380650
  49.5823069  31.0718119  12.1047420  54.0425160  27.0043350  20.7095365
  53.9421887  27.9537707  20.6407456  53.8246702  26.6761589  19.8371435
  53.9056430  30.4340489  19.5260427  53.4223512  31.2340849  19.7324316
  53.9917369  30.4448434  18.5727871  49.8329768  34.3245024  11.5628861
  50.7873021  34.2928966  11.4958792  49.6342291  33.8635647  12.3779087
  50.4229150  32.8946140  14.1299658  51.2422039  33.3890218  14.1534496
  50.6965958  31.9778108  14.1017226  63.5310282  25.3103413   7.2081953
  64.3070672  25.7999865   7.4806570  62.8058416  25.7361467   7.6653823
  65.9682841  26.0231032   8.2655894  66.5627332  25.7826768   7.5549202
  66.0409425  25.3038163   8.8929430  48.1879997  39.8664643   8.5799059
  48.0534464  39.1065044   8.0137057  47.7712059  40.5905543   8.1127847
  68.2753914  29.3297233   7.0399315  67.7153472  29.3990422   7.8130877
  67.6697417  29.1538218   6.3198811  51.3449122  40.7633960   8.7917501
  51.2281507  41.7079393   8.6896191  50.5241569  40.4607522   9.1803300
  45.6764064  27.2284273  14.8291855  46.3222928  26.7183227  15.3179081
  45.4681215  27.9652955  15.4035281  58.2017456  34.2965121  20.3283996
  59.0708616  34.4705773  19.9670631  57.7224208  35.1159538  20.2059725
  52.3703637  41.4162222  12.0073430  53.2730883  41.4485832  12.3239925
  52.1441007  40.4862673  12.0219765  54.1257239  40.1693208   8.6683508
  53.1752870  40.1695070   8.5547881  54.4289725  39.4225943   8.1519543
  50.0161555  24.3751890  18.9266870  50.8793017  24.0188695  19.1370194
  49.4426966  24.0365785  19.6142274  69.8609932  46.0053747   9.7329271
  70.4988342  45.8860494   9.0292611  69.7430775  46.9534591   9.7917223
  66.6699638  45.9581175   9.6690795  66.3318150  45.8422240   8.7811330
  67.5389407  45.5572340   9.6491801  62.5286454  47.8116651   5.6587686
  61.9651319  47.7206588   4.8903974  62.4138849  46.9916556   6.1390179
  67.1519421  47.1116027  15.6277001  67.1408062  46.7168825  14.7557505
  67.3140061  46.3782099  16.2210772  60.0750886  49.3067843   8.4971907
  60.8672178  48.9658668   8.0818206  60.3147536  49.4162818   9.4174060
  68.1086013  51.4787619   0.9702151  67.4573993  52.0641699   0.5836165
  68.9030376  52.0093814   1.0297189  62.0341640  48.5676756   1.3689286
  62.8072516  48.0205743   1.2302161  62.3867039  49.4321006   1.5803747
  63.8726682  49.8953138  14.5756185  63.5816548  50.7998769  14.4602851
  64.5083667  49.9369666  15.2900254  64.7982889  47.2729987  11.1657545
  65.3946462  47.0486009  10.4514507  64.8557861  46.5314732  11.7682992
  64.3707918  44.7269422  -0.9992265  64.6233438  44.2050944  -1.7608802
  63.4332477  44.5635568  -0.8965581  69.4151201  43.7305201   6.8082479
  70.2014290  43.3124624   6.4572896  69.6789905  44.6351293   6.9764127
  69.5861278  49.1678051   1.5071136  68.9507111  49.2412678   2.2192040
  69.2558684  49.7571650   0.8290215  74.8159628  43.6680434   7.7115457
  75.5484800  43.0979651   7.9453287  74.0598983  43.2802034   8.1521963
  64.0904206  46.6297528   1.2032110  63.9740465  45.9542432   1.8713195
  64.2006466  46.1429902   0.3864263  66.4335747  46.0907675   4.9078800
  66.0693955  45.5638296   5.6191721  67.2902863  45.7006144   4.7345285
  72.3385048  37.3802008  12.1710066  72.0068373  38.2497419  11.9471281
  71.7430661  37.0638292  12.8504096  66.0741234  41.1197575  -0.0959852
  66.2415637  41.9877812   0.2710619  65.8838403  41.2824857  -1.0198563
  68.8316568  49.5814554  11.5705979  68.5317291  50.4839593  11.4621786
  68.4867627  49.3146737  12.4227131  62.2829049  46.0328351   7.6042683
  61.3579546  45.9004565   7.8120375  62.5313462  46.8122570   8.1012625
  72.2313711  42.0997094   9.2503416  71.3230589  42.0312503   8.9562177
  72.1801307  42.5769039  10.0785241  66.0530455  43.5755233   0.8886815
  65.9330080  44.0212283   1.7272295  65.3583044  43.9240550   0.3300353
  59.6437860  45.6761624   8.4386472  59.7730241  45.9296103   9.3525884
  58.9635311  46.2689332   8.1191127  63.8137347  56.3458874   4.5376946
  63.7361377  57.2966699   4.6165427  63.2098991  56.0004747   5.1951873
  66.3054577  43.5186740  17.1938313  65.5287911  44.0780660  17.1841178
  66.9445140  44.0043523  17.7153183  74.0975358  40.3013533  11.0281290
  73.4549738  40.5946066  10.3821084  73.5930286  40.1866453  11.8334486
  71.7515521  44.0476706   1.7167149  72.6633378  44.2804093   1.5414847
  71.2425168  44.6313750   1.1542228  64.5600949  46.3272193  16.7556280
  65.3015634  46.8657237  16.4791104  63.8537935  46.9538482  16.9127832
  70.0356289  48.4701334  15.3528442  70.4439645  48.0283744  14.6083074
  69.3133551  47.8953961  15.6062635  66.3887359  43.4073940  12.7261999
  67.2348554  43.8313354  12.8696648  66.3285997  42.7507565  13.4200562
  70.3585104  49.0302524   9.1080731  69.7293966  49.1948238   8.4056798
  69.9710766  49.4444134   9.8791695  74.2374336  49.9656962   6.4625094
  73.5525374  50.3455863   5.9122128  74.3218185  50.5752289   7.1957042
  69.5386804  41.0678309  14.3843172  69.2947736  41.8220369  13.8477448
  69.8146735  41.4463656  15.2190419  71.4925267  47.6116921  13.0620438
  71.7042162  48.2548681  12.3854819  71.4455015  46.7779238  12.5942368
  69.0951496  40.2234742   9.9657010  68.2335975  40.5215995  10.2573748
  69.1213931  40.4405141   9.0338043  65.9113066  48.7676932   6.3730816
  66.3751411  49.0464635   5.5835438  65.6469864  47.8660377   6.1903906
  62.8037147  48.3148414   9.3110579  63.3738504  48.7435682   8.6728063
  63.3945259  48.0330999  10.0094765  64.8481952  44.8900085   3.1820381
  65.5505995  45.3421128   3.6494307  64.5162580  44.2483904   3.8100274
  63.2962313  43.4811841  17.5571590  62.6660974  44.1628122  17.7906987
  63.1898401  43.3694923  16.6124728  58.5907286  43.1483637   8.4837514
  57.8006340  43.4041166   8.0077625  59.0818533  43.9631975   8.5889555
  72.6071095  50.4888877  11.2342795  73.4288539  50.0869064  10.9525477
  72.6033498  50.3857111  12.1858911  60.5422031  43.5128217   5.4420991
  59.7453194  43.6246911   5.9604487  60.3147623  43.8514869   4.5761882
  66.3727699  50.0372920  13.3903506  66.4372131  50.4993327  14.2261677
  65.6638622  49.4070285  13.5185815  56.8744989  43.4014128  10.9152505
  57.1253027  44.2861138  11.1810081  57.4104537  43.2218729  10.1427597
  80.6977088  46.8327625   7.5827767  79.9440797  46.2635023   7.4271771
  80.8324629  46.7990290   8.5298401  66.0875716  51.7041027   3.2582486
  65.9521391  52.5492563   3.6867334  66.6285529  51.9060305   2.4948420
  62.5743056  37.7832607  19.9196841  62.1810001  37.2298806  20.5944485
  63.3909196  38.0943186  20.3103359  59.5405114  49.2216465   3.8310411
  60.0529634  50.0159716   3.9815976  60.1927826  48.5242756   3.7644013
  61.3499998  52.3382222   5.9133164  61.5266627  53.2600186   5.7254148
  62.1456832  52.0240641   6.3427544  65.4911017  39.1990486  17.5117098
  66.2320730  39.7997639  17.4321560  65.7228940  38.4568124  16.9535140
  60.6352355  44.3846854  15.7895327  60.5205870  43.4832111  16.0902426
  59.7796873  44.6310550  15.4380144  67.7144193  52.3264594  17.3882828
  67.2708047  51.5400972  17.0703733  68.3761406  52.5143744  16.7226719
  62.4731314  53.8560395  11.9143507  63.0238739  53.7277459  11.1420501
  61.6342790  54.1555284  11.5638399  69.8125431  52.6067394  15.4164229
  69.7943906  53.4276275  14.9244498  70.7345351  52.4821469  15.6414370
  66.2698485  50.1211523  16.2587738  66.8026822  49.3599811  16.0287046
  65.7412566  49.8285175  17.0011892  69.4368180  35.2271589  11.7881379
  69.0932449  36.1173231  11.7120490  69.8047142  35.0373247  10.9250964
  57.5054030  47.5505120   4.6069982  58.3429252  47.9602128   4.3903689
  57.6832298  46.6104562   4.5770175  69.4018463  45.2180200   0.2953815
  68.8865086  45.9884805   0.5342202  69.1295771  44.5445336   0.9186876
  66.9865574  40.0629901   5.3539053  66.1307170  39.6736751   5.1744692
  67.3992525  40.1421862   4.4938838  68.5164720  37.5976244   9.7530613
  68.0129516  37.5606380   8.9398418  68.8095327  38.5068987   9.8127269
  64.7607606  37.6814974   8.7596794  65.6260603  37.4857783   8.4002684
  64.8285115  37.4525326   9.6866151  74.3752737  47.9712555   2.2306988
  73.5982179  47.6323714   1.7862150  75.0544218  47.9765178   1.5561953
  69.1904766  43.0907292   2.1213596  68.8854901  43.4053442   2.9723739
  70.1435208  43.1688712   2.1640929  67.6351198  49.2497516   3.7706550
  67.1072559  48.5150275   3.4579787  67.1338700  50.0272192   3.5246518
  72.6144044  47.4446536   8.8873596  71.9567718  48.1345798   8.9753725
  73.4184443  47.8342968   9.2307582  62.3669925  39.9117182   6.1313161
  62.9413677  39.6892363   5.3986354  62.9540908  39.9805876   6.8841763
  71.4249502  45.7990909   6.9377538  71.9381384  46.4320901   7.4399247
  72.0750726  45.1992104   6.5720898  62.6939512  41.9421643   0.1509046
  61.8576825  42.2796330   0.4718321  62.5544282  41.8070623  -0.7863817
  64.6692593  36.7858431   4.8588231  64.0157005  36.4707448   4.2344845
  64.6273067  36.1634171   5.5848054  65.7803798  47.0677726  -3.2258477
  64.8730859  46.8366979  -3.0267328  66.2774830  46.2715345  -3.0384496
  68.6871877  55.7775233  -0.3061791  68.0133575  56.0806930   0.3023167
  69.0737699  56.5804314  -0.6556334  67.9030333  43.2740364   9.1835878
  66.9852895  43.4955311   9.0257566  68.3190477  43.3486675   8.3247586
  68.6865381  44.6731780   4.3138559  69.4337200  45.1853177   4.0045681
  68.9556971  44.3515833   5.1742952  66.9592031  47.1690321   1.2965513
  66.0503250  46.8849354   1.3937983  66.9887115  47.5889399   0.4368820
  72.1911299  50.7796910   5.0656680  71.7373626  49.9387820   5.1221871
  71.5605265  51.4158309   5.4031461  71.1344218  41.7088896   6.2957348
  70.3966975  41.1966283   6.6267590  71.3870992  41.2689278   5.4840625
  70.6344238  52.6173407   6.0006499  70.9267212  53.1778464   5.2818864
  71.1442858  52.9101968   6.7559658  71.2355845  34.4865148   6.8899117
  71.5414722  33.6262512   6.6025032  71.9608450  35.0782769   6.6898111
  57.5280202  44.8895835   5.2780715  57.3304601  44.2965196   4.5531782
  56.9726866  44.5848045   5.9956654  65.5076925  44.7818941   7.3975308
  65.5625535  43.8292778   7.3217785  64.6968127  44.9378381   7.8816607
  66.6568119  48.7099065  -1.3646409  66.2187549  47.9934923  -1.8240771
  67.3978560  48.9375179  -1.9261317  63.4469285  43.3996001   5.1565687
  62.6337151  43.6990172   5.5630879  63.9428279  43.0051690   5.8740169
  65.5977863  53.3953758   7.0899952  65.5554042  53.6214604   6.1608484
  66.5140562  53.1617133   7.2385753  69.0443497  43.8637826  13.9880581
  69.3992885  44.0909299  14.8475047  69.6915628  44.1956202  13.3657836
  74.7741234  46.9856262   4.6929910  74.6359132  47.1757858   3.7651099
  74.4177453  47.7475644   5.1497961  62.9383360  40.9714357  10.7726922
  63.5782739  40.8303116  10.0749885  62.1060890  40.6848870  10.3965524
  74.8010613  49.0532789   9.7041181  75.2347120  48.9608078  10.5524236
  75.5142194  49.0290289   9.0661197  63.7143664  50.2716787   6.8861914
  64.5084262  49.7767107   6.6844489  63.0035356  49.7434650   6.5229620
  68.5338508  52.6534883  11.2374282  68.5875531  53.2225819  12.0051998
  67.6653290  52.8236768  10.8728319  60.0226427  44.4159869   2.9621667
  59.0924015  44.3544324   3.1791629  60.1183899  43.8935822   2.1658308
  59.9411976  40.9414682   5.5499909  60.2018794  41.8560015   5.4409069
  60.7629149  40.4739124   5.6996522  61.4136902  42.3552439  12.7198733
  62.0859955  42.1469801  12.0711382  60.5866688  42.1574525  12.2803966
  75.6626163  49.0956489  12.2374067  75.8562053  50.0002300  12.4833342
  75.5626781  48.6363908  13.0712652  67.3162474  38.9814380  14.7364394
  66.6690389  39.6804329  14.6428871  68.0863489  39.4150524  15.1040642
  70.7241272  49.2463232  17.8114947  70.5726778  49.0173784  16.8945031
  70.7145951  50.2033833  17.8246293  67.4926608  46.8195145  12.7961214
  68.4218668  46.9706304  12.6230181  67.0717638  46.9079165  11.9409860
  66.2914940  50.8445809  10.5659752  66.1526026  50.4764594  11.4385690
  65.5029536  51.3593449  10.3943709  66.8863092  55.9454906   1.9085288
  67.0614847  55.4742949   2.7230911  66.1995880  56.5720672   2.1366549
  67.8420155  50.2227412   7.9548589  67.5069988  50.1828182   8.8506239
  67.3424101  49.5572128   7.4819000  61.8164399  45.6295042  13.4801171
  61.6784197  44.8975281  14.0812710  62.7269322  45.5403942  13.1985358
  70.7779347  47.5683446  -1.7714351  70.1608517  46.8430274  -1.8681298
  70.3095835  48.3292806  -2.1147277  64.4446700  45.3415001  12.9684850
  65.1546318  44.7008193  12.9271469  64.4016008  45.5927896  13.8911031
  72.4333478  52.2782355  15.8891429  72.3746024  51.5941575  15.2222012
  72.8352997  53.0201345  15.4372055  63.1575634  42.3280219  14.7880490
  62.6212991  41.8770958  15.4402086  62.5692342  42.4626128  14.0450954
  61.4524177  59.0944268   8.6825148  61.6920775  59.7262793   9.3604167
  60.6093374  58.7432308   8.9690508  72.4350886  50.2421938  14.1205409
  71.5477664  49.9047860  14.2431808  73.0049437  49.5104970  14.3574174
  54.0880033  46.5746030   7.4448460  54.7751072  46.2607760   6.8569476
  53.9328161  47.4787395   7.1715712  58.8914755  41.4636227  11.8733484
  58.8072944  40.8561896  11.1383894  58.0697461  41.9545245  11.8742980
  65.9652039  54.9023391  11.0866652  65.8922210  55.7078362  11.5985957
  65.5229432  55.1015357  10.2614674  65.7541819  54.1395161   4.5969474
  64.9709340  54.6816841   4.6907698  66.4534564  54.6569140   4.9963715
  69.0638469  39.9489790   7.2403679  69.5607168  39.1959753   6.9204749
  68.2925450  39.9854107   6.6746888  76.9168226  45.6530156   8.8821971
  76.9058102  46.5354871   8.5115904  76.0485606  45.3001707   8.6876508
  68.4250722  54.8010225  13.2424811  69.1378695  55.4357690  13.1700712
  67.9340751  54.8974091  12.4264813  70.1468249  48.7061478   4.8142103
  69.2124528  48.8262940   4.6446807  70.3244918  47.8033944   4.5502112
  65.6473437  42.0907173   6.9675364  65.2771225  41.5378214   7.6556269
  66.1432530  41.4865307   6.4150364  73.5340801  44.5478797   5.3492137
  74.0001253  45.3806788   5.2752439  73.9848301  44.0823778   6.0537395
  63.4762636  52.5504668  14.0630382  64.1772095  53.1841151  14.2159776
  63.0057751  52.8919400  13.3026021  71.6017032  50.8922618   2.3478289
  71.8776876  50.7779213   3.2572163  70.7321531  50.4940103   2.3090462
  71.5057463  36.9159384   9.3883038  70.5920543  37.1463611   9.5565245
  71.9350565  36.9997828  10.2397070  71.2763922  45.1049276  11.8882932
  70.6235372  45.3525183  11.2335385  71.6544302  44.2913414  11.5545409
  68.2371096  55.1408969   5.9911102  68.4193490  54.3230625   6.4538855
  69.0604082  55.3576661   5.5535992  68.5713261  54.0677154   3.2526151
  69.1001028  53.5569609   2.6396313  68.8341481  53.7519684   4.1171684
  67.3251495  45.8469087  18.3748969  66.6492132  45.7463216  19.0451344
  68.1479129  45.6908301  18.8384966  59.0730354  52.0841023  10.9961484
  59.6583791  51.3384711  11.1289389  58.8755193  52.3944980  11.8798148
  61.9269009  55.1192271   6.0123927  61.2579385  55.6038398   5.5287967
  61.7881879  55.3661491   6.9267305  53.6648009  44.6546624   9.7165928
  53.7032108  44.1210214  10.5103046  53.1588302  44.1281829   9.0976905
  66.0674278  57.1536014  12.6106585  66.6192586  57.3167636  13.3755670
  66.4080471  57.7440452  11.9386610  61.0438771  39.5011164  13.2128470
  61.1080098  40.3625995  12.8005868  60.9805891  38.8885166  12.4800828
  60.5191044  41.5734297  16.8601504  61.1463082  41.1911374  17.4739028
  59.6618962  41.3548499  17.2257197  70.9185152  51.9797272  18.4655240
  71.4625056  52.5927230  17.9710194  70.3371997  52.5376850  18.9822253
  57.2956586  43.3810726   2.7919859  57.5910027  42.4721404   2.7386913
  56.3944622  43.3598465   2.4700861  69.2042665  55.1017990   9.5970267
  69.0793805  54.3007730   9.0881213  69.8621756  55.5964183   9.1084237
  60.8250833  41.4566722   8.7747408  60.1037419  42.0702690   8.6354881
  61.6144089  41.9924487   8.6964053  71.2677574  52.9027010  11.2249817
  70.3207909  52.7832361  11.1528144  71.6160347  52.0149508  11.3076079
  63.6277147  38.7921149  15.0488059  64.1511549  39.0383445  15.8114369
  63.4089480  39.6241184  14.6291197  59.0244428  41.0624823   2.9159184
  58.6957134  40.1822202   2.7334290  59.3783799  41.0072492   3.8035573
  68.2724007  52.6979726   7.4254170  68.1248969  51.7696433   7.6061740
  69.0977500  52.7199817   6.9411245  62.1386251  41.3497793   3.2834662
  62.4782324  41.8783714   2.5613270  62.5858372  41.6878199   4.0593228
  71.8758129  53.5208285   8.5119042  72.8004676  53.3151146   8.3743494
  71.7073432  53.2724686   9.4208384  64.8329692  39.7334844  12.7337730
  64.4926512  38.9342657  13.1358410  64.1268698  40.0336555  12.1614563
  65.4846164  36.8184156  11.1865053  66.3072233  36.3444634  11.0643943
  65.7284227  37.5974640  11.6863739  64.1254398  39.8472415   1.4827955
  64.8462761  40.2253668   0.9791671  63.5019702  40.5661292   1.5862932
  68.2685521  40.5517564   2.4186287  68.4849136  41.4342202   2.1175115
  67.7879588  40.1603777   1.6891929  63.0084743  43.5103277   8.9957031
  62.8629323  43.8243580   9.8881313  62.5309946  44.1288177   8.4427930
  64.8681125  40.5005825   9.0437921  64.8542694  39.6046918   8.7070219
  65.5853554  40.5076489   9.6776207  66.7207256  40.9343165  11.0891048
  66.4625034  41.8560236  11.0875379  66.1892296  40.5373600  11.7791513
  71.6653445  54.0393952   3.8681134  71.8390322  53.4740375   3.1154986
  72.1582336  54.8394847   3.6860624  57.4830405  46.0508621  11.9344693
  56.9383873  46.8268429  12.0664967  58.3609755  46.3979426  11.7763814
  64.2718021  39.3820205   4.3125491  64.3933933  38.4536851   4.5116379
  63.9820064  39.3958891   3.4003807  67.1409212  37.0675116   7.4492211
  67.1630909  37.1314449   6.4944191  67.5577271  36.2279624   7.6432717
  77.5192836  46.8030375   5.4871434  77.9623982  46.0537700   5.0890557
  76.6419346  46.7940512   5.1045166  72.6528617  53.3560717   0.9678032
  73.3479522  53.9767409   1.1865347  72.9951767  52.5056068   1.2430410
  58.2696427  45.1778518  14.8274849  57.5278163  45.3261153  15.4139480
  57.9489171  45.4386783  13.9641599  74.5520040  50.8060422   2.4965363
  75.0771365  51.1447695   1.7714683  74.4642393  49.8707438   2.3128498
  66.2140089  54.7194496  14.6255240  66.5227216  54.4743643  15.4977939
  67.0115571  54.9241134  14.1374110  66.2360701  56.8732405   6.8560616
  65.7965692  56.3808784   7.5493473  66.9868818  56.3305373   6.6152691
  58.7153040  53.0643946   6.8585244  59.5411060  52.7647718   6.4783888
  58.3647092  52.2951569   7.3075033  63.6834573  52.4170415   8.9282918
  63.0614583  51.7541120   8.6285146  64.3539440  52.4431546   8.2456566
  56.9161645  50.9830273   7.8174178  56.0793554  50.5552447   7.6358179
  56.8885291  51.1762716   8.7544969  63.7559101  40.8952203  18.5215424
  63.8047256  41.7714325  18.1393193  64.2981615  40.3529596  17.9487067
  74.2413947  51.4393326  17.8016561  73.4509490  51.4217465  17.2621060
  74.0047301  51.9781620  18.5565597  74.3611822  48.2885792  15.1149289
  74.4109827  48.1235800  16.0564812  74.2525745  47.4213051  14.7247170
  63.2448080  50.9674338   2.4041378  63.3936201  51.6509802   1.7508051
  64.0514524  50.9479428   2.9190834  71.6515584  44.2716720  16.4308596
  72.5525447  44.1323185  16.1392594  71.7263558  44.4371175  17.3706774
  65.9858389  41.6483575  15.2761782  65.1161699  41.9417141  15.0044371
  66.2217870  42.2324020  15.9969046  75.8630018  50.7082734  15.3591311
  75.5714827  51.0712714  16.1954772  75.2502150  49.9949742  15.1804643
  77.0625701  48.2735614   7.8793881  77.8972592  48.7125418   8.0431442
  77.1984830  47.7974267   7.0602127  74.1117207  45.8315348  13.8271369
  74.5871328  46.0242995  13.0190220  73.1882772  45.8874534  13.5814753
  61.0000713  46.9939516   3.4102447  60.7546755  46.0901846   3.6082657
  61.1696628  46.9956666   2.4681925  68.6897423  37.8663192  12.7927203
  69.2079367  38.6024219  12.4673691  68.3352556  38.1727185  13.6273962
  60.2696361  42.7267873   0.9088609  59.5765606  42.8012228   0.2528645
  60.0248113  41.9628217   1.4310126  68.9410017  34.2863474   8.3128099
  69.2211771  33.6186664   8.9388526  69.7260624  34.4792570   7.8002763
  66.7443486  53.4622468  -0.1246874  66.1717453  54.0812655  -0.5776402
  67.3176279  54.0121830   0.4093048  72.8118876  42.7081108  12.0599675
  73.7636299  42.8079206  12.0811899  72.6422326  41.9159377  12.5697759
  70.8333255  39.7936692  12.2459075  70.2383187  40.0741704  11.5505564
  70.5482952  40.2830593  13.0175817  69.9640746  53.7459618   1.0061708
  70.8971419  53.6805180   1.2094583  69.8763958  54.5815885   0.5476241
  72.5928762  53.0625489  -2.0334344  72.5142394  52.7285352  -1.1398587
  73.4138429  53.5547257  -2.0342872  75.2906953  45.9287228  11.1741974
  75.2583274  44.9903229  11.3601658  75.9007577  46.0071265  10.4407799
  67.1290284  44.7983281  -2.7830822  68.0749389  44.6689489  -2.7142404
  66.7504529  44.0597943  -2.3061394  75.4401442  42.7198272  11.2200257
  74.9240491  41.9356728  11.0330186  76.3241390  42.3916988  11.3846777
  73.1012169  36.4639287   7.1796070  72.9036990  36.1554375   8.0639402
  73.7111874  37.1900926   7.3094000  81.1083503  46.9903235  10.3148011
  81.8386892  46.7288523  10.8755714  80.4990449  46.2531957  10.3550079
  79.1898800  45.1311098  10.9122462  78.4631964  44.9967062  10.3038954
  78.7746087  45.4387926  11.7179180  67.0128977  48.8501027  18.6769835
  67.9331986  49.0279626  18.8709882  66.9778560  47.9057073  18.5249534
  65.3133201  42.7233257  -2.8475937  64.4064657  42.4266370  -2.7713223
  65.5909182  42.4263076  -3.7141650  56.2311142  44.0439621   7.6023110
  55.9113926  43.1904929   7.3097484  55.6844570  44.2588199   8.3581077
  60.0091049  46.7602062  11.3192616  60.2277059  47.6919170  11.3380650
  60.4216823  46.4010036  12.1047420  66.9295267  37.2670147   3.3068305
  66.1195996  36.9217232   3.6823551  67.6179684  36.9577691   3.8955916
  68.8585815  36.3448194   4.9292601  69.4116854  36.7643647   5.5882624
  69.0955902  35.4183942   4.9715557  64.8818915  42.3335268  20.7095365
  64.7815642  43.2829625  20.6407456  64.6640457  42.0053507  19.8371435
  56.0999402  47.6642532   9.5716231  55.4062873  47.2496485   9.0586186
  56.8472393  47.7063069   8.9749650  72.2364623  38.4548719   4.4371266
  71.6563292  39.1133523   4.0549318  71.9700555  37.6326064   4.0258683
  70.6868189  37.8553777   6.6392586  71.1867967  37.9670311   5.8306905
  71.3303797  37.5514830   7.2793394  64.7450185  45.7632406  19.5260427
  64.2617266  46.5632767  19.7324316  64.8311124  45.7740351  18.5727871
  58.0136144  47.5960786   7.4482246  57.9906832  47.6948473   6.4964129
  58.3236781  48.4425937   7.7699412  60.6723522  49.6536941  11.5628861
  61.6266776  49.6220884  11.4958792  60.4736046  49.1927565  12.3779087
  61.2622904  48.2238057  14.1299658  62.0815793  48.7182136  14.1534496
  61.5359712  47.3070025  14.1017226  71.0189501  40.6148810   3.4927614
  70.1315356  40.8998460   3.2747809  71.4343490  40.4542573   2.6454891
  74.3704037  40.6395331   7.2081953  75.1464427  41.1291783   7.4806570
  73.6452171  41.0653385   7.6653823  76.8076595  41.3522950   8.2655894
  77.4021086  41.1118686   7.5549202  76.8803179  40.6330080   8.8929430
  59.0273751  55.1956561   8.5799059  58.8928219  54.4356962   8.0137057
  58.6105813  55.9197461   8.1127847  70.1632714  50.3793484  -2.4124366
  70.8668564  50.5843487  -1.7966711  69.4395363  50.9470246  -2.1475283
  70.9930524  46.1303345   3.7077904  70.9365726  46.5871897   2.8685536
  71.5458867  45.3694030   3.5300747  74.8035330  41.9193077   4.5328024
  74.5472264  41.5189713   5.3636231  74.1788198  42.6336871   4.4078163
  79.1147668  44.6589151   7.0399315  78.5547226  44.7282340   7.8130877
  78.5091171  44.4830135   6.3198811  62.1842877  56.0925878   8.7917501
  62.0675261  57.0371310   8.6896191  61.3635323  55.7899439   9.1803300
  72.0719411  50.8176013  -0.3625906  72.9065015  50.3857212  -0.5448431
  71.9103754  50.6458027   0.5650988  71.7265304  47.3208127   1.0030433
  71.6714107  47.1552398   0.0618877  71.1011359  48.0284160   1.1592623
  56.5157819  42.5576191  14.8291855  57.1616682  42.0475145  15.3179081
  56.3074970  43.2944873  15.4035281  69.0411211  49.6257039  20.3283996
  69.9102370  49.7997691  19.9670631  68.5617962  50.4451455  20.2059725
  65.0361429  36.8216236   0.5815752  65.0240099  37.7658076   0.7384022
  65.9284851  36.6386381   0.2875213  63.2097391  56.7454140  12.0073430
  64.1124638  56.7777750  12.3239925  62.9834761  55.8154591  12.0219765
  64.9650993  55.4985126   8.6683508  64.0146624  55.4986988   8.5547881
  65.2683479  54.7517861   8.1519543  68.8513549  33.4159012   4.8361688
  68.0845944  32.8617499   4.9818371  69.2624254  33.4880881   5.6975840
  60.8555310  39.7043808  18.9266870  61.7186771  39.3480613  19.1370194
  60.2820720  39.3657703  19.6142274  80.7003687  61.3345665   9.7329271
  81.3382097  61.2152412   9.0292611  80.5824529  62.2826508   9.7917223
  77.5093393  61.2873093   9.6690795  77.1711904  61.1714157   8.7811330
  78.3783161  60.8864258   9.6491801  73.3680209  63.1408569   5.6587686
  72.8045074  63.0498506   4.8903974  73.2532604  62.3208474   6.1390179
  77.9913176  62.4407944  15.6277001  77.9801817  62.0460743  14.7557505
  78.1533815  61.7074017  16.2210772  70.9144640  64.6359761   8.4971907
  71.7065932  64.2950585   8.0818206  71.1541291  64.7454736   9.4174060
  78.9479767  66.8079537   0.9702151  78.2967747  67.3933617   0.5836165
  79.7424130  67.3385732   1.0297189  72.8735394  63.8968674   1.3689286
  73.6466270  63.3497661   1.2302161  73.2260793  64.7612923   1.5803747
  74.7120437  65.2245056  14.5756185  74.4210303  66.1290687  14.4602851
  75.3477421  65.2661584  15.2900254  75.6376644  62.6021905  11.1657545
  76.2340216  62.3777927  10.4514507  75.6951615  61.8606650  11.7682992
  75.2101672  60.0561340  -0.9992265  75.4627193  59.5342861  -1.7608802
  74.2726231  59.8927485  -0.8965581  80.2544955  59.0597118   6.8082479
  81.0408044  58.6416542   6.4572896  80.5183659  59.9643211   6.9764127
  80.4255032  64.4969969   1.5071136  79.7900865  64.5704595   2.2192040
  80.0952439  65.0863568   0.8290215  85.6553382  58.9972352   7.7115457
  86.3878554  58.4271568   7.9453287  84.8992738  58.6093952   8.1521963
  74.9297961  61.9589446   1.2032110  74.8134219  61.2834349   1.8713195
  75.0400221  61.4721820   0.3864263  77.2729502  61.4199593   4.9078800
  76.9087709  60.8930214   5.6191721  78.1296618  61.0298062   4.7345285
  83.1778803  52.7093926  12.1710066  82.8462127  53.5789337  11.9471281
  82.5824416  52.3930210  12.8504096  76.9134989  56.4489493  -0.0959852
  77.0809391  57.3169729   0.2710619  76.7232158  56.6116774  -1.0198563
  79.6710322  64.9106472  11.5705979  79.3711045  65.8131510  11.4621786
  79.3261382  64.6438655  12.4227131  73.1222804  61.3620269   7.6042683
  72.1973300  61.2296483   7.8120375  73.3707217  62.1414488   8.1012625
  83.0707466  57.4289012   9.2503416  82.1624343  57.3604420   8.9562177
  83.0195062  57.9060957  10.0785241  76.8924210  58.9047150   0.8886815
  76.7723835  59.3504201   1.7272295  76.1976798  59.2532468   0.3300353
  70.4831615  61.0053542   8.4386472  70.6123996  61.2588021   9.3525884
  69.8029066  61.5981250   8.1191127  74.6531102  71.6750792   4.5376946
  74.5755132  72.6258617   4.6165427  74.0492745  71.3296665   5.1951873
  77.1448332  58.8478657  17.1938313  76.3681666  59.4072578  17.1841178
  77.7838895  59.3335440  17.7153183  84.9369112  55.6305450  11.0281290
  84.2943492  55.9237983  10.3821084  84.4324041  55.5158371  11.8334486
  82.5909276  59.3768623   1.7167149  83.5027132  59.6096010   1.5414847
  82.0818923  59.9605668   1.1542228  75.3994704  61.6564111  16.7556280
  76.1409388  62.1949155  16.4791104  74.6931689  62.2830400  16.9127832
  80.8750044  63.7993251  15.3528442  81.2833400  63.3575662  14.6083074
  80.1527305  63.2245879  15.6062635  77.2281114  58.7365858  12.7261999
  78.0742309  59.1605272  12.8696648  77.1679751  58.0799482  13.4200562
  81.1978858  64.3594442   9.1080731  80.5687721  64.5240156   8.4056798
  80.8104520  64.7736051   9.8791695  85.0768090  65.2948880   6.4625094
  84.3919128  65.6747781   5.9122128  85.1611939  65.9044206   7.1957042
  80.3780559  56.3970226  14.3843172  80.1341491  57.1512287  13.8477448
  80.6540489  56.7755574  15.2190419  82.3319022  62.9408839  13.0620438
  82.5435917  63.5840599  12.3854819  82.2848770  62.1071155  12.5942368
  79.9345251  55.5526659   9.9657010  79.0729730  55.8507913  10.2573748
  79.9607685  55.7697058   9.0338043  76.7506820  64.0968850   6.3730816
  77.2145166  64.3756553   5.5835438  76.4863618  63.1952295   6.1903906
  73.6430901  63.6440332   9.3110579  74.2132258  64.0727600   8.6728063
  74.2339013  63.3622916  10.0094765  75.6875706  60.2192002   3.1820381
  76.3899749  60.6713046   3.6494307  75.3556335  59.5775821   3.8100274
  74.1356068  58.8103759  17.5571590  73.5054728  59.4920040  17.7906987
  74.0292156  58.6986841  16.6124728  69.4301040  58.4775555   8.4837514
  68.6400094  58.7333084   8.0077625  69.9212287  59.2923893   8.5889555
  83.4464850  65.8180794  11.2342795  84.2682293  65.4160981  10.9525477
  83.4427253  65.7149028  12.1858911  71.3815785  58.8420134   5.4420991
  70.5846949  58.9538829   5.9604487  71.1541378  59.1806786   4.5761882
  77.2121453  65.3664837  13.3903506  77.2765886  65.8285245  14.2261677
  76.5032377  64.7362202  13.5185815  67.7138743  58.7306045  10.9152505
  67.9646781  59.6153055  11.1810081  68.2498291  58.5510647  10.1427597
  91.5370843  62.1619543   7.5827767  90.7834551  61.5926941   7.4271771
  91.6718384  62.1282207   8.5298401  76.9269471  67.0332945   3.2582486
  76.7915146  67.8784481   3.6867334  77.4679283  67.2352223   2.4948420
  73.4136810  53.1124525  19.9196841  73.0203756  52.5590723  20.5944485
  74.2302951  53.4235103  20.3103359  70.3798868  64.5508383   3.8310411
  70.8923389  65.3451633   3.9815976  71.0321581  63.8534673   3.7644013
  72.1893753  67.6674139   5.9133164  72.3660381  68.5892104   5.7254148
  72.9850586  67.3532559   6.3427544  76.3304771  54.5282404  17.5117098
  77.0714485  55.1289557  17.4321560  76.5622694  53.7860042  16.9535140
  71.4746109  59.7138771  15.7895327  71.3599625  58.8124028  16.0902426
  70.6190627  59.9602468  15.4380144  78.5537947  67.6556511  17.3882828
  78.1101801  66.8692890  17.0703733  79.2155161  67.8435662  16.7226719
  73.3125068  69.1852313  11.9143507  73.8632493  69.0569376  11.1420501
  72.4736544  69.4847202  11.5638399  80.6519185  67.9359311  15.4164229
  80.6337661  68.7568192  14.9244498  81.5739105  67.8113387  15.6414370
  77.1092239  65.4503441  16.2587738  77.6420576  64.6891729  16.0287046
  76.5806320  65.1577093  17.0011892  80.2761934  50.5563507  11.7881379
  79.9326204  51.4465149  11.7120490  80.6440897  50.3665165  10.9250964
  68.3447785  62.8797037   4.6069982  69.1823007  63.2894046   4.3903689
  68.5226053  61.9396479   4.5770175  80.2412217  60.5472118   0.2953815
  79.7258840  61.3176723   0.5342202  79.9689525  59.8737254   0.9186876
  77.8259328  55.3921819   5.3539053  76.9700924  55.0028669   5.1744692
  78.2386280  55.4713780   4.4938838  79.3558475  52.9268162   9.7530613
  78.8523270  52.8898297   8.9398418  79.6489082  53.8360905   9.8127269
  75.6001361  53.0106892   8.7596794  76.4654357  52.8149700   8.4002684
  75.6678870  52.7817244   9.6866151  85.2146491  63.3004473   2.2306988
  84.4375934  62.9615632   1.7862150  85.8937972  63.3057096   1.5561953
  80.0298520  58.4199210   2.1213596  79.7248656  58.7345359   2.9723739
  80.9828962  58.4980630   2.1640929  78.4744952  64.5789433   3.7706550
  77.9466314  63.8442193   3.4579787  77.9732455  65.3564110   3.5246518
  83.4537798  62.7738454   8.8873596  82.7961473  63.4637715   8.9753725
  84.2578197  63.1634886   9.2307582  73.2063680  55.2409100   6.1313161
  73.7807432  55.0184281   5.3986354  73.7934662  55.3097794   6.8841763
  82.2643257  61.1282827   6.9377538  82.7775139  61.7612818   7.4399247
  82.9144481  60.5284022   6.5720898  73.5333267  57.2713561   0.1509046
  72.6970579  57.6088247   0.4718321  73.3938036  57.1362540  -0.7863817
  75.5086347  52.1150349   4.8588231  74.8550760  51.7999366   4.2344845
  75.4666822  51.4926089   5.5848054  76.6197552  62.3969644  -3.2258477
  75.7124614  62.1658897  -3.0267328  77.1168584  61.6007263  -3.0384496
  78.7424088  58.6032282   9.1835878  77.8246649  58.8247229   9.0257566
  79.1584231  58.6778593   8.3247586  79.5259136  60.0023698   4.3138559
  80.2730954  60.5145095   4.0045681  79.7950725  59.6807751   5.1742952
  77.7985786  62.4982239   1.2965513  76.8897005  62.2141271   1.3937983
  77.8280869  62.9181317   0.4368820  83.0305053  66.1088828   5.0656680
  82.5767380  65.2679738   5.1221871  82.3999020  66.7450226   5.4031461
  81.9737973  57.0380814   6.2957348  81.2360729  56.5258200   6.6267590
  82.2264746  56.5981196   5.4840625  81.4737992  67.9465325   6.0006499
  81.7660967  68.5070382   5.2818864  81.9836613  68.2393886   6.7559658
  82.0749600  49.8157066   6.8899117  82.3808477  48.9554429   6.6025032
  82.8002205  50.4074686   6.6898111  68.3673956  60.2187753   5.2780715
  68.1698356  59.6257113   4.5531782  67.8120620  59.9139963   5.9956654
  76.3470680  60.1110859   7.3975308  76.4019290  59.1584696   7.3217785
  75.5361882  60.2670298   7.8816607  77.4961873  64.0390982  -1.3646409
  77.0581303  63.3226841  -1.8240771  78.2372314  64.2667097  -1.9261317
  74.2863040  58.7287919   5.1565687  73.4730905  59.0282089   5.5630879
  74.7822034  58.3343608   5.8740169  76.4371618  68.7245676   7.0899952
  76.3947796  68.9506522   6.1608484  77.3534316  68.4909050   7.2385753
  79.8837251  59.1929743  13.9880581  80.2386639  59.4201216  14.8475047
  80.5309383  59.5248120  13.3657836  85.6134988  62.3148179   4.6929910
  85.4752887  62.5049775   3.7651099  85.2571207  63.0767562   5.1497961
  73.7777114  56.3006274  10.7726922  74.4176494  56.1595033  10.0749885
  72.9454645  56.0140788  10.3965524  85.6404368  64.3824706   9.7041181
  86.0740875  64.2899995  10.5524236  86.3535949  64.3582207   9.0661197
  74.5537418  65.6008705   6.8861914  75.3478017  65.1059025   6.6844489
  73.8429111  65.0726568   6.5229620  79.3732263  67.9826800  11.2374282
  79.4269285  68.5517737  12.0051998  78.5047044  68.1528685  10.8728319
  70.8620182  59.7451787   2.9621667  69.9317770  59.6836242   3.1791629
  70.9577654  59.2227739   2.1658308  70.7805731  56.2706599   5.5499909
  71.0412548  57.1851933   5.4409069  71.6022903  55.8031042   5.6996522
  72.2530656  57.6844357  12.7198733  72.9253710  57.4761719  12.0711382
  71.4260443  57.4866443  12.2803966  86.5019917  64.4248407  12.2374067
  86.6955808  65.3294217  12.4833342  86.4020536  63.9655826  13.0712652
  78.1556228  54.3106297  14.7364394  77.5084143  55.0096247  14.6428871
  78.9257244  54.7442441  15.1040642  81.5635026  64.5755150  17.8114947
  81.4120533  64.3465701  16.8945031  81.5539706  65.5325751  17.8246293
  78.3320363  62.1487062  12.7961214  79.2612423  62.2998222  12.6230181
  77.9111393  62.2371083  11.9409860  77.1308694  66.1737727  10.5659752
  76.9919780  65.8056511  11.4385690  76.3423291  66.6885366  10.3943709
  77.7256846  71.2746823   1.9085288  77.9008602  70.8034866   2.7230911
  77.0389634  71.9012589   2.1366549  78.6813909  65.5519329   7.9548589
  78.3463742  65.5120099   8.8506239  78.1817855  64.8864045   7.4819000
  72.6558153  60.9586960  13.4801171  72.5177951  60.2267198  14.0812710
  73.5663077  60.8695860  13.1985358  81.6173101  62.8975364  -1.7714351
  81.0002272  62.1722192  -1.8681298  81.1489590  63.6584724  -2.1147277
  75.2840454  60.6706919  12.9684850  75.9940073  60.0300111  12.9271469
  75.2409762  60.9219814  13.8911031  83.2727233  67.6074272  15.8891429
  83.2139779  66.9233492  15.2222012  83.6746751  68.3493262  15.4372055
  73.9969388  57.6572137  14.7880490  73.4606745  57.2062875  15.4402086
  73.4086097  57.7918046  14.0450954  72.2917932  74.4236186   8.6825148
  72.5314530  75.0554710   9.3604167  71.4487128  74.0724226   8.9690508
  73.4071647  57.1160788  -2.6493047  72.5301113  56.9949589  -3.0130800
  73.8829400  56.3246866  -2.9014158  83.2744640  65.5713856  14.1205409
  82.3871419  65.2339778  14.2431808  83.8443191  64.8396887  14.3574174
  64.9273787  61.9037948   7.4448460  65.6144827  61.5899678   6.8569476
  64.7721916  62.8079313   7.1715712  69.7308509  56.7928144  11.8733484
  69.6466698  56.1853814  11.1383894  68.9091216  57.2837163  11.8742980
  76.8045793  70.2315308  11.0866652  76.7315965  71.0370280  11.5985957
  76.3623187  70.4307274  10.2614674  76.5935573  69.4687078   4.5969474
  75.8103095  70.0108759   4.6907698  77.2928318  69.9861058   4.9963715
  79.9032223  55.2781708   7.2403679  80.4000923  54.5251670   6.9204749
  79.1319205  55.3146025   6.6746888  87.7561981  60.9822073   8.8821971
  87.7451857  61.8646789   8.5115904  86.8879360  60.6293624   8.6876508
  79.2644477  70.1302142  13.2424811  79.9772449  70.7649607  13.1700712
  78.7734506  70.2266008  12.4264813  80.9862004  64.0353395   4.8142103
  80.0518283  64.1554858   4.6446807  81.1638672  63.1325862   4.5502112
  76.4867192  57.4199091   6.9675364  76.1164979  56.8670131   7.6556269
  76.9826284  56.8157224   6.4150364  84.3734555  59.8770714   5.3492137
  84.8395007  60.7098706   5.2752439  84.8242056  59.4115696   6.0537395
  74.3156390  67.8796586  14.0630382  75.0165850  68.5133069  14.2159776
  73.8451505  68.2211318  13.3026021  82.4410786  66.2214536   2.3478289
  82.7170630  66.1071130   3.2572163  81.5715285  65.8232021   2.3090462
  82.3451218  52.2451301   9.3883038  81.4314298  52.4755528   9.5565245
  82.7744319  52.3289746  10.2397070  82.1157676  60.4341193  11.8882932
  81.4629127  60.6817101  11.2335385  82.4938056  59.6205332  11.5545409
  79.0764850  70.4700887   5.9911102  79.2587245  69.6522543   6.4538855
  79.8997836  70.6868579   5.5535992  79.4107016  69.3969072   3.2526151
  79.9394782  68.8861526   2.6396313  79.6735235  69.0811602   4.1171684
  78.1645249  61.1761004  18.3748969  77.4885886  61.0755134  19.0451344
  78.9872883  61.0200218  18.8384966  69.9124109  67.4132941  10.9961484
  70.4977545  66.6676629  11.1289389  69.7148947  67.7236898  11.8798148
  72.7662764  70.4484188   6.0123927  72.0973139  70.9330316   5.5287967
  72.6275633  70.6953409   6.9267305  64.5041763  59.9838541   9.7165928
  64.5425863  59.4502132  10.5103046  63.9982056  59.4573747   9.0976905
  76.9068032  72.4827932  12.6106585  77.4586340  72.6459553  13.3755670
  77.2474226  73.0732370  11.9386610  71.8832526  54.8303082  13.2128470
  71.9473852  55.6917913  12.8005868  71.8199646  54.2177083  12.4800828
  71.3584798  56.9026214  16.8601504  71.9856837  56.5203292  17.4739028
  70.5012717  56.6840416  17.2257197  81.7578907  67.3089189  18.4655240
  82.3018811  67.9219148  17.9710194  81.1765752  67.8668768  18.9822253
  68.1350341  58.7102643   2.7919859  68.4303782  57.8013322   2.7386913
  67.2338377  58.6890383   2.4700861  80.0436420  70.4309907   9.5970267
  79.9187559  69.6299647   9.0881213  80.7015511  70.9256101   9.1084237
  71.6644588  56.7858640   8.7747408  70.9431174  57.3994608   8.6354881
  72.4537844  57.3216405   8.6964053  82.1071328  68.2318928  11.2249817
  81.1601664  68.1124279  11.1528144  82.4554101  67.3441426  11.3076079
  74.4670901  54.1213066  15.0488059  74.9905303  54.3675363  15.8114369
  74.2483235  54.9533101  14.6291197  69.8638182  56.3916741   2.9159184
  69.5350889  55.5114120   2.7334290  70.2177553  56.3364410   3.8035573
  79.1117761  68.0271644   7.4254170  78.9642724  67.0988351   7.6061740
  79.9371255  68.0491734   6.9411245  72.9780006  56.6789711   3.2834662
  73.3176078  57.2075632   2.5613270  73.4252126  57.0170117   4.0593228
  82.7151883  68.8500202   8.5119042  83.6398431  68.6443064   8.3743494
  82.5467187  68.6016604   9.4208384  75.6723446  55.0626762  12.7337730
  75.3320267  54.2634575  13.1358410  74.9662453  55.3628472  12.1614563
  76.3239918  52.1476074  11.1865053  77.1465988  51.6736552  11.0643943
  76.5677982  52.9266558  11.6863739  74.9648153  55.1764332   1.4827955
  75.6856515  55.5545585   0.9791671  74.3413457  55.8953209   1.5862932
  79.1079276  55.8809481   2.4186287  79.3242890  56.7634119   2.1175115
  78.6273343  55.4895695   1.6891929  73.8478497  58.8395195   8.9957031
  73.7023078  59.1535498   9.8881313  73.3703701  59.4580095   8.4427930
  75.7074880  55.8297743   9.0437921  75.6936449  54.9338836   8.7070219
  76.4247308  55.8368406   9.6776207  77.5601011  56.2635083  11.0891048
  77.3018788  57.1852153  11.0875379  77.0286051  55.8665517  11.7791513
  82.5047199  69.3685870   3.8681134  82.6784077  68.8032292   3.1154986
  82.9976091  70.1686765   3.6860624  68.3224159  61.3800539  11.9344693
  67.7777627  62.1560347  12.0664967  69.2003509  61.7271343  11.7763814
  75.1111776  54.7112123   4.3125491  75.2327687  53.7828769   4.5116379
  74.8213818  54.7250809   3.4003807  77.9802966  52.3967033   7.4492211
  78.0024663  52.4606366   6.4944191  78.3971025  51.5571542   7.6432717
  88.3586591  62.1322293   5.4871434  88.8017737  61.3829618   5.0890557
  87.4813101  62.1232429   5.1045166  83.4922372  68.6852634   0.9678032
  84.1873276  69.3059327   1.1865347  83.8345522  67.8347986   1.2430410
  69.1090181  60.5070435  14.8274849  68.3671917  60.6553071  15.4139480
  68.7882925  60.7678701  13.9641599  85.3913795  66.1352340   2.4965363
  85.9165119  66.4739613   1.7714683  85.3036148  65.1999355   2.3128498
  77.0533844  70.0486414  14.6255240  77.3620970  69.8035560  15.4977939
  77.8509326  70.2533052  14.1374110  77.0754456  72.2024323   6.8560616
  76.6359446  71.7100702   7.5493473  77.8262573  71.6597291   6.6152691
  69.5546795  68.3935864   6.8585244  70.3804815  68.0939636   6.4783888
  69.2040847  67.6243486   7.3075033  74.5228328  67.7462332   8.9282918
  73.9008337  67.0833037   8.6285146  75.1933195  67.7723464   8.2456566
  67.7555400  66.3122190   7.8174178  66.9187308  65.8844365   7.6358179
  67.7279045  66.5054634   8.7544969  74.5952855  56.2244120  18.5215424
  74.6441011  57.1006243  18.1393193  75.1375370  55.6821513  17.9487067
  85.0807701  66.7685244  17.8016561  84.2903245  66.7509382  17.2621060
  84.8441056  67.3073537  18.5565597  85.2005576  63.6177710  15.1149289
  85.2503581  63.4527717  16.0564812  85.0919499  62.7504969  14.7247170
  74.0841835  66.2966256   2.4041378  74.2329955  66.9801720   1.7508051
  74.8908278  66.2771346   2.9190834  82.4909338  59.6008638  16.4308596
  83.3919201  59.4615103  16.1392594  82.5657313  59.7663093  17.3706774
  76.8252144  56.9775493  15.2761782  75.9555453  57.2709059  15.0044371
  77.0611624  57.5615938  15.9969046  86.7023773  66.0374651  15.3591311
  86.4108581  66.4004632  16.1954772  86.0895904  65.3241660  15.1804643
  87.9019455  63.6027531   7.8793881  88.7366347  64.0417335   8.0431442
  88.0378584  63.1266184   7.0602127  84.9510961  61.1607266  13.8271369
  85.4265083  61.3534912  13.0190220  84.0276527  61.2166452  13.5814753
  71.8394468  62.3231433   3.4102447  71.5940510  61.4193763   3.6082657
  72.0090382  62.3248584   2.4681925  79.5291178  53.1955110  12.7927203
  80.0473122  53.9316137  12.4673691  79.1746310  53.5019103  13.6273962
  71.1090115  58.0559791   0.9088609  70.4159360  58.1304146   0.2528645
  70.8641867  57.2920134   1.4310126  79.7803772  49.6155392   8.3128099
  80.0605526  48.9478581   8.9388526  80.5654379  49.8084488   7.8002763
  77.5837240  68.7914386  -0.1246874  77.0111207  69.4104573  -0.5776402
  78.1570034  69.3413748   0.4093048  83.6512630  58.0373026  12.0599675
  84.6030053  58.1371124  12.0811899  83.4816081  57.2451295  12.5697759
  81.6727010  55.1228609  12.2459075  81.0776942  55.4033622  11.5505564
  81.3876706  55.6122510  13.0175817  80.8034500  69.0751536   1.0061708
  81.7365173  69.0097098   1.2094583  80.7157713  69.9107803   0.5476241
  86.1300708  61.2579146  11.1741974  86.0977028  60.3195147  11.3601658
  86.7401332  61.3363183  10.4407799  77.9684039  60.1275199  -2.7830822
  78.9143144  59.9981407  -2.7142404  77.5898284  59.3889861  -2.3061394
  86.2795196  58.0490189  11.2200257  85.7634245  57.2648646  11.0330186
  87.1635145  57.7208906  11.3846777  83.9405923  51.7931205   7.1796070
  83.7430744  51.4846293   8.0639402  84.5505629  52.5192844   7.3094000
  91.9477258  62.3195153  10.3148011  92.6780646  62.0580441  10.8755714
  91.3384203  61.5823875  10.3550079  90.0292555  60.4603015  10.9122462
  89.3025718  60.3258980  10.3038954  89.6139842  60.7679844  11.7179180
  77.8522731  64.1792945  18.6769835  78.7725741  64.3571544  18.8709882
  77.8172314  63.2348990  18.5249534  76.1526956  58.0525175  -2.8475937
  75.2458411  57.7558288  -2.7713223  76.4302937  57.7554993  -3.7141650
  67.0704896  59.3731539   7.6023110  66.7507681  58.5196847   7.3097484
  66.5238325  59.5880117   8.3581077  70.8484804  62.0893980  11.3192616
  71.0670814  63.0211087  11.3380650  71.2610578  61.7301954  12.1047420
  77.7689022  52.5962065   3.3068305  76.9589750  52.2509150   3.6823551
  78.4573439  52.2869609   3.8955916  79.6979570  51.6740112   4.9292601
  80.2510609  52.0935565   5.5882624  79.9349656  50.7475860   4.9715557
  75.7212669  57.6627185  20.7095365  75.6209396  58.6121542  20.6407456
  75.5034211  57.3345424  19.8371435  74.9225741  54.9112110  -2.7063957
  75.7844905  55.2367009  -2.4468140  75.1076085  54.1243606  -3.2190892
  66.9393156  62.9934450   9.5716231  66.2456628  62.5788403   9.0586186
  67.6866147  63.0354987   8.9749650  83.0758377  53.7840637   4.4371266
  82.4957046  54.4425441   4.0549318  82.8094310  52.9617981   4.0258683
  81.5261943  53.1845695   6.6392586  82.0261722  53.2962229   5.8306905
  82.1697551  52.8806747   7.2793394  75.5843939  61.0924324  19.5260427
  75.1011021  61.8924684  19.7324316  75.6704878  61.1032269  18.5727871
  68.8529899  62.9252704   7.4482246  68.8300587  63.0240391   6.4964129
  69.1630535  63.7717855   7.7699412  71.5117277  64.9828859  11.5628861
  72.4660530  64.9512801  11.4958792  71.3129800  64.5219483  12.3779087
  72.1016659  63.5529975  14.1299658  72.9209548  64.0474054  14.1534496
  72.3753467  62.6361943  14.1017226  81.8583255  55.9440727   3.4927614
  80.9709110  56.2290378   3.2747809  82.2737244  55.7834491   2.6454891
  85.2097791  55.9687248   7.2081953  85.9858181  56.4583701   7.4806570
  84.4845925  56.3945302   7.6653823  87.6470350  56.6814867   8.2655894
  88.2414841  56.4410603   7.5549202  87.7196934  55.9621998   8.8929430
  69.8667506  70.5248478   8.5799059  69.7321973  69.7648879   8.0137057
  69.4499568  71.2489378   8.1127847  81.0026469  65.7085402  -2.4124366
  81.7062319  65.9135404  -1.7966711  80.2789117  66.2762164  -2.1475283
  81.8324279  61.4595263   3.7077904  81.7759480  61.9163815   2.8685536
  82.3852621  60.6985948   3.5300747  85.6429085  57.2484995   4.5328024
  85.3866019  56.8481631   5.3636231  85.0181953  57.9628789   4.4078163
  89.9541423  59.9881068   7.0399315  89.3940981  60.0574258   7.8130877
  89.3484926  59.8122053   6.3198811  73.0236631  71.4217795   8.7917501
  72.9069016  72.3663228   8.6896191  72.2029078  71.1191357   9.1803300
  82.9113166  66.1467931  -0.3625906  83.7458770  65.7149130  -0.5448431
  82.7497509  65.9749945   0.5650988  82.5659058  62.6500044   1.0030433
  82.5107862  62.4844316   0.0618877  81.9405113  63.3576077   1.1592623
  67.3551573  57.8868109  14.8291855  68.0010437  57.3767063  15.3179081
  67.1468724  58.6236790  15.4035281  79.8804965  64.9548956  20.3283996
  80.7496125  65.1289609  19.9670631  79.4011717  65.7743373  20.2059725
  75.8755184  52.1508153   0.5815752  75.8633853  53.0949993   0.7384022
  76.7678605  51.9678299   0.2875213  74.0491146  72.0746057  12.0073430
  74.9518392  72.1069668  12.3239925  73.8228516  71.1446508  12.0219765
  75.8044748  70.8277044   8.6683508  74.8540379  70.8278905   8.5547881
  76.1077234  70.0809778   8.1519543  79.6907303  48.7450930   4.8361688
  78.9239699  48.1909417   4.9818371  80.1018008  48.8172799   5.6975840
  71.6949064  55.0335726  18.9266870  72.5580526  54.6772531  19.1370194
  71.1214475  54.6949621  19.6142274  91.5397441  76.6637582   9.7329271
  92.1775851  76.5444330   9.0292611  91.4218284  77.6118426   9.7917223
  88.3487147  76.6165010   9.6690795  88.0105659  76.5006075   8.7811330
  89.2176916  76.2156175   9.6491801  88.8306930  77.7699862  15.6277001
  88.8195571  77.3752660  14.7557505  88.9927570  77.0365935  16.2210772
  81.7538395  79.9651678   8.4971907  82.5459687  79.6242503   8.0818206
  81.9935045  80.0746653   9.4174060  85.5514191  80.5536974  14.5756185
  85.2604057  81.4582605  14.4602851  86.1871176  80.5953501  15.2900254
  86.4770398  77.9313822  11.1657545  87.0733971  77.7069845  10.4514507
  86.5345370  77.1898568  11.7682992  91.0938710  74.3889036   6.8082479
  91.8801799  73.9708459   6.4572896  91.3577414  75.2935128   6.9764127
  94.0172557  68.0385843  12.1710066  93.6855882  68.9081254  11.9471281
  93.4218170  67.7222127  12.8504096  90.5104077  80.2398389  11.5705979
  90.2104800  81.1423428  11.4621786  90.1655136  79.9730573  12.4227131
  83.9616558  76.6912186   7.6042683  83.0367054  76.5588400   7.8120375
  84.2100971  77.4706405   8.1012625  93.9101220  72.7580930   9.2503416
  93.0018098  72.6896338   8.9562177  93.8588816  73.2352874  10.0785241
  81.3225369  76.3345460   8.4386472  81.4517750  76.5879939   9.3525884
  80.6422820  76.9273168   8.1191127  87.9842086  74.1770575  17.1938313
  87.2075420  74.7364495  17.1841178  88.6232649  74.6627358  17.7153183
  95.7762867  70.9597368  11.0281290  95.1337247  71.2529901  10.3821084
  95.2717795  70.8450288  11.8334486  86.2388458  76.9856028  16.7556280
  86.9803143  77.5241072  16.4791104  85.5325444  77.6122317  16.9127832
  91.7143798  79.1285169  15.3528442  92.1227154  78.6867579  14.6083074
  90.9921060  78.5537796  15.6062635  88.0674868  74.0657776  12.7261999
  88.9136063  74.4897189  12.8696648  88.0073506  73.4091400  13.4200562
  91.2174313  71.7262144  14.3843172  90.9735245  72.4804205  13.8477448
  91.4934244  72.1047492  15.2190419  93.1712776  78.2700756  13.0620438
  93.3829671  78.9132516  12.3854819  93.1242524  77.4363073  12.5942368
  90.7739005  70.8818577   9.9657010  89.9123484  71.1799831  10.2573748
  90.8001440  71.0988976   9.0338043  84.4824656  78.9732249   9.3110579
  85.0526013  79.4019518   8.6728063  85.0732767  78.6914834  10.0094765
  84.9749822  74.1395677  17.5571590  84.3448483  74.8211958  17.7906987
  84.8685910  74.0278758  16.6124728  80.2694795  73.8067473   8.4837514
  79.4793849  74.0625001   8.0077625  80.7606042  74.6215811   8.5889555
  82.2209540  74.1712052   5.4420991  81.4240703  74.2830746   5.9604487
  81.9935132  74.5098704   4.5761882  88.0515208  80.6956755  13.3903506
  88.1159640  81.1577162  14.2261677  87.3426131  80.0654120  13.5185815
  78.5532498  74.0597963  10.9152505  78.8040536  74.9444973  11.1810081
  79.0892046  73.8802565  10.1427597  84.2530565  68.4416443  19.9196841
  83.8597510  67.8882641  20.5944485  85.0696705  68.7527021  20.3103359
  87.1698526  69.8574322  17.5117098  87.9108239  70.4581475  17.4321560
  87.4016449  69.1151959  16.9535140  82.3139864  75.0430689  15.7895327
  82.1993379  74.1415946  16.0902426  81.4584382  75.2894386  15.4380144
  89.3931702  82.9848429  17.3882828  88.9495556  82.1984808  17.0703733
  90.0548915  83.1727580  16.7226719  84.1518823  84.5144231  11.9143507
  84.7026248  84.3861294  11.1420501  83.3130299  84.8139120  11.5638399
  91.4912940  83.2651229  15.4164229  91.4731415  84.0860110  14.9244498
  92.4132860  83.1405304  15.6414370  87.9485994  80.7795359  16.2587738
  88.4814331  80.0183647  16.0287046  87.4200075  80.4869010  17.0011892
  91.1155689  65.8855425  11.7881379  90.7719958  66.7757066  11.7120490
  91.4834651  65.6957082  10.9250964  79.1841539  78.2088955   4.6069982
  80.0216761  78.6185963   4.3903689  79.3619807  77.2688397   4.5770175
  88.6653083  70.7213736   5.3539053  87.8094679  70.3320587   5.1744692
  89.0780034  70.8005697   4.4938838  90.1952229  68.2560080   9.7530613
  89.6917025  68.2190215   8.9398418  90.4882836  69.1652822   9.8127269
  86.4395115  68.3398809   8.7596794  87.3048112  68.1441618   8.4002684
  86.5072624  68.1109161   9.6866151  84.0457434  70.5701017   6.1313161
  84.6201186  70.3476199   5.3986354  84.6328417  70.6389712   6.8841763
  86.3480102  67.4442266   4.8588231  85.6944514  67.1291283   4.2344845
  86.3060576  66.8218007   5.5848054  89.5817842  73.9324200   9.1835878
  88.6640404  74.1539147   9.0257566  89.9977986  74.0070510   8.3247586
  92.9143354  65.1448984   6.8899117  93.2202231  64.2846347   6.6025032
  93.6395959  65.7366604   6.6898111  79.2067711  75.5479670   5.2780715
  79.0092110  74.9549031   4.5531782  78.6514375  75.2431881   5.9956654
  87.1864434  75.4402777   7.3975308  87.2413044  74.4876613   7.3217785
  86.3755636  75.5962216   7.8816607  85.1256794  74.0579837   5.1565687
  84.3124660  74.3574007   5.5630879  85.6215788  73.6635525   5.8740169
  90.7231006  74.5221661  13.9880581  91.0780394  74.7493134  14.8475047
  91.3703137  74.8540038  13.3657836  84.6170869  71.6298192  10.7726922
  85.2570248  71.4886951  10.0749885  83.7848399  71.3432705  10.3965524
  90.2126017  83.3118718  11.2374282  90.2663040  83.8809654  12.0051998
  89.3440799  83.4820603  10.8728319  81.6199485  71.5998517   5.5499909
  81.8806303  72.5143850   5.4409069  82.4416658  71.1322960   5.6996522
  83.0924411  73.0136274  12.7198733  83.7647464  72.8053636  12.0711382
  82.2654197  72.8158360  12.2803966  88.9949983  69.6398215  14.7364394
  88.3477898  70.3388165  14.6428871  89.7650998  70.0734359  15.1040642
  92.4028781  79.9047067  17.8114947  92.2514287  79.6757619  16.8945031
  92.3933460  80.8617669  17.8246293  89.1714117  77.4778980  12.7961214
  90.1006177  77.6290140  12.6230181  88.7505147  77.5663001  11.9409860
  87.9702449  81.5029644  10.5659752  87.8313534  81.1348429  11.4385690
  87.1817045  82.0177284  10.3943709  83.4951908  76.2878877  13.4801171
  83.3571706  75.5559116  14.0812710  84.4056831  76.1987777  13.1985358
  86.1234209  75.9998837  12.9684850  86.8333827  75.3592029  12.9271469
  86.0803517  76.2511731  13.8911031  94.1120987  82.9366190  15.8891429
  94.0533533  82.2525410  15.2222012  94.5140506  83.6785180  15.4372055
  84.8363143  72.9864054  14.7880490  84.3000500  72.5354793  15.4402086
  84.2479851  73.1209963  14.0450954  94.1138395  80.9005774  14.1205409
  93.2265173  80.5631696  14.2431808  94.6836946  80.1688805  14.3574174
  75.7667542  77.2329866   7.4448460  76.4538581  76.9191596   6.8569476
  75.6115670  78.1371230   7.1715712  80.5702264  72.1220062  11.8733484
  80.4860453  71.5145732  11.1383894  79.7484970  72.6129080  11.8742980
  90.7425978  70.6073626   7.2403679  91.2394677  69.8543588   6.9204749
  89.9712959  70.6437942   6.6746888  90.1038231  85.4594060  13.2424811
  90.8166204  86.0941525  13.1700712  89.6128260  85.5557926  12.4264813
  87.3260946  72.7491009   6.9675364  86.9558734  72.1962049   7.6556269
  87.8220039  72.1449142   6.4150364  85.1550145  83.2088504  14.0630382
  85.8559604  83.8424987  14.2159776  84.6845260  83.5503235  13.3026021
  93.1844972  67.5743219   9.3883038  92.2708052  67.8047446   9.5565245
  93.6138074  67.6581663  10.2397070  92.9551431  75.7633111  11.8882932
  92.3022881  76.0109019  11.2335385  93.3331811  74.9497249  11.5545409
  89.0039004  76.5052922  18.3748969  88.3279641  76.4047051  19.0451344
  89.8266638  76.3492136  18.8384966  80.7517863  82.7424859  10.9961484
  81.3371300  81.9968547  11.1289389  80.5542701  83.0528815  11.8798148
  75.3435518  75.3130459   9.7165928  75.3819617  74.7794050  10.5103046
  74.8375811  74.7865664   9.0976905  82.7226280  70.1594999  13.2128470
  82.7867607  71.0209830  12.8005868  82.6593400  69.5469001  12.4800828
  82.1978553  72.2318132  16.8601504  82.8250591  71.8495209  17.4739028
  81.3406471  72.0132334  17.2257197  92.5972661  82.6381107  18.4655240
  93.1412565  83.2511065  17.9710194  92.0159506  83.1960686  18.9822253
  78.9744095  74.0394561   2.7919859  79.2697536  73.1305239   2.7386913
  78.0732131  74.0182300   2.4700861  82.5038342  72.1150558   8.7747408
  81.7824928  72.7286525   8.6354881  83.2931598  72.6508322   8.6964053
  85.3064656  69.4504984  15.0488059  85.8299058  69.6967281  15.8114369
  85.0876989  70.2825019  14.6291197  80.7031937  71.7208659   2.9159184
  80.3744643  70.8406038   2.7334290  81.0571308  71.6656327   3.8035573
  83.8173760  72.0081629   3.2834662  84.1569833  72.5367550   2.5613270
  84.2645881  72.3462035   4.0593228  86.5117201  70.3918679  12.7337730
  86.1714021  69.5926492  13.1358410  85.8056207  70.6920390  12.1614563
  87.1633673  67.4767992  11.1865053  87.9859742  67.0028470  11.0643943
  87.4071736  68.2558475  11.6863739  84.6872251  74.1687112   8.9957031
  84.5416832  74.4827415   9.8881313  84.2097455  74.7872013   8.4427930
  86.5468634  71.1589660   9.0437921  86.5330203  70.2630754   8.7070219
  87.2641062  71.1660324   9.6776207  88.3994765  71.5927000  11.0891048
  88.1412543  72.5144071  11.0875379  87.8679805  71.1957435  11.7791513
  79.1617914  76.7092457  11.9344693  78.6171382  77.4852265  12.0664967
  80.0397264  77.0563261  11.7763814  85.9505530  70.0404041   4.3125491
  86.0721442  69.1120687   4.5116379  85.6607573  70.0542727   3.4003807
  88.8196721  67.7258951   7.4492211  88.8418418  67.7898284   6.4944191
  89.2364780  66.8863460   7.6432717  79.9483936  75.8362353  14.8274849
  79.2065672  75.9844988  15.4139480  79.6276680  76.0970619  13.9641599
  87.8927598  85.3778331  14.6255240  88.2014725  85.1327478  15.4977939
  88.6903080  85.5824970  14.1374110  78.5949154  81.6414108   7.8174178
  77.7581063  81.2136282   7.6358179  78.5672800  81.8346551   8.7544969
  85.4346610  71.5536038  18.5215424  85.4834765  72.4298161  18.1393193
  85.9769124  71.0113431  17.9487067  95.9201456  82.0977161  17.8016561
  95.1296999  82.0801300  17.2621060  95.6834810  82.6365455  18.5565597
  96.0399331  78.9469628  15.1149289  96.0897336  78.7819635  16.0564812
  95.9313254  78.0796887  14.7247170  93.3303093  74.9300556  16.4308596
  94.2312956  74.7907020  16.1392594  93.4051067  75.0955010  17.3706774
  87.6645898  72.3067410  15.2761782  86.7949208  72.6000976  15.0044371
  87.9005379  72.8907855  15.9969046  97.5417527  81.3666569  15.3591311
  97.2502336  81.7296550  16.1954772  96.9289659  80.6533577  15.1804643
  95.7904716  76.4899184  13.8271369  96.2658837  76.6826830  13.0190220
  94.8670281  76.5458370  13.5814753  90.3684932  68.5247027  12.7927203
  90.8866876  69.2608054  12.4673691  90.0140065  68.8311021  13.6273962
  90.6197526  64.9447310   8.3128099  90.8999280  64.2770499   8.9388526
  91.4048133  65.1376405   7.8002763  94.4906385  73.3664944  12.0599675
  95.4423808  73.4663041  12.0811899  94.3209835  72.5743212  12.5697759
  92.5120764  70.4520527  12.2459075  91.9170696  70.7325540  11.5505564
  92.2270461  70.9414428  13.0175817  96.9694462  76.5871063  11.1741974
  96.9370783  75.6487064  11.3601658  97.5795086  76.6655100  10.4407799
  97.1188951  73.3782107  11.2200257  96.6028000  72.5940564  11.0330186
  98.0028899  73.0500824  11.3846777  94.7799678  67.1223122   7.1796070
  94.5824499  66.8138211   8.0639402  95.3899383  67.8484761   7.3094000
  88.6916486  79.5084863  18.6769835  89.6119495  79.6863462  18.8709882
  88.6566069  78.5640908  18.5249534  77.9098651  74.7023456   7.6023110
  77.5901435  73.8488764   7.3097484  77.3632079  74.9172034   8.3581077
  81.6878558  77.4185897  11.3192616  81.9064568  78.3503005  11.3380650
  82.1004332  77.0593872  12.1047420  88.6082776  67.9253983   3.3068305
  87.7983504  67.5801068   3.6823551  89.2967193  67.6161526   3.8955916
  90.5373324  67.0032029   4.9292601  91.0904363  67.4227483   5.5882624
  90.7743411  66.0767777   4.9715557  86.5606424  72.9919103  20.7095365
  86.4603151  73.9413460  20.6407456  86.3427966  72.6637342  19.8371435
  77.7786911  78.3226368   9.5716231  77.0850382  77.9080321   9.0586186
  78.5259902  78.3646904   8.9749650  92.3655698  68.5137612   6.6392586
  92.8655476  68.6254147   5.8306905  93.0091306  68.2098665   7.2793394
  86.4237694  76.4216242  19.5260427  85.9404775  77.2216602  19.7324316
  86.5098633  76.4324187  18.5727871  79.6923653  78.2544622   7.4482246
  79.6694341  78.3532309   6.4964129  80.0024290  79.1009772   7.7699412
  82.3511031  80.3120777  11.5628861  83.3054285  80.2804719  11.4958792
  82.1523555  79.8511400  12.3779087  82.9410413  78.8821893  14.1299658
  83.7603302  79.3765971  14.1534496  83.2147221  77.9653861  14.1017226
  96.0491546  71.2979166   7.2081953  96.8251936  71.7875618   7.4806570
  95.3239680  71.7237220   7.6653823  78.1945328  73.2160026  14.8291855
  78.8404191  72.7058980  15.3179081  77.9862479  73.9528708  15.4035281
  90.7198720  80.2840874  20.3283996  91.5889879  80.4581526  19.9670631
  90.2405471  81.1035291  20.2059725  84.8884900  87.4037975  12.0073430
  85.7912147  87.4361585  12.3239925  84.6622270  86.4738426  12.0219765
  90.5301058  64.0742848   4.8361688  89.7633453  63.5201334   4.9818371
  90.9411763  64.1464716   5.6975840  82.5342819  70.3627644  18.9266870
  83.3974280  70.0064448  19.1370194  81.9608229  70.0241538  19.6142274
  95.0924319  83.7708360  19.9196841  94.6991265  83.2174559  20.5944485
  95.9090460  84.0818939  20.3103359  98.0092280  85.1866239  17.5117098
  98.7501994  85.7873392  17.4321560  98.2410203  84.4443877  16.9535140
  93.0372307  87.5610050  16.8601504  93.6644346  87.1787127  17.4739028
  92.1800226  87.3424252  17.2257197  96.2740364  86.8827956  18.5215424
  96.3228520  87.7590078  18.1393193  96.8162879  86.3405349  17.9487067
  97.4000178  88.3211021  20.7095365  97.2996905  89.2705378  20.6407456
  97.1821720  87.9929260  19.8371435  89.0339082  88.5451944  14.8291855
  89.6797946  88.0350898  15.3179081  88.8256233  89.2820626  15.4035281
  93.3736573  85.6919561  18.9266870  94.2368035  85.3356366  19.1370194
  92.8001984  85.3533456  19.6142274  67.7144194  29.3326716   4.1128135
  67.2708048  28.5463095   3.7949039  68.3761407  29.5205867   3.4472025
  69.8125432  29.6129516   2.1409536  69.7943907  30.4338397   1.6489805
  70.7345352  29.4883592   2.3659677  70.7241273  26.2525355   4.5360254
  70.5726779  26.0235906   3.6190338  70.7145952  27.2095956   4.5491599
  72.4333480  29.2844477   2.6136736  72.3746026  28.6003697   1.9467319
  72.8352998  30.0263467   2.1617362  70.9185153  28.9859394   5.1900546
  71.4625057  29.5989353   4.6955501  70.3371998  29.5438973   5.7067559
  74.2413948  28.4455448   4.5261867  73.4509492  28.4279587   3.9866367
  74.0047302  28.9843742   5.2810904  75.8630020  27.7144856   2.0836618
  75.5714828  28.0774837   2.9200079  75.2502151  27.0011865   1.9049950
  69.0411212  26.6319161   7.0529303  69.9102372  26.8059813   6.6915938
  68.5617964  27.4513578   6.9305032  80.7003688  38.3407787  -3.5425423
  81.3382098  38.2214534  -4.2462083  80.5824531  39.2888631  -3.4837471
  77.5093394  38.2935215  -3.6063898  77.1711906  38.1776280  -4.4943363
  78.3783162  37.8926380  -3.6262892  77.9913177  39.4470067   2.3522308
  77.9801818  39.0522865   1.4802811  78.1533817  38.7136140   2.9456079
  70.9144642  41.6421883  -4.7782787  71.7065934  41.3012708  -5.1936487
  71.1541292  41.7516858  -3.8580633  74.7120438  42.2307179   1.3001491
  74.4210304  43.1352810   1.1848158  75.3477423  42.2723706   2.0145561
  75.6376645  39.6084027  -2.1097149  76.2340217  39.3840050  -2.8240186
  75.6951617  38.8668773  -1.5071701  83.1778804  29.7156048  -1.1044628
  82.8462129  30.5851459  -1.3283413  82.5824417  29.3992332  -0.4250597
  79.6710323  41.9168594  -1.7048715  79.3711046  42.8193633  -1.8132908
  79.3261383  41.6500777  -0.8527562  83.0707467  34.4351134  -4.0251277
  82.1624344  34.3666543  -4.3192517  83.0195063  34.9123079  -3.1969452
  74.6531103  48.6812915  -8.7377747  74.5755133  49.6320740  -8.6589267
  74.0492747  48.3358787  -8.0802821  77.1448333  35.8540780   3.9183620
  76.3681667  36.4134700   3.9086484  77.7838896  36.3397563   4.4398490
  84.9369113  32.6367573  -2.2473404  84.2943494  32.9300106  -2.8933609
  84.4324042  32.5220493  -1.4420207  75.3994705  38.6626233   3.4801587
  76.1409390  39.2011277   3.2036410  74.6931691  39.2892522   3.6373139
  80.8750045  40.8055374   2.0773748  81.2833401  40.3637784   1.3328381
  80.1527306  40.2308001   2.3307941  77.2281115  35.7427981  -0.5492695
  78.0742310  36.1667394  -0.4058046  77.1679753  35.0861605   0.1445868
  81.1978859  41.3656564  -4.1673963  80.5687722  41.5302279  -4.8697895
  80.8104522  41.7798174  -3.3962999  85.0768091  42.3011002  -6.8129599
  84.3919130  42.6809904  -7.3632566  85.1611941  42.9106329  -6.0797651
  80.3780560  33.4032349   1.1088479  80.1341492  34.1574410   0.5722755
  80.6540491  33.7817697   1.9435726  82.3319023  39.9470961  -0.2134256
  82.5435918  40.5902721  -0.8899874  82.2848771  39.1133278  -0.6812325
  76.7506821  41.1030973  -6.9023878  77.2145167  41.3818676  -7.6919255
  76.4863619  40.2014417  -7.0850787  73.6430902  40.6502454  -3.9644114
  74.2132259  41.0789722  -4.6026630  74.2339014  40.3685039  -3.2659929
  74.1356069  35.8165882   4.2816897  73.5054730  36.4982162   4.5152294
  74.0292157  35.7048963   3.3370035  83.4464851  42.8242917  -2.0411898
  84.2682295  42.4223104  -2.3229217  83.4427254  42.7211151  -1.0895782
  77.2121454  42.3726960   0.1148812  77.2765887  42.8347367   0.9506984
  76.5032378  41.7424325   0.2431122  73.4136812  30.1186647   6.6442148
  73.0203757  29.5652846   7.3189792  74.2302952  30.4297226   7.0348665
  72.1893754  44.6736262  -7.3621529  72.3660382  45.5954227  -7.5500545
  72.9850588  44.3594681  -6.9327149  76.3304773  31.5344527   4.2362404
  77.0714486  32.1351680   4.1566867  76.5622695  30.7922164   3.6780447
  71.4746111  36.7200894   2.5140634  71.3599626  35.8186151   2.8147733
  70.6190628  36.9664591   2.1625451  78.5537948  44.6618634   4.1128135
  78.1101803  43.8755013   3.7949039  79.2155162  44.8497785   3.4472025
  73.3125070  46.1914436  -1.3611187  73.8632495  46.0631499  -2.1334193
  72.4736545  46.4909325  -1.7116294  80.6519186  44.9421434   2.1409536
  80.6337662  45.7630315   1.6489805  81.5739107  44.8175509   2.3659677
  77.1092241  42.4565564   2.9833044  77.6420577  41.6953852   2.7532352
  76.5806322  42.1639215   3.7257199  83.4537799  39.7800576  -4.3881097
  82.7961474  40.4699838  -4.3000969  84.2578199  40.1697008  -4.0447111
  82.2643258  38.1344949  -6.3377156  82.7775140  38.7674941  -5.8355446
  82.9144482  37.5346145  -6.7033796  78.7424089  35.6094405  -4.0918815
  77.8246650  35.8309352  -4.2497127  79.1584233  35.6840715  -4.9507108
  83.0305054  43.1150951  -8.2098013  82.5767381  42.2741860  -8.1532822
  82.3999021  43.7512349  -7.8723233  81.4737994  44.9527447  -7.2748195
  81.7660968  45.5132504  -7.9935829  81.9836614  45.2456008  -6.5195036
  76.4371619  45.7307798  -6.1854742  76.3947798  45.9568645  -7.1146210
  77.3534318  45.4971173  -6.0368940  79.8837253  36.1991866   0.7125888
  80.2386640  36.4263339   1.5720353  80.5309384  36.5310243   0.0903143
  85.6404369  41.3886829  -3.5713512  86.0740876  41.2962118  -2.7230458
  86.3535950  41.3644329  -4.2093496  74.5537420  42.6070827  -6.3892779
  75.3478018  42.1121148  -6.5910204  73.8429112  42.0788691  -6.7525073
  79.3732264  44.9888923  -2.0380411  79.4269286  45.5579859  -1.2702695
  78.5047045  45.1590808  -2.4026374  72.2530657  34.6906479  -0.5555960
  72.9253711  34.4823841  -1.2043311  71.4260444  34.4928565  -0.9950728
  86.5019919  41.4310529  -1.0380626  86.6955809  42.3356340  -0.7921352
  86.4020537  40.9717949  -0.2042041  78.1556229  31.3168420   1.4609701
  77.5084144  32.0158370   1.3674177  78.9257245  31.7504564   1.8285949
  81.5635027  41.5817272   4.5360254  81.4120534  41.3527824   3.6190338
  81.5539707  42.5387874   4.5491599  78.3320364  39.1549185  -0.4793479
  79.2612424  39.3060345  -0.6524512  77.9111394  39.2433206  -1.3344833
  77.1308696  43.1799849  -2.7094942  76.9919781  42.8118634  -1.8369004
  76.3423292  43.6947489  -2.8810984  77.7256848  48.2808946 -11.3669405
  77.9008603  47.8096989 -10.5523783  77.0389636  48.9074712 -11.1388145
  78.6813911  42.5581452  -5.3206104  78.3463743  42.5182222  -4.4248454
  78.1817856  41.8926168  -5.7935694  72.6558155  37.9649082   0.2046477
  72.5177953  37.2329321   0.8058016  73.5663078  37.8757982  -0.0769335
  75.2840455  37.6769041  -0.3069843  75.9940074  37.0362234  -0.3483225
  75.2409763  37.9281936   0.6156338  83.2727234  44.6136395   2.6136736
  83.2139780  43.9295615   1.9467319  83.6746752  45.3555385   2.1617362
  73.9969389  34.6634259   1.5125796  73.4606746  34.2124998   2.1647393
  73.4086098  34.7980168   0.7696261  72.2917933  51.4298309  -4.5929545
  72.5314531  52.0616833  -3.9150527  71.4487129  51.0786349  -4.3064186
  83.2744641  42.5775979   0.8450716  82.3871420  42.2401901   0.9677115
  83.8443192  41.8459010   1.0819481  76.8045795  47.2377431  -2.1888041
  76.7315966  48.0432403  -1.6768737  76.3623188  47.4369397  -3.0140020
  76.5935574  46.4749201  -8.6785220  75.8103096  47.0170881  -8.5846995
  77.2928319  46.9923181  -8.2790978  79.2644478  47.1364265  -0.0329882
  79.9772450  47.7711730  -0.1053981  78.7734507  47.2328131  -0.8489881
  80.9862005  41.0415518  -8.4612591  80.0518284  41.1616980  -8.6307886
  81.1638674  40.1387985  -8.7252581  74.3156392  44.8858709   0.7875688
  75.0165851  45.5195192   0.9405083  73.8451507  45.2273440   0.0271328
  82.1157678  37.4403316  -1.3871761  81.4629128  37.6879223  -2.0419309
  82.4938058  36.6267454  -1.7209284  79.0764852  47.4763009  -7.2843591
  79.2587246  46.6584665  -6.8215839  79.8997838  47.6930701  -7.7218701
  79.4107017  46.4031194 -10.0228543  79.9394784  45.8923649 -10.6358380
  79.6735237  46.0873725  -9.1583009  78.1645251  38.1823127   5.0994276
  77.4885888  38.0817256   5.7696651  78.9872885  38.0262341   5.5630273
  69.9124110  44.4195064  -2.2793209  70.4977547  43.6738752  -2.1465305
  69.7148948  44.7299020  -1.3956545  72.7662765  47.4546311  -7.2630767
  72.0973140  47.9392439  -7.7466727  72.6275635  47.7015531  -6.3487388
  76.9068034  49.4890055  -0.6648108  77.4586342  49.6521676   0.1000977
  77.2474227  50.0794492  -1.3368083  71.3584799  33.9088337   3.5846811
  71.9856838  33.5265414   4.1984335  70.5012718  33.6902539   3.9502503
  81.7578908  44.3151312   5.1900546  82.3018812  44.9281270   4.6955501
  81.1765753  44.8730890   5.7067559  80.0436421  47.4372030  -3.6784426
  79.9187560  46.6361770  -4.1873481  80.7015512  47.9318223  -4.1670456
  82.1071329  45.2381050  -2.0504876  81.1601665  45.1186401  -2.1226549
  82.4554102  44.3503548  -1.9678615  74.4670903  31.1275189   1.7733366
  74.9905304  31.3737486   2.5359675  74.2483236  31.9595224   1.3536503
  79.1117763  45.0333766  -5.8500524  78.9642725  44.1050474  -5.6692954
  79.9371256  45.0553857  -6.3343449  82.7151884  45.8562325  -4.7635651
  83.6398432  45.6505186  -4.9011200  82.5467188  45.6078726  -3.8546309
  75.6723448  32.0688884  -0.5416964  75.3320268  31.2696697  -0.1396284
  74.9662454  32.3690595  -1.1140130  77.5601012  33.2697205  -2.1863645
  77.3018790  34.1914276  -2.1879314  77.0286052  32.8727640  -1.4963181
  82.5047201  46.3747993  -9.4073560  82.6784078  45.8094415 -10.1599707
  82.9976092  47.1748887  -9.5894070  68.3224160  38.3862662  -1.3410001
  67.7777628  39.1622470  -1.2089726  69.2003510  38.7333466  -1.4990879
  69.1090182  37.5132558   1.5520156  68.3671918  37.6615193   2.1384787
  68.7882927  37.7740823   0.6886906  77.0533845  47.0548536   1.3500546
  77.3620971  46.8097683   2.2223246  77.8509327  47.2595175   0.8619416
  77.0754457  49.2086446  -6.4194077  76.6359447  48.7162824  -5.7261221
  77.8262574  48.6659413  -6.6602002  69.5546796  45.3997987  -6.4169449
  70.3804816  45.1001758  -6.7970806  69.2040848  44.6305609  -5.9679661
  74.5228329  44.7524455  -4.3471776  73.9008338  44.0895160  -4.6469548
  75.1933196  44.7785587  -5.0298128  74.5952857  33.2306243   5.2460730
  74.6441012  34.1068366   4.8638500  75.1375371  32.6883636   4.6732374
  85.0807702  43.7747366   4.5261867  84.2903246  43.7571505   3.9866367
  84.8441057  44.3135660   5.2810904  85.2005577  40.6239832   1.8394596
  85.2503582  40.4589840   2.7810119  85.0919501  39.7567091   1.4492477
  82.4909340  36.6070760   3.1553903  83.3919202  36.4677225   2.8637901
  82.5657314  36.7725215   4.0952080  76.8252145  33.9837615   2.0007089
  75.9555454  34.2771181   1.7289678  77.0611625  34.5678060   2.7214353
  86.7023774  43.0436774   2.0836618  86.4108582  43.4066755   2.9200079
  86.0895905  42.3303782   1.9049950  84.9510962  38.1669389   0.5516676
  85.4265084  38.3597035  -0.2564473  84.0276528  38.2228574   0.3060059
  79.5291179  30.2017232  -0.4827491  80.0473123  30.9378259  -0.8081002
  79.1746312  30.5081225   0.3519269  83.6512631  35.0435149  -1.2155019
  84.6030054  35.1433246  -1.1942795  83.4816082  34.2513417  -0.7056934
  81.6727011  32.1290732  -1.0295618  81.0776943  32.4095745  -1.7249129
  81.3876708  32.6184633  -0.2578877  86.1300709  38.2641268  -2.1012719
  86.0977029  37.3257269  -1.9153035  86.7401333  38.3425305  -2.8346894
  77.8522733  41.1855067   5.4015142  78.7725742  41.3633667   5.5955188
  77.8172316  40.2411113   5.2494841  70.8484805  39.0956102  -1.9562077
  71.0670815  40.0273210  -1.9374043  71.2610579  38.7364077  -1.1707273
  75.7212670  34.6689308   7.4340672  75.6209397  35.6183665   7.3652763
  75.5034213  34.3407547   6.5616742  75.5843941  38.0986447   6.2505734
  75.1011022  38.8986807   6.4569623  75.6704880  38.1094392   5.2973178
  71.5117278  41.9890981  -1.7125833  72.4660532  41.9574924  -1.7795901
  71.3129802  41.5281605  -0.8975607  72.1016660  40.5592098   0.8544965
  72.9209549  41.0536176   0.8779802  72.3753468  39.6424066   0.8262533
  69.8667507  47.5310601  -4.6955635  69.7321975  46.7711002  -5.2617637
  69.4499569  48.2551501  -5.1626846  73.0236633  48.4279918  -4.4837192
  72.9069017  49.3725350  -4.5858502  72.2029079  48.1253480  -4.0951393
  67.3551574  34.8930231   1.5537162  68.0010438  34.3829185   2.0424387
  67.1468725  35.6298913   2.1280587  79.8804967  41.9611079   7.0529303
  80.7496126  42.1351731   6.6915938  79.4011718  42.7805496   6.9305032
  74.0491147  49.0808180  -1.2681264  74.9518393  49.1131790  -0.9514769
  73.8228517  48.1508631  -1.2534928  75.8044749  47.8339166  -4.6071185
  74.8540380  47.8341028  -4.7206813  76.1077235  47.0871901  -5.1235150
  71.6949065  32.0397848   5.6512176  72.5580527  31.6834653   5.8615501
  71.1214476  31.7011743   6.3387581  91.5397442  53.6699705  -3.5425423
  92.1775852  53.5506452  -4.2462083  91.4218285  54.6180549  -3.4837471
  88.3487149  53.6227133  -3.6063898  88.0105660  53.5068198  -4.4943363
  89.2176917  53.2218298  -3.6262892  88.8306932  54.7761985   2.3522308
  88.8195572  54.3814783   1.4802811  88.9927571  54.0428057   2.9456079
  81.7538396  56.9713801  -4.7782787  82.5459688  56.6304626  -5.1936487
  81.9935046  57.0808776  -3.8580633  85.5514193  57.5599096   1.3001491
  85.2604059  58.4644727   1.1848158  86.1871177  57.6015624   2.0145561
  86.4770400  54.9375945  -2.1097149  87.0733972  54.7131967  -2.8240186
  86.5345371  54.1960690  -1.5071701  91.0938711  51.3951159  -6.4672215
  91.8801800  50.9770582  -6.8181798  91.3577415  52.2997251  -6.2990566
  94.0172558  45.0447966  -1.1044628  93.6855883  45.9143377  -1.3283413
  93.4218172  44.7284250  -0.4250597  90.5104078  57.2460512  -1.7048715
  90.2104801  58.1485551  -1.8132908  90.1655137  56.9792695  -0.8527562
  83.9616559  53.6974309  -5.6712010  83.0367056  53.5650523  -5.4634319
  84.2100972  54.4768528  -5.1742068  93.9101222  49.7643052  -4.0251277
  93.0018099  49.6958461  -4.3192517  93.8588817  50.2414997  -3.1969452
  81.3225370  53.3407582  -4.8368221  81.4517751  53.5942061  -3.9228810
  80.6422822  53.9335290  -5.1563566  87.9842087  51.1832698   3.9183620
  87.2075421  51.7426618   3.9086484  88.6232650  51.6689481   4.4398490
  95.7762868  47.9659491  -2.2473404  95.1337248  48.2592024  -2.8933609
  95.2717797  47.8512411  -1.4420207  86.2388460  53.9918151   3.4801587
  86.9803144  54.5303195   3.2036410  85.5325445  54.6184440   3.6373139
  91.7143799  56.1347292   2.0773748  92.1227155  55.6929702   1.3328381
  90.9921061  55.5599919   2.3307941  88.0674869  51.0719898  -0.5492695
  88.9136065  51.4959312  -0.4058046  88.0073507  50.4153523   0.1445868
  91.2174315  48.7324267   1.1088479  90.9735247  49.4866327   0.5722755
  91.4934245  49.1109614   1.9435726  93.1712777  55.2762879  -0.2134256
  93.3829673  55.9194639  -0.8899874  93.1242526  54.4425196  -0.6812325
  90.7739006  47.8880700  -3.3097683  89.9123485  48.1861953  -3.0180946
  90.8001441  48.1051099  -4.2416651  84.4824657  55.9794372  -3.9644114
  85.0526014  56.4081640  -4.6026630  85.0732769  55.6976957  -3.2659929
  84.9749823  51.1457799   4.2816897  84.3448484  51.8274080   4.5152294
  84.8685911  51.0340881   3.3370035  80.2694796  50.8129595  -4.7917179
  79.4793850  51.0687124  -5.2677068  80.7606043  51.6277933  -4.6865139
  82.2209541  51.1774175  -7.8333702  81.4240705  51.2892869  -7.3150207
  81.9935133  51.5160827  -8.6992812  88.0515209  57.7018878   0.1148812
  88.1159641  58.1639285   0.9506984  87.3426133  57.0716243   0.2431122
  78.5532499  51.0660086  -2.3602188  78.8040537  51.9507096  -2.0944612
  79.0892047  50.8864687  -3.1327096  84.2530566  45.4478565   6.6442148
  83.8597512  44.8944764   7.3189792  85.0696706  45.7589144   7.0348665
  87.1698527  46.8636444   4.2362404  87.9108241  47.4643597   4.1566867
  87.4016450  46.1214082   3.6780447  82.3139865  52.0492811   2.5140634
  82.1993380  51.1478069   2.8147733  81.4584383  52.2956508   2.1625451
  89.3931703  59.9910552   4.1128135  88.9495557  59.2046930   3.7949039
  90.0548916  60.1789702   3.4472025  84.1518824  61.5206353  -1.3611187
  84.7026249  61.3923417  -2.1334193  83.3130300  61.8201242  -1.7116294
  91.4912941  60.2713352   2.1409536  91.4731416  61.0922233   1.6489805
  92.4132861  60.1467427   2.3659677  87.9485995  57.7857481   2.9833044
  88.4814332  57.0245769   2.7532352  87.4200076  57.4931133   3.7257199
  91.1155690  42.8917547  -1.4873314  90.7719959  43.7819189  -1.5634203
  91.4834653  42.7019205  -2.3503729  79.1841541  55.2151078  -8.6684712
  80.0216763  55.6248086  -8.8851004  79.3619808  54.2750520  -8.6984518
  90.1952230  45.2622202  -3.5224081  89.6917026  45.2252337  -4.3356275
  90.4882837  46.1714945  -3.4627424  86.4395116  45.3460932  -4.5157899
  87.3048113  45.1503741  -4.8752009  86.5072625  45.1171284  -3.5888542
  84.0457435  47.5763140  -7.1441532  84.6201187  47.3538321  -7.8768339
  84.6328418  47.6451834  -6.3912931  89.5817843  50.9386322  -4.0918815
  88.6640405  51.1601269  -4.2497127  89.9977987  51.0132633  -4.9507108
  79.2067712  52.5541793  -7.9973978  79.0092112  51.9611154  -8.7222912
  78.6514376  52.2494003  -7.2798040  87.1864435  52.4464899  -5.8779385
  87.2413045  51.4938736  -5.9536909  86.3755637  52.6024338  -5.3938087
  85.1256795  51.0641959  -8.1189006  84.3124661  51.3636130  -7.7123814
  85.6215790  50.6697648  -7.4014524  90.7231007  51.5283784   0.7125888
  91.0780395  51.7555257   1.5720353  91.3703138  51.8602160   0.0903143
  84.6170870  48.6360315  -2.5027771  85.2570249  48.4949074  -3.2004808
  83.7848401  48.3494828  -2.8789169  90.2126019  60.3180841  -2.0380411
  90.2663041  60.8871777  -1.2702695  89.3440800  60.4882726  -2.4026374
  81.6199487  48.6060640  -7.7254785  81.8806304  49.5205973  -7.8345624
  82.4416659  48.1385082  -7.5758172  83.0924412  50.0198397  -0.5555960
  83.7647465  49.8115759  -1.2043311  82.2654198  49.8220483  -0.9950728
  88.9949984  46.6460338   1.4609701  88.3477899  47.3450287   1.3674177
  89.7650999  47.0796482   1.8285949  92.4028782  56.9109190   4.5360254
  92.2514288  56.6819742   3.6190338  92.3933461  57.8679791   4.5491599
  89.1714118  54.4841103  -0.4793479  90.1006178  54.6352262  -0.6524512
  88.7505148  54.5725123  -1.3344833  87.9702450  58.5091767  -2.7094942
  87.8313536  58.1410551  -1.8369004  87.1817046  59.0239406  -2.8810984
  83.4951909  53.2941000   0.2046477  83.3571707  52.5621239   0.8058016
  84.4056833  53.2049900  -0.0769335  86.1234210  53.0060959  -0.3069843
  86.8333828  52.3654151  -0.3483225  86.0803518  53.2573854   0.6156338
  94.1120989  59.9428312   2.6136736  94.0533535  59.2587533   1.9467319
  94.5140507  60.6847302   2.1617362  84.8363144  49.9926177   1.5125796
  84.3000501  49.5416915   2.1647393  84.2479852  50.1272086   0.7696261
  94.1138396  57.9067896   0.8450716  93.2265175  57.5693818   0.9677115
  94.6836947  57.1750928   1.0819481  75.7667543  54.2391988  -5.8306233
  76.4538583  53.9253718  -6.4185218  75.6115672  55.1433353  -6.1038982
  80.5702265  49.1282185  -1.4021209  80.4860454  48.5207854  -2.1370799
  79.7484971  49.6191203  -1.4011713  90.1038233  62.4656183  -0.0329882
  90.8166205  63.1003648  -0.1053981  89.6128261  62.5620049  -0.8489881
  87.3260948  49.7553131  -6.3079330  86.9558735  49.2024172  -5.6198424
  87.8220040  49.1511265  -6.8604330  85.1550146  60.2150626   0.7875688
  85.8559606  60.8487109   0.9405083  84.6845261  60.5565358   0.0271328
  92.9551432  52.7695234  -1.3871761  92.3022882  53.0171141  -2.0419309
  93.3331812  51.9559372  -1.7209284  89.0039005  53.5115045   5.0994276
  88.3279642  53.4109174   5.7696651  89.8266639  53.3554258   5.5630273
  80.7517864  59.7486981  -2.2793209  81.3371301  59.0030669  -2.1465305
  80.5542703  60.0590938  -1.3956545  75.3435519  52.3192581  -3.5588766
  75.3819619  51.7856172  -2.7651648  74.8375812  51.7927787  -4.1777789
  82.7226281  47.1657122  -0.0626224  82.7867608  48.0271953  -0.4748826
  82.6593402  46.5531124  -0.7953865  82.1978554  49.2380255   3.5846811
  82.8250593  48.8557332   4.1984335  81.3406473  49.0194456   3.9502503
  92.5972662  59.6443230   5.1900546  93.1412566  60.2573188   4.6955501
  92.0159507  60.2022808   5.7067559  78.9744097  51.0456684 -10.4834834
  79.2697538  50.1367362 -10.5367781  78.0732132  51.0244423 -10.8053832
  82.5038344  49.1212680  -4.5007286  81.7824929  49.7348648  -4.6399813
  83.2931599  49.6570445  -4.5790640  85.3064657  46.4567107   1.7733366
  85.8299059  46.7029403   2.5359675  85.0876990  47.2887142   1.3536503
  80.7031938  48.7270781 -10.3595509  80.3744644  47.8468160 -10.5420403
  81.0571309  48.6718450  -9.4719120  83.8173761  49.0143751  -9.9920032
  84.1569834  49.5429672 -10.7141423  84.2645882  49.3524157  -9.2161465
  86.5117202  47.3980802  -0.5416964  86.1714023  46.5988615  -0.1396284
  85.8056208  47.6982513  -1.1140130  87.1633674  44.4830114  -2.0889641
  87.9859743  44.0090592  -2.2110750  87.4071738  45.2620598  -1.5890954
  84.6872253  51.1749235  -4.2797662  84.5416833  51.4889538  -3.3873380
  84.2097456  51.7934135  -4.8326763  86.5468636  48.1651783  -4.2316772
  86.5330204  47.2692876  -4.5684474  87.2641064  48.1722447  -3.5978486
  88.3994766  48.5989123  -2.1863645  88.1412544  49.5206194  -2.1879314
  87.8679807  48.2019558  -1.4963181  79.1617915  53.7154579  -1.3410001
  78.6171383  54.4914387  -1.2089726  80.0397265  54.0625384  -1.4990879
  85.9505532  47.0466163  -8.9629202  86.0721443  46.1182809  -8.7638315
  85.6607574  47.0604849  -9.8750887  79.9483937  52.8424476   1.5520156
  79.2065673  52.9907111   2.1384787  79.6276681  53.1032741   0.6886906
  87.8927599  62.3840454   1.3500546  88.2014726  62.1389601   2.2223246
  88.6903081  62.5887092   0.8619416  78.5949155  58.6476231  -5.4580516
  77.7581064  58.2198405  -5.6396514  78.5672801  58.8408674  -4.5209724
  85.4346611  48.5598161   5.2460730  85.4834767  49.4360283   4.8638500
  85.9769125  48.0175554   4.6732374  95.9201457  59.1039284   4.5261867
  95.1297000  59.0863423   3.9866367  95.6834811  59.6427577   5.2810904
  96.0399332  55.9531750   1.8394596  96.0897337  55.7881758   2.7810119
  95.9313255  55.0859009   1.4492477  93.3303094  51.9362678   3.1553903
  94.2312957  51.7969143   2.8637901  93.4051069  52.1017133   4.0952080
  87.6645900  49.3129533   2.0007089  86.7949209  49.6063099   1.7289678
  87.9005380  49.8969978   2.7214353  97.5417529  58.3728692   2.0836618
  97.2502337  58.7358672   2.9200079  96.9289660  57.6595700   1.9049950
  95.7904717  53.4961306   0.5516676  96.2658838  53.6888953  -0.2564473
  94.8670282  53.5520492   0.3060059  90.3684933  45.5309150  -0.4827491
  90.8866877  46.2670177  -0.8081002  90.0140066  45.8373143   0.3519269
  94.4906386  50.3727066  -1.2155019  95.4423809  50.4725164  -1.1942795
  94.3209836  49.5805335  -0.7056934  92.5120765  47.4582650  -1.0295618
  91.9170697  47.7387662  -1.7249129  92.2270462  47.9476551  -0.2578877
  96.9694464  53.5933186  -2.1012719  96.9370784  52.6549187  -1.9153035
  97.5795087  53.6717223  -2.8346894  88.6916487  56.5146985   5.4015142
  89.6119497  56.6925584   5.5955188  88.6566070  55.5703031   5.2494841
  77.9098652  51.7085579  -5.6731584  77.5901436  50.8550887  -5.9657210
  77.3632080  51.9234157  -4.9173616  81.6878560  54.4248020  -1.9562077
  81.9064569  55.3565128  -1.9374043  82.1004333  54.0655994  -1.1707273
  86.5606425  49.9981226   7.4340672  86.4603152  50.9475583   7.3652763
  86.3427967  49.6699464   6.5616742  77.7786912  55.3288490  -3.7038462
  77.0850384  54.9142443  -4.2168508  78.5259903  55.3709027  -4.3005043
  86.4237695  53.4278364   6.2505734  85.9404777  54.2278725   6.4569623
  86.5098634  53.4386309   5.2973178  79.6923655  55.2606744  -5.8272447
  79.6694343  55.3594431  -6.7790564  80.0024291  56.1071895  -5.5055281
  82.3511032  57.3182899  -1.7125833  83.3054286  57.2866841  -1.7795901
  82.1523556  56.8573523  -0.8975607  82.9410415  55.8884015   0.8544965
  83.7603304  56.3828094   0.8779802  83.2147222  54.9715983   0.8262533
  78.1945329  50.2222149   1.5537162  78.8404192  49.7121103   2.0424387
  77.9862480  50.9590831   2.1280587  90.7198721  57.2902997   7.0529303
  91.5889881  57.4643649   6.6915938  90.2405473  58.1097413   6.9305032
  84.8884901  64.4100098  -1.2681264  85.7912148  64.4423708  -0.9514769
  84.6622271  63.4800548  -1.2534928  82.5342820  47.3689766   5.6512176
  83.3974281  47.0126571   5.8615501  81.9608231  47.0303661   6.3387581
  95.0924321  60.7770483   6.6442148  94.6991266  60.2236681   7.3189792
  95.9090461  61.0881061   7.0348665  98.0092282  62.1928362   4.2362404
  98.7501995  62.7935515   4.1566867  98.2410204  61.4506000   3.6780447
  93.0372308  64.5672172   3.5846811  93.6644347  64.1849250   4.1984335
  92.1800227  64.3486374   3.9502503  96.2740366  63.8890078   5.2460730
  96.3228521  64.7652201   4.8638500  96.8162880  63.3467471   4.6732374
  97.4000179  65.3273143   7.4340672  97.2996906  66.2767500   7.3652763
  97.1821721  64.9991382   6.5616742  89.0339083  65.5514067   1.5537162
  89.6797947  65.0413021   2.0424387  88.8256234  66.2882748   2.1280587
  93.3736574  62.6981684   5.6512176  94.2368036  62.3418489   5.8615501
  92.8001985  62.3595579   6.3387581   4.8220801 100.4849341  73.9601230
   4.0684509  99.9156739  73.8045235   4.9568342 100.4512006  74.9071865
   1.6436548 100.4552092  71.8644897   2.0867694  99.7059417  71.4664021
   0.7663059 100.4462228  71.4818629   1.1869413 101.9257330  74.2567345
   2.0216304 102.3647134  74.4204905   1.3228542 101.4495983  73.4375591
   5.2327216 100.6424951  76.6921475   5.9630604 100.3810239  77.2529178
   4.6234161  99.9053673  76.7323543   3.3142513  98.7832814  77.2895926
   2.5875676  98.6488779  76.6812417   2.8989800  99.0909642  78.0952644
   0.9320308  95.0044666  74.6429357   1.5264798  94.7640402  73.9322666
   1.0046891  94.2851797  75.2702894   3.2391380  98.3110867  73.4172779
   2.6790938  98.3804056  74.1904341   2.6334884  98.1351852  72.6972275
   4.4005647 104.2085223  78.1654843   4.0569916 105.0986865  78.0893954
   4.7684609 104.0186881  77.3024428   6.1993312 103.4678782  73.2672581
   6.5052189 102.6076146  72.9798496   6.9245917 104.0596403  73.0671575
   6.4694930 105.8973018  75.7656502   5.5558010 106.1277245  75.9338709
   6.8988032 105.9811462  76.6170534   3.9047484 103.2677108  74.6901563
   4.1849238 102.6000297  75.3161990   4.6898091 103.4606204  74.1776227
   8.0649636 105.4452921  73.5569534   7.8674457 105.1368009  74.4412866
   8.6749341 106.1714560  73.6867464   3.8223282 105.3261828  71.3066065
   4.3754321 105.7457281  71.9656088   4.0593369 104.3997576  71.3489021
   3.8151015 102.3972646  71.2135152   3.0483411 101.8431133  71.3591835
   4.2261720 102.4694515  72.0749304   4.8220802  77.4911464  60.6846537
   4.0684510  76.9218862  60.5290541   4.9568343  77.4574128  61.6317172
   1.6436550  77.4614214  58.5890204   2.0867696  76.7121539  58.1909327
   0.7663060  77.4524350  58.2063936   1.1869414  78.9319452  60.9812652
   2.0216306  79.3709256  61.1450212   1.3228543  78.4558106  60.1620897
   5.2327217  77.6487074  63.4166781   5.9630605  77.3872362  63.9774485
   4.6234162  76.9115796  63.4568849   3.3142514  75.7894936  64.0141233
   2.5875678  75.6550901  63.4057724   2.8989801  76.0971765  64.8197951
   0.9320309  72.0106789  61.3674664   1.5264800  71.7702525  60.6567972
   1.0046893  71.2913919  61.9948200   3.2391382  75.3172990  60.1418085
   2.6790940  75.3866179  60.9149647   2.6334885  75.1413974  59.4217582
   4.8247400  91.9929503  62.8348041   5.4625810  91.8736251  62.1311381
   4.7068243  92.9410347  62.8935993   1.6337106  91.9456932  62.7709566
   1.2955618  91.8297996  61.8830101   2.5026875  91.5448097  62.7510572
   2.1156889  93.0991783  68.7295771   2.1045530  92.7044582  67.8576275
   2.2777529  92.3657856  69.3229543   3.0723481  97.4663376  54.0720922
   2.4211461  98.0517456  53.6854935   3.8667844  97.9969571  54.1315959
   4.3788669  89.7180957  59.9101249   5.1651758  89.3000380  59.5591666
   4.6427373  90.6227049  60.0782897   4.5498746  95.1553808  54.6089906
   3.9144579  95.2288434  55.3210811   4.2196152  95.7447406  53.9308985
   9.7797096  89.6556190  60.8134228  10.5122268  89.0855407  61.0472057
   9.0236451  89.2677791  61.2540733   1.3973215  92.0783432  58.0097570
   1.0331423  91.5514053  58.7210492   2.2540331  91.6881901  57.8364055
   7.3022516  83.3677765  65.2728836   6.9705841  84.2373176  65.0490051
   6.7068129  83.0514049  65.9522867   1.0378702  87.1073332  53.0058919
   1.2053105  87.9753568  53.3729390   0.8475871  87.2700613  52.0820208
   3.7954036  95.5690311  64.6724749   3.4954759  96.4715349  64.5640556
   3.4505095  95.3022494  65.5245902   7.1951179  88.0872851  62.3522186
   6.2868057  88.0188259  62.0580947   7.1438775  88.5644796  63.1804012
   1.2692045  89.5062496  70.2957084   0.4925379  90.0656417  70.2859948
   1.9082608  89.9919279  70.8171954   9.0612826  86.2889289  64.1300060
   8.4187206  86.5821822  63.4839855   8.5567754  86.1742210  64.9353257
   6.7152989  90.0352462  54.8185919   7.6270846  90.2679849  54.6433617
   6.2062637  90.6189507  54.2560998   4.9993757  94.4577090  68.4547212
   5.4077113  94.0159501  67.7101844   4.2771019  93.8829718  68.7081405
   1.3524827  89.3949697  65.8280769   2.1986022  89.8189111  65.9715418
   1.2923465  88.7383321  66.5219332   5.3222572  95.0178281  62.2099501
   4.6931434  95.1823995  61.5075569   4.9348234  95.4319890  62.9810465
   9.2011804  95.9532719  59.5643865   8.5162842  96.3331620  59.0140898
   9.2855653  96.5628045  60.2975812   4.5024272  87.0554065  67.4861943
   4.2585204  87.8096126  66.9496218   4.7784203  87.4339413  68.3209190
   6.4562735  93.5992678  66.1639208   6.6679630  94.2424438  65.4873589
   6.4092484  92.7654994  65.6961138   4.0588964  86.2110498  63.0675780
   3.1973443  86.5091752  63.3592518   4.0851399  86.4280897  62.1356813
   0.8750534  94.7552689  59.4749586   1.3388879  95.0340392  58.6854208
   0.6107332  93.8536133  59.2922677   7.5708563  96.4764633  64.3361566
   8.3926007  96.0744820  64.0544247   7.5670966  96.3732867  65.2877681
   1.3365167  96.0248676  66.4922276   1.4009599  96.4869084  67.3280448
   0.6276091  95.3946041  66.6204586  15.6614556  92.8203382  60.6846537
  14.9078265  92.2510780  60.5290541  15.7962097  92.7866046  61.6317172
   1.0513184  97.6916784  56.3601256   0.9158859  98.5368320  56.7886104
   1.5922997  97.8936062  55.5967190   2.6781661  98.3140350  70.4901598
   2.2345515  97.5276729  70.1722503   3.3398874  98.5019501  69.8245489
   4.7762899  98.5943150  68.5183000   4.7581374  99.4152031  68.0263269
   5.6982819  98.4697226  68.7433141   1.2335953  96.1087280  69.3606508
   1.7664290  95.3475568  69.1305816   0.7050034  95.8160932  70.1030663
   4.4005648  81.2147346  64.8900150   4.0569917  82.1048987  64.8139260
   4.7684610  81.0249003  64.0269735   4.3655931  91.2055957  53.3972585
   3.8502554  91.9760562  53.6360972   4.0933239  90.5321093  54.0205646
   1.9503042  86.0505658  58.4557823   1.0944638  85.6612508  58.2763462
   2.3629993  86.1297618  57.5957609   3.4802188  83.5852001  62.8549383
   2.9766984  83.5482136  62.0417188   3.7732795  84.4944744  62.9146040
   9.3390205  93.9588312  55.3325758   8.5619647  93.6199471  54.8880920
  10.0181686  93.9640935  54.6580723   4.1542234  89.0783049  55.2232366
   3.8492369  89.3929198  56.0742509   5.1072676  89.1564469  55.2659699
   2.5988666  95.2373272  56.8725320   2.0710027  94.5026032  56.5598558
   2.0976168  96.0147949  56.6265288   7.5781512  93.4322293  61.9892366
   6.9205186  94.1221554  62.0772495   8.3821911  93.8218725  62.3326353
   6.3886970  91.7866665  60.0396308   6.9018852  92.4196657  60.5418018
   7.0388194  91.1867861  59.6739668   3.6509345 101.7650990  52.7956979
   2.9771043 102.0682687  53.4041937   4.0375167 102.5680070  52.4462436
   2.8667801  89.2616121  62.2854649   1.9490363  89.4831068  62.1276337
   3.2827945  89.3362431  61.4266356   3.6502849  90.6607537  57.4157329
   4.3974668  91.1728934  57.1064451   3.9194439  90.3391589  58.2761722
   1.9229499  93.1566077  54.3984283   1.0140718  92.8725110  54.4956753
   1.9524583  93.5765156  53.5387590   7.1548767  96.7672667  58.1675451
   6.7011094  95.9263577  58.2240641   6.5242733  97.4034065  58.5050231
   6.0981686  87.6964653  59.3976118   5.3604443  87.1842039  59.7286361
   6.3508460  87.2565035  58.5859395   5.5981706  98.6049164  59.1025269
   5.8904680  99.1654221  58.3837635   6.1080326  98.8977725  59.8578428
   6.1993314  80.4740905  59.9917887   6.5052190  79.6138268  59.7043803
   6.9245918  81.0658525  59.7916881   1.6205587  94.6974821  51.7372362
   1.1825017  93.9810680  51.2777999   2.3616028  94.9250936  51.1757453
   0.5615331  99.3829515  60.1918722   0.5191510  99.6090361  59.2627254
   1.4778030  99.1492889  60.3404523   4.0080965  89.8513582  67.0899351
   4.3630353  90.0785055  67.9493817   4.6553096  90.1831959  66.4676607
   9.7378702  92.9732018  57.7948680   9.5996600  93.1633614  56.8669870
   9.3814921  93.7351401  58.2516731   9.7648081  95.0408545  62.8059952
  10.1984588  94.9483834  63.6543006  10.4779662  95.0166046  62.1679968
   3.4975976  98.6410639  64.3393052   3.5512999  99.2101576  65.1070768
   2.6290758  98.8112524  63.9747090  10.6263631  95.0832246  65.3392837
  10.8199521  95.9878056  65.5852112  10.5264249  94.6239665  66.1731422
   2.2799942  84.9690136  67.8383165   1.6327857  85.6680086  67.7447641
   3.0500957  85.4026280  68.2059413   5.6878740  95.2338989  70.9133718
   5.5364246  95.0049540  69.9963802   5.6783419  96.1909590  70.9265063
   2.4564076  92.8070901  65.8979984   3.3856136  92.9582061  65.7248952
   2.0355106  92.8954922  65.0428631   1.8500560 101.9330662  55.0104058
   2.0252316 101.4618705  55.8249681   1.1633348 102.5596428  55.2385319
   2.8057623  96.2103168  61.0567360   2.4707456  96.1703938  61.9525010
   2.3061569  95.5447884  60.5837770   5.7416815  93.5559203  51.3304419
   5.1245985  92.8306031  51.2337472   5.2733303  94.3168563  50.9871494
   7.3970946  98.2658111  68.9910200   7.3383492  97.5817331  68.3240783
   7.7990465  99.0077101  68.5390826   7.3988354  96.2297695  67.2224179
   6.5115132  95.8923617  67.3450578   7.9686905  95.4980726  67.4592945
   0.9289507 100.8899147  64.1885423   0.8559678 101.6954119  64.7004727
   0.4866900 101.0891113  63.3633444   4.0275937  85.9365547  60.3422450
   4.5244636  85.1835509  60.0223520   3.2562918  85.9729864  59.7765659
  11.8805694  91.6405912  61.9840741  11.8695570  92.5230628  61.6134674
  11.0123074  91.2877463  61.7895278   3.3888190 100.7885981  66.3443581
   4.1016163 101.4233446  66.2719483   2.8978219 100.8849847  65.5283583
   5.1105717  94.6937234  57.9160873   4.1761996  94.8138697  57.7465577
   5.2882386  93.7909701  57.6520883   8.4978269  90.5354553  58.4510907
   8.9638721  91.3682545  58.3771210   8.9485769  90.0699535  59.1556166
   6.5654500  96.8798375  55.4497059   6.8414344  96.7654969  56.3590933
   5.6958999  96.4815860  55.4109232   6.4694931  82.9035140  62.4901808
   5.5558011  83.1339367  62.6584015   6.8988033  82.9873584  63.3415841
   6.2401390  91.0925032  64.9901702   5.5872840  91.3400940  64.3354155
   6.6181770  90.2789171  64.6564180   3.2008564 101.1284726  59.0929873
   3.3830958 100.3106381  59.5557625   4.0241550 101.3452418  58.6554763
   3.5350729 100.0552911  56.3544921   4.0638496  99.5445365  55.7415083
   3.7978949  99.7395441  57.2190454   2.2888963  91.8344843  71.4767740
   1.6129600  91.7338973  72.1470115   3.1116597  91.6784057  71.9403737
   1.0311746 103.1411771  65.7125356   1.5830054 103.3043392  66.4774441
   1.3717939 103.7316209  65.0405380   5.8822620  97.9673028  71.5674010
   6.4262524  98.5802987  71.0728965   5.3009465  98.5252607  72.0841023
   4.1680133 101.0893746  62.6989038   4.0431273 100.2883486  62.1899983
   4.8259224 101.5839940  62.2103008   6.2315042  98.8902766  64.3268588
   5.2845377  98.7708118  64.2546914   6.5797815  98.0025264  64.4094849
   3.2361475  98.6855483  60.5272940   3.0886437  97.7572190  60.7080510
   4.0614968  98.7075573  60.0430015   6.8395597  99.5084041  61.6137813
   7.7642144  99.3026903  61.4762264   6.6710900  99.2600443  62.5227154
   3.2322989  86.5393320  55.5205057   3.4486604  87.4217958  55.2193885
   2.7517056  86.1479534  54.7910699   1.6844724  86.9218922  64.1909819
   1.4262502  87.8435992  64.1894149   1.1529765  86.5249356  64.8810283
   6.6290913 100.0269709  56.9699904   6.8027790  99.4616131  56.2173757
   7.1219804 100.8270604  56.7879394   2.1046680  83.0550872  60.5510981
   2.1268377  83.1190205  59.5962961   2.5214739  82.2155381  60.7451488
  12.4830304  92.7906132  58.5890204  12.9261450  92.0413457  58.1909327
  11.6056814  92.7816268  58.2063936   7.6166085  99.3436473  54.0696802
   8.3116990  99.9643166  54.2884117   7.9589236  98.4931824  54.3449180
   9.5157509  96.7936179  55.5984133  10.0408833  97.1323452  54.8733453
   9.4279861  95.8583194  55.4147268   1.1777557 100.7070252  67.7274010
   1.4864684 100.4619399  68.5996709   1.9753039 100.9116891  67.2392880
   1.1998169 102.8608162  59.9579386   0.7603160 102.3684541  60.6512243
   1.9506286 102.3181130  59.7171462   9.2051415  97.4269082  70.9035331
   8.4146958  97.4093221  70.3639831   8.9684769  97.9657376  71.6584368
   9.3249290  94.2761549  68.2168060   9.3747295  94.1111556  69.1583583
   9.2163213  93.4088808  67.8265941   6.6153052  90.2592477  69.5327366
   7.5162915  90.1198942  69.2411364   6.6901027  90.4246932  70.4725544
  10.8267486  96.6958490  68.4610081  10.5352295  97.0588471  69.2973542
  10.2139618  95.9825499  68.2823413  12.0263169  94.2611370  60.9812652
  12.8610060  94.7001174  61.1450212  12.1622298  93.7850023  60.1620897
   9.0754675  91.8191105  66.9290139   9.5508796  92.0118751  66.1208991
   8.1520240  91.8750291  66.6833523   3.6534891  83.8538948  65.8945973
   4.1716835  84.5899975  65.5692462   3.2990024  84.1602942  66.7292732
   3.9047485  80.2739231  61.4146870   4.1849239  79.6062420  62.0407296
   4.6898092  80.4668327  60.9021534   1.7080954  99.4498225  52.9771896
   1.1354921 100.0688412  52.5242368   2.2813748  99.9997587  53.5111818
   7.7756344  88.6956865  65.1618445   8.7273767  88.7954963  65.1830669
   7.6059794  87.9035134  65.6716529   5.7970723  85.7812448  65.3477846
   5.2020655  86.0617461  64.6524334   5.5120420  86.2706349  66.1194587
   4.9278214  99.7335375  54.1080478   5.8608887  99.6680937  54.3113354
   4.8401426 100.5691642  53.6495011   7.5566230  99.0501245  51.0684426
   7.4779862  98.7161109  51.9620184   8.3775897  99.5423013  51.0675898
  10.2544421  91.9162985  64.2760745  10.2220742  90.9778985  64.4620428
  10.8645045  91.9947021  63.5426569   2.0927752  90.7859038  50.3187949
   3.0386857  90.6565246  50.3876367   1.7141997  90.0473700  50.7957377
  10.4038910  88.7074028  64.3219028   9.8877959  87.9232485  64.1348957
  11.2878858  88.3792745  64.4865547   8.0649637  82.4515044  60.2814840
   7.8674458  82.1430132  61.1658172   8.6749342  83.1776683  60.4112770
  16.0720971  92.9778992  63.4166781  16.8024360  92.7164280  63.9774485
  15.4627917  92.2407713  63.4568849  14.1536268  91.1186854  64.0141233
  13.4269432  90.9842819  63.4057724  13.7383555  91.4263683  64.8197951
   1.9766445  94.8376784  71.7788606   2.8969454  95.0155383  71.9728652
   1.9416028  93.8932829  71.6268305   1.8932735  83.2545904  56.4087075
   1.0833464  82.9092989  56.7842321   2.5817152  82.9453448  56.9974687
   3.8223284  82.3323951  58.0311372   4.3754322  82.7519404  58.6901395
   4.0593370  81.4059699  58.0734328   7.2002091  84.4424476  57.5390036
   6.6200760  85.1009280  57.1568088   6.9338023  83.6201820  57.1277453
   5.6505657  83.8429533  59.7411356   6.1505435  83.9546068  58.9325675
   6.2941265  83.5390586  60.3812165   5.9826969  86.6024566  56.5946384
   5.0952824  86.8874217  56.3766579   6.3980958  86.4418330  55.7473661
   9.3341505  86.6271087  60.3100723  10.1101895  87.1167540  60.5825340
   8.6089639  87.0529141  60.7672593  11.7714063  87.3398706  61.3674664
  12.3658554  87.0994442  60.6567972  11.8440647  86.6205837  61.9948200
   5.1270182  96.3669241  50.6894404   5.8306032  96.5719243  51.3052060
   4.4032831  96.9346003  50.9543488   5.9567992  92.1179102  56.8096674
   5.9003194  92.5747653  55.9704307   6.5096335  91.3569787  56.6319517
   9.7672798  87.9068834  57.6346794   9.5109733  87.5065470  58.4655002
   9.1425666  88.6212628  57.5096933  14.0785136  90.6464907  60.1418085
  13.5184694  90.7158096  60.9149647  13.4728639  90.4705892  59.4217582
   7.0356879  96.8051770  52.7392864   7.8702483  96.3732968  52.5570339
   6.8741222  96.6333784  53.6669759   6.6902772  93.3083883  54.1049204
   6.6351575  93.1428155  53.1637648   6.0648827  94.0159916  54.2611393
   4.0048679  95.6132795  73.4302766   4.8739838  95.7873447  73.0689401
   3.5255430  96.4327212  73.3078496   3.8151017  79.4034769  57.9380459
   3.0483412  78.8493256  58.0837141   4.2261722  79.4756638  58.7994610
  15.6641155 107.3221421  62.8348041  16.3019565 107.2028168  62.1311381
  15.5461997 108.2702265  62.8935993  12.4730861 107.2748849  62.7709566
  12.1349372 107.1589914  61.8830101  13.3420629 106.8740014  62.7510572
  12.9550644 108.4283701  68.7295771  12.9439285 108.0336499  67.8576275
  13.1171283 107.6949774  69.3229543  10.1739140 106.0437097  52.1026506
  10.4264661 105.5218618  51.3409969   9.2363699 105.8803242  52.2053189
  15.2182423 105.0472875  59.9101249  16.0045512 104.6292298  59.5591666
  15.4821127 105.9518967  60.0782897  20.6190850 104.9848108  60.8134228
  21.3516022 104.4147325  61.0472057  19.8630206 104.5969709  61.2540733
  12.2366970 107.4075350  58.0097570  11.8725177 106.8805971  58.7210492
  13.0934086 107.0173819  57.8364055  18.1416271  98.6969682  65.2728836
  17.8099595  99.5665093  65.0490051  17.5461884  98.3805966  65.9522867
  11.8772457 102.4365249  53.0058919  12.0446859 103.3045486  53.3729390
  11.6869626 102.5992531  52.0820208  18.0344934 103.4164768  62.3522186
  17.1261811 103.3480177  62.0580947  17.9832530 103.8936713  63.1804012
  11.8561678 104.8922907  53.9905585  11.7361303 105.3379958  54.8291066
  11.1614266 105.2408225  53.4319124  12.1085800 104.8354414  70.2957084
  11.3319134 105.3948334  70.2859948  12.7476363 105.3211197  70.8171954
  19.9006580 101.6181207  64.1300060  19.2580961 101.9113740  63.4839855
  19.3961509 101.5034127  64.9353257  17.5546744 105.3644380  54.8185919
  18.4664600 105.5971767  54.6433617  17.0456391 105.9481424  54.2560998
  15.8387512 109.7869008  68.4547212  16.2470868 109.3451418  67.7101844
  15.1164773 109.2121635  68.7081405  12.1918582 104.7241615  65.8280769
  13.0379777 105.1481028  65.9715418  12.1317219 104.0675239  66.5219332
  15.3418027 102.3845983  67.4861943  15.0978959 103.1388044  66.9496218
  15.6177957 102.7631331  68.3209190  17.2956490 108.9284595  66.1639208
  17.5073385 109.5716355  65.4873589  17.2486238 108.0946912  65.6961138
  14.8982719 101.5402416  63.0675780  14.0367198 101.8383670  63.3592518
  14.9245153 101.7572815  62.1356813  10.6513174 106.2067759  56.2839151
  11.3537218 106.6588803  56.7513077  10.3193803 105.5651578  56.9119044
   9.0993536 104.7979516  70.6590361   8.4692196 105.4795796  70.8925757
   8.9929624 104.6862597  69.7143499   4.3938508 104.4651312  61.5856285
   3.6037562 104.7208840  61.1096395   4.8849756 105.2799649  61.6908325
   6.3453254 104.8295891  58.5439761   5.5484417 104.9414585  59.0623257
   6.1178846 105.1682543  57.6780652  26.5008311 108.1495299  60.6846537
  25.7472019 107.5802697  60.5290541  26.6355852 108.1157964  61.6317172
   8.3774278  99.1000281  73.0215612   7.9841224  98.5466480  73.6963256
   9.1940419  99.4110860  73.4122129  11.2942239 100.5158161  70.6135868
  12.0351953 101.1165314  70.5340331  11.5260162  99.7735798  70.0553911
   6.4383577 105.7014528  68.8914098   6.3237093 104.7999785  69.1921197
   5.5828095 105.9478225  68.5398914  15.2399402  96.5439263  64.8900150
  14.8963672  97.4340905  64.8139260  15.6078365  96.3540921  64.0269735
  15.2049685 106.5347875  53.3972585  14.6896309 107.3052479  53.6360972
  14.9326994 105.8613011  54.0205646  12.7896796 101.3797575  58.4557823
  11.9338392 100.9904426  58.2763462  13.2023748 101.4589536  57.5957609
  14.3195943  98.9143919  62.8549383  13.8160738  98.8774054  62.0417188
  14.6126550  99.8236661  62.9146040  10.5638829  98.9982648  61.8615565
  11.4291825  98.8025457  61.5021454  10.6316338  98.7693000  62.7884922
  20.1783959 109.2880229  55.3325758  19.4013402 108.9491389  54.8880920
  20.8575440 109.2932852  54.6580723  14.9935988 104.4074967  55.2232366
  14.6886124 104.7221116  56.0742509  15.9466430 104.4856387  55.2659699
  18.4175266 108.7614210  61.9892366  17.7598941 109.4513472  62.0772495
  19.2215665 109.1510642  62.3326353   8.1701148 101.2284856  59.2331932
   8.7444900 101.0060038  58.5005125   8.7572130 101.2973551  59.9860533
  17.2280725 107.1158583  60.0396308  17.7412607 107.7488575  60.5418018
  17.8781949 106.5159779  59.6739668   8.4970735 103.2589317  53.2527817
   7.6608047 103.5964004  53.5737092   8.3575504 103.1238297  52.3154954
  10.4723815  98.1026105  57.9607001   9.8188228  97.7875122  57.3363616
  10.4304290  97.4801846  58.6866824  11.5835020 108.3845400  49.8760293
  10.6762082 108.1534654  50.0751442  12.0806052 107.5883019  50.0634275
  13.7061556 104.5908039  62.2854649  12.7884117 104.8122986  62.1276337
  14.1221699 104.6654349  61.4266356  14.4896604 105.9899454  57.4157329
  15.2368422 106.5020852  57.1064451  14.7588193 105.6683507  58.2761722
  12.7623254 108.4857995  54.3984283  11.8534473 108.2017028  54.4956753
  12.7918338 108.9057074  53.5387590  16.9375441 103.0256571  59.3976118
  16.1998197 102.5133957  59.7286361  17.1902214 102.5856952  58.5859395
  17.0387068  95.8032823  59.9917887  17.3445945  94.9430186  59.7043803
  17.7639673  96.3950443  59.7916881  11.3108148 106.0986616  60.4994079
  11.3656758 105.1460452  60.4236555  10.4999350 106.2546055  60.9835377
   9.2500508 104.7163675  58.2584457   8.4368373 105.0157846  58.6649650
   9.7459502 104.3219364  58.9758940  14.8474719 105.1805500  67.0899351
  15.2024107 105.4076973  67.9493817  15.4946851 105.5123877  66.4676607
  20.5772456 108.3023936  57.7948680  20.4390355 108.4925532  56.8669870
  20.2208675 109.0643319  58.2516731   8.7414582 102.2882031  63.8745692
   9.3813962 102.1470790  63.1768656   7.9092113 102.0016544  63.4984294
  20.6041836 110.3700463  62.8059952  21.0378343 110.2775752  63.6543006
  21.3173417 110.3457963  62.1679968   5.8257650 105.7327543  56.0640438
   4.8955238 105.6711999  56.2810400   5.9215122 105.2103496  55.2677079
   5.7443199 102.2582356  58.6518679   6.0050016 103.1727689  58.5427840
   6.5660371 101.7906799  58.8015292   7.2168124 103.6720113  65.8217504
   7.8891178 103.4637475  65.1730153   6.3897911 103.4742199  65.3822736
  21.4657385 110.4124163  65.3392837  21.6593276 111.3169974  65.5852112
  21.3658004 109.9531583  66.1731422  13.1193696 100.2982054  67.8383165
  12.4721611 100.9972004  67.7447641  13.8894712 100.7318198  68.2059413
  13.2957831 108.1362819  65.8979984  14.2249891 108.2873979  65.7248952
  12.8748861 108.2246840  65.0428631   7.6195621 106.9462716  66.5819941
   7.4815419 106.2142955  67.1831480   8.5300545 106.8571616  66.3004129
  16.5810569 108.8851120  51.3304419  15.9639740 108.1597949  51.2337472
  16.1127058 109.6460481  50.9871494  10.2477922 106.6582675  66.0703621
  10.9577541 106.0175868  66.0290239  10.2047230 106.9095570  66.9929801
   8.9606856 103.6447893  67.8899260   8.4244213 103.1938632  68.5420856
   8.3723565 103.7793802  67.1469724   8.3709115 103.1036545  50.4525724
   7.4938581 102.9825346  50.0887970   8.8466868 102.3122623  50.2004612
   4.6945977 102.7803901  64.9752254   4.6104166 102.1729571  64.2402664
   3.8728684 103.2712919  64.9761751  14.8669691 101.2657465  60.3422450
  15.3638391 100.5127427  60.0223520  14.0956673 101.3021781  59.7765659
  22.7199449 106.9697830  61.9840741  22.7089325 107.8522546  61.6134674
  21.8516828 106.6169381  61.7895278  11.4504660 103.4074848  60.0694134
  11.0802447 102.8545888  60.7575040  11.9463752 102.8032981  59.5169134
  19.3372023 105.8646471  58.4510907  19.8032475 106.6974463  58.3771210
  19.7879524 105.3991453  59.1556166  17.3088686  98.2327058  62.4901808
  16.3951766  98.4631285  62.6584015  17.7381787  98.3165502  63.3415841
  17.0795144 106.4216950  64.9901702  16.4266595 106.6692857  64.3354155
  17.4575524 105.6081088  64.6564180  13.1282717 107.1636761  71.4767740
  12.4523355 107.0630890  72.1470115  13.9510351 107.0075975  71.9403737
   6.8469994 100.8178838  66.3147240   6.9111320 101.6793669  65.9024638
   6.7837114 100.2052840  65.5819599   6.3222266 102.8901971  69.9620274
   6.9494305 102.5079048  70.5757799   5.4650185 102.6716173  70.3275967
   3.0987809 104.6978400  55.8938629   3.3941250 103.7889078  55.8405683
   2.1975845 104.6766139  55.5719632   6.6282056 102.7734397  61.8766178
   5.9068642 103.3870364  61.7373651   7.4175312 103.3092161  61.7982824
   9.4308369 100.1088823  68.1506830   9.9542771 100.3551120  68.9133139
   9.2120703 100.9408858  67.7309967   4.8275650 102.3792498  56.0177954
   4.4988357 101.4989877  55.8353060   5.1815021 102.3240166  56.9054344
   7.9417474 102.6665467  56.3853432   8.2813546 103.1951389  55.6632041
   8.3889594 103.0045874  57.1611999  10.6360914 101.0502518  65.8356500
  10.2957735 100.2510331  66.2377180   9.9299921 101.3504229  65.2633333
  11.2877386  98.1351831  64.2883823  12.1103456  97.6612309  64.1662714
  11.5315450  98.9142314  64.7882510   9.9285621 101.1640089  54.5846725
  10.6493983 101.5421342  54.0810442   9.3050925 101.8828966  54.6881703
  14.0716744 101.8685238  55.5205057  14.2880358 102.7509876  55.2193885
  13.5910811 101.4771451  54.7910699   8.8115965 104.8270951  62.0975802
   8.6660546 105.1411254  62.9900083   8.3341169 105.4455852  61.5446700
  10.6712348 101.8173499  62.1456691  10.6573917 100.9214593  61.8088989
  11.3884776 101.8244163  62.7794977  12.5238479 102.2510839  64.1909819
  12.2656256 103.1727910  64.1894149  11.9923519 101.8541274  64.8810283
  10.0749244 100.6987879  57.4144262  10.1965155  99.7704526  57.6135149
   9.7851286 100.7126565  56.5022577  12.9440434  98.3842790  60.5510981
  12.9662131  98.4482123  59.5962961  13.3608493  97.5447299  60.7451488
  23.3224059 108.1198049  58.5890204  23.7655205 107.3705375  58.1909327
  22.4450569 108.1108186  58.2063936   9.5590323 102.2119877  71.6234194
   9.6078479 103.0882000  71.2411964  10.1012838 101.6697270  71.0505837
  20.1643044 109.6053466  68.2168060  20.2141049 109.4403474  69.1583583
  20.0556967 108.7380725  67.8265941  17.4546807 105.5884394  69.5327366
  18.3556669 105.4490859  69.2411364  17.5294781 105.7538849  70.4725544
  11.7889612 102.9651249  68.3780553  10.9192921 103.2584815  68.1063141
  12.0249092 103.5491694  69.0987816  22.8656923 109.5903288  60.9812652
  23.7003815 110.0293092  61.1450212  23.0016052 109.1141941  60.1620897
  19.9148429 107.1483023  66.9290139  20.3902551 107.3410669  66.1208991
  18.9913995 107.2042208  66.6833523  14.4928646  99.1830866  65.8945973
  15.0110590  99.9191893  65.5692462  14.1383778  99.4894859  66.7292732
   6.0727583 104.0435547  54.0107379   5.3796828 104.1179902  53.3547415
   5.8279335 103.2795891  54.5328896  14.7441240  95.6031149  61.4146870
  15.0242994  94.9354338  62.0407296  15.5291847  95.7960244  60.9021534
  18.6150098 104.0248783  65.1618445  19.5667521 104.1246880  65.1830669
  18.4453549 103.2327051  65.6716529  16.6364478 101.1104366  65.3477846
  16.0414410 101.3909379  64.6524334  16.3514174 101.5998267  66.1194587
  21.0938176 107.2454902  64.2760745  21.0614496 106.3070903  64.4620428
  21.7038800 107.3238939  63.5426569  12.9321507 106.1150955  50.3187949
  13.8780612 105.9857163  50.3876367  12.5535752 105.3765617  50.7957377
  21.2432664 104.0365946  64.3219028  20.7271713 103.2524402  64.1348957
  22.1272613 103.7084662  64.4865547  18.9043391  97.7806961  60.2814840
  18.7068213  97.4722050  61.1658172  19.5143097  98.5068600  60.4112770
  26.9114726 108.3070909  63.4166781  27.6418114 108.0456197  63.9774485
  26.3021671 107.5699631  63.4568849  24.9930023 106.4478772  64.0141233
  24.2663187 106.3134737  63.4057724  24.5777310 106.7555600  64.8197951
  11.1164424 104.0400932  50.2542834  10.2095879 103.7434044  50.3305547
  11.3940405 103.7430750  49.3877120  12.7326490  98.5837821  56.4087075
  11.9227218  98.2384906  56.7842321  13.4210907  98.2745365  56.9974687
  14.6617038  97.6615868  58.0311372  15.2148077  98.0811322  58.6901395
  14.8987124  96.7351616  58.0734328  10.6850137 103.6502942  73.8114136
  10.5846864 104.5997299  73.7426227  10.4671679 103.3221181  72.9390206
   9.8863209 100.8987867  50.3954813  10.7482373 101.2242765  50.6550630
  10.0713553 100.1119363  49.8827879  18.0395845  99.7716393  57.5390036
  17.4594514 100.4301197  57.1568088  17.7731778  98.9493738  57.1277453
  16.4899411  99.1721451  59.7411356  16.9899190  99.2837986  58.9325675
  17.1335019  98.8682504  60.3812165  10.5481407 107.0800081  72.6279197
  10.0648489 107.8800441  72.8343086  10.6342346 107.0908026  71.6746641
  16.8220723 101.9316484  56.5946384  15.9346578 102.2166134  56.3766579
  17.2374712 101.7710247  55.7473661  20.1735259 101.9563005  60.3100723
  20.9495649 102.4459457  60.5825340  19.4483393 102.3821059  60.7672593
  22.6107818 102.6690624  61.3674664  23.2052309 102.4286360  60.6567972
  22.6834402 101.9497755  61.9948200  16.7961747 107.4471020  56.8096674
  16.7396948 107.9039571  55.9704307  17.3490089 106.6861704  56.6319517
  20.6066553 103.2360752  57.6346794  20.3503487 102.8357387  58.4655002
  19.9819421 103.9504546  57.5096933  24.9178891 105.9756825  60.1418085
  24.3578449 106.0450014  60.9149647  24.3122394 105.7997809  59.4217582
  17.5296526 108.6375801  54.1049204  17.4745330 108.4720072  53.1637648
  16.9042581 109.3451834  54.2611393   2.3189041 103.8743865  67.9310626
   2.9647905 103.3642819  68.4197851   2.1106192 104.6112547  68.5054051
  10.8392652  98.1383910  53.6834522  10.8271321  99.0825750  53.8402793
  11.7316073  97.9554055  53.3893983  14.6544771  94.7326687  57.9380459
  13.8877167  94.1785173  58.0837141  15.0655476  94.8048555  58.7994610
   6.6586532 101.0211482  72.0285640   7.5217994 100.6648287  72.2388965
   6.0851943 100.6825377  72.7161044  26.0793157 111.8731181  64.8900150
  25.7357426 112.7632823  64.8139260  26.4472119 111.6832839  64.0269735
  27.8780822 111.1324740  59.9917887  28.1839699 110.2722104  59.7043803
  28.6033427 111.7242361  59.7916881  28.1482440 113.5618976  62.4901808
  27.2345520 113.7923203  62.6584015  28.5775542 113.6457420  63.3415841
  25.5834994 110.9323066  61.4146870  25.8636748 110.2646255  62.0407296
  26.3685601 111.1252162  60.9021534  29.7437146 113.1098879  60.2814840
  29.5461967 112.8013967  61.1658172  30.3536851 113.8360518  60.4112770
  25.5010792 112.9907786  58.0311372  26.0541831 113.4103239  58.6901395
  25.7380879 112.0643534  58.0734328  25.4938526 110.0618604  57.9380459
  24.7270921 109.5077091  58.0837141  25.9049231 110.1340473  58.7994610
   4.8220803  54.4973587  47.4091844   4.0684511  53.9280985  47.2535848
   4.9568344  54.4636251  48.3562478   1.6436551  54.4676337  45.3135511
   2.0867697  53.7183662  44.9154634   0.7663061  54.4586473  44.9309243
   1.1869416  55.9381575  47.7057958   2.0216307  56.3771379  47.8695519
   1.3228544  55.4620228  46.8866204   5.2327218  54.6549196  50.1412088
   5.9630607  54.3934485  50.7019791   4.6234164  53.9177918  50.1814156
   3.3142515  52.7957059  50.7386539   2.5875679  52.6613024  50.1303031
   2.8989802  53.1033888  51.5443257   0.9320310  49.0168911  48.0919971
   1.5264801  48.7764647  47.3813279   1.0046894  48.2976042  48.7193507
   3.2391383  52.3235112  46.8663392   2.6790941  52.3928301  47.6394954
   2.6334886  52.1476097  46.1462888   4.8247401  68.9991626  49.5593348
   5.4625811  68.8798373  48.8556688   4.7068244  69.9472470  49.6181300
   1.6337108  68.9519054  49.4954872   1.2955619  68.8360119  48.6075407
   2.5026876  68.5510219  49.4755878   2.1156891  70.1053906  55.4541078
   2.1045531  69.7106704  54.5821582   2.2777530  69.3719978  56.0474849
   3.0723482  74.4725498  40.7966228   2.4211462  75.0579579  40.4100242
   3.8667845  75.0031693  40.8561266   4.3788670  66.7243080  46.6346556
   5.1651759  66.3062503  46.2836973   4.6427374  67.6289172  46.8028204
   4.5498747  72.1615930  41.3335213   3.9144580  72.2350557  42.0456117
   4.2196154  72.7509529  40.6554292   9.7797097  66.6618313  47.5379534
  10.5122269  66.0917530  47.7717364   9.0236453  66.2739914  47.9786040
   1.3973217  69.0845555  44.7342877   1.0331424  68.5576176  45.4455798
   2.2540333  68.6944024  44.5609362   7.3022517  60.3739887  51.9974143
   6.9705842  61.2435298  51.7735358   6.7068131  60.0576171  52.6768173
   1.0378704  64.1135454  39.7304225   1.2053106  64.9815691  40.0974696
   0.8475873  64.2762736  38.8065514   3.7954037  72.5752433  51.3970056
   3.4954760  73.4777472  51.2885863   3.4505096  72.3084616  52.2491208
   7.1951181  65.0934973  49.0767493   6.2868058  65.0250382  48.7826254
   7.1438776  65.5706918  49.9049318   1.2692046  66.5124619  57.0202390
   0.4925380  67.0718539  57.0105255   1.9082609  66.9981402  57.5417260
   9.0612827  63.2951412  50.8545367   8.4187207  63.5883945  50.2085161
   8.5567756  63.1804332  51.6598563   6.7152991  67.0414585  41.5431226
   7.6270847  67.2741972  41.3678924   6.2062638  67.6251629  40.9806305
   4.9993758  71.4639213  55.1792519   5.4077114  71.0221623  54.4347151
   4.2771020  70.8891840  55.4326712   1.3524828  66.4011820  52.5526076
   2.1986024  66.8251233  52.6960725   1.2923466  65.7445444  53.2464639
   5.3222573  72.0240403  48.9344808   4.6931435  72.1886118  48.2320875
   4.9348235  72.4382013  49.7055772   9.2011805  72.9594841  46.2889171
   8.5162843  73.3393743  45.7386205   9.2855654  73.5690168  47.0221119
   4.5024274  64.0616188  54.2107249   4.2585206  64.8158248  53.6741525
   4.7784204  64.4401536  55.0454496   6.4562737  70.6054800  52.8884515
   6.6679632  71.2486560  52.2118896   6.4092485  69.7717117  52.4206445
   4.0588965  63.2172621  49.7921087   3.1973445  63.5153874  50.0837825
   4.0851400  63.4343020  48.8602120   0.8750535  71.7614811  46.1994893
   1.3388880  72.0402514  45.4099515   0.6107333  70.8598256  46.0167983
   7.5708564  73.4826756  51.0606872   8.3926008  73.0806943  50.7789554
   7.5670967  73.3794990  52.0122988   1.3365168  73.0310799  53.2167583
   1.4009600  73.4931206  54.0525754   0.6276092  72.4008164  53.3449892
  15.6614558  69.8265504  47.4091844  14.9078266  69.2572902  47.2535848
  15.7962099  69.7928169  48.3562478   1.0513186  74.6978906  43.0846563
   0.9158860  75.5430442  43.5131411   1.5922998  74.8998184  42.3212497
   2.6781662  75.3202473  57.2146905   2.2345516  74.5338852  56.8967810
   3.3398876  75.5081624  56.5490796   4.7762900  75.6005273  55.2428306
   4.7581375  76.4214154  54.7508576   5.6982820  75.4759348  55.4678447
   1.2335954  73.1149402  56.0851815   1.7664291  72.3537691  55.8551123
   0.7050035  72.8223054  56.8275969   4.4005649  58.2209468  51.6145456
   4.0569919  59.1111110  51.5384567   4.7684612  58.0311126  50.7515041
   4.3655932  68.2118079  40.1217892   3.8502555  68.9822684  40.3606279
   4.0933240  67.5383216  40.7450953   1.9503043  63.0567780  45.1803130
   1.0944639  62.6674631  45.0008769   2.3629995  63.1359741  44.3202915
   3.4802190  60.5914124  49.5794690   2.9766985  60.5544259  48.7662495
   3.7732796  61.5006866  49.6391346   9.3390206  70.9650434  42.0571065
   8.5619649  70.6261594  41.6126227  10.0181687  70.9703057  41.3826030
   4.1542235  66.0845172  41.9477673   3.8492371  66.3991321  42.7987816
   5.1072677  66.1626591  41.9905006   2.5988667  72.2435395  43.5970627
   2.0710028  71.5088154  43.2843864   2.0976170  73.0210071  43.3510595
   7.5781513  70.4384415  48.7137673   6.9205187  71.1283677  48.8017802
   8.3821912  70.8280847  49.0571659   6.3886972  68.7928788  46.7641615
   6.9018853  69.4258780  47.2663324   7.0388196  68.1929984  46.3984975
   3.6509346  78.7713112  39.5202286   2.9771045  79.0744809  40.1287244
   4.0375168  79.5742193  39.1707743   2.8667803  66.2678244  49.0099955
   1.9490364  66.4893191  48.8521643   3.2827946  66.3424554  48.1511663
   3.6502850  67.6669659  44.1402636   4.3974669  68.1791057  43.8309758
   3.9194440  67.3453712  45.0007029   1.9229500  70.1628200  41.1229590
   1.0140720  69.8787233  41.2202060   1.9524584  70.5827279  40.2632897
   7.1548768  73.7734790  44.8920757   6.7011095  72.9325699  44.9485948
   6.5242735  74.4096188  45.2295538   6.0981687  64.7026776  46.1221425
   5.3604444  64.1904162  46.4531667   6.3508461  64.2627157  45.3104702
   5.5981707  75.6111286  45.8270576   5.8904682  76.1716343  45.1082941
   6.1080328  75.9039847  46.5823735   6.1993315  57.4803028  46.7163194
   6.5052192  56.6200391  46.4289109   6.9245920  58.0720648  46.5162188
   1.6205588  71.7036944  38.4617668   1.1825018  70.9872803  38.0023306
   2.3616029  71.9313059  37.9002760   0.5615332  76.3891637  46.9164029
   0.5191511  76.6152484  45.9872561   1.4778031  76.1555012  47.0649830
   4.0080966  66.8575705  53.8144658   4.3630354  67.0847178  54.6739124
   4.6553097  67.1894082  53.1921913   9.7378703  69.9794141  44.5193987
   9.5996602  70.1695737  43.5915176   9.3814922  70.7413524  44.9762038
   9.7648083  72.0470668  49.5305258  10.1984589  71.9545957  50.3788313
  10.4779663  72.0228168  48.8925274   3.4975978  75.6472762  51.0638359
   3.5513000  76.2163698  51.8316075   2.6290759  75.8174647  50.6992396
  10.6263632  72.0894368  52.0638144  10.8199522  72.9940179  52.3097419
  10.5264250  71.6301787  52.8976729   2.2799943  61.9752259  54.5628471
   1.6327858  62.6742209  54.4692948   3.0500958  62.4088403  54.9304719
   5.6878741  72.2401111  57.6379024   5.5364247  72.0111663  56.7209108
   5.6783420  73.1971713  57.6510370   2.4564077  69.8133024  52.6225291
   3.3856137  69.9644183  52.4494258   2.0355107  69.9017045  51.7673937
   1.8500561  78.9392785  41.7349365   2.0252317  78.4680828  42.5494988
   1.1633349  79.5658551  41.9630626   2.8057624  73.2165291  47.7812666
   2.4707457  73.1766061  48.6770316   2.3061570  72.5510007  47.3083077
   5.7416816  70.5621325  38.0549726   5.1245987  69.8368154  37.9582779
   5.2733304  71.3230686  37.7116800   7.3970948  75.2720234  55.7155506
   7.3383494  74.5879454  55.0486089   7.7990466  76.0139224  55.2636132
   7.3988355  73.2359818  53.9469486   6.5115134  72.8985739  54.0695885
   7.9686906  72.5042849  54.1838251   0.9289508  77.8961270  50.9130729
   0.8559680  78.7016241  51.4250034   0.4866901  78.0953236  50.0878751
   4.0275938  62.9427669  47.0667756   4.5244637  62.1897632  46.7468826
   3.2562919  62.9791986  46.5010966  11.8805695  68.6468035  48.7086048
  11.8695572  69.5292750  48.3379981  11.0123075  68.2939586  48.5140585
   3.3888192  77.7948104  53.0688888   4.1016164  78.4295569  52.9964789
   2.8978220  77.8911970  52.2528890   5.1105719  71.6999357  44.6406180
   4.1761997  71.8200819  44.4710884   5.2882387  70.7971823  44.3766189
   8.4978270  67.5416676  45.1756214   8.9638722  68.3744668  45.1016516
   8.9485770  67.0761658  45.8801472   6.5654501  73.8860497  42.1742366
   6.8414345  73.7717092  43.0836240   5.6959000  73.4877982  42.1354539
   6.4694933  59.9097263  49.2147115   5.5558013  60.1401490  49.3829322
   6.8988034  59.9935707  50.0661147   6.2401391  68.0987155  51.7147009
   5.5872841  68.3463062  51.0599462   6.6181771  67.2851293  51.3809486
   3.2008565  78.1346848  45.8175179   3.3830960  77.3168504  46.2802932
   4.0241551  78.3514540  45.3800069   3.5350731  77.0615033  43.0790228
   4.0638497  76.5507488  42.4660390   3.7978950  76.7457563  43.9435761
   2.2888964  68.8406966  58.2013046   1.6129601  68.7401095  58.8715421
   3.1116598  68.6846180  58.6649043   1.0311747  80.1473893  52.4370662
   1.5830055  80.3105515  53.2019747   1.3717941  80.7378331  51.7650687
   5.8822621  74.9735151  58.2919317   6.4262525  75.5865109  57.7974271
   5.3009466  75.5314729  58.8086330   4.1680134  78.0955869  49.4234344
   4.0431274  77.2945609  48.9145290   4.8259226  78.5902062  48.9348314
   6.2315043  75.8964889  51.0513894   5.2845378  75.7770240  50.9792221
   6.5797816  75.0087387  51.1340156   3.2361476  75.6917605  47.2518247
   3.0886439  74.7634313  47.4325817   4.0614970  75.7137696  46.7675322
   6.8395598  76.5146164  48.3383119   7.7642145  76.3089025  48.2007571
   6.6710901  76.2662565  49.2472461   3.2322990  63.5455443  42.2450364
   3.4486605  64.4280081  41.9439192   2.7517058  63.1541656  41.5156006
   1.6844725  63.9281044  50.9155125   1.4262503  64.8498115  50.9139456
   1.1529766  63.5311479  51.6055590   6.6290914  77.0331831  43.6945211
   6.8027792  76.4678254  42.9419063   7.1219805  77.8332726  43.5124701
   2.1046681  60.0612995  47.2756288   2.1268378  60.1252328  46.3208268
   2.5214740  59.2217503  47.4696794  12.4830305  69.7968254  45.3135511
  12.9261451  69.0475580  44.9154634  11.6056816  69.7878391  44.9309243
   7.6166087  76.3498596  40.7942109   8.3116991  76.9705289  41.0129424
   7.9589237  75.4993947  41.0694487   9.5157510  73.7998301  42.3229440
  10.0408834  74.1385574  41.5978760   9.4279862  72.8645317  42.1392575
   1.1777558  77.7132375  54.4519317   1.4864685  77.4681522  55.3242016
   1.9753040  77.9179013  53.9638187   1.1998171  79.8670285  46.6824693
   0.7603161  79.3746663  47.3757550   1.9506287  79.3243252  46.4416768
   9.2051416  74.4331205  57.6280638   8.4146960  74.4155344  57.0885137
   8.9684770  74.9719499  58.3829674   9.3249291  71.2823671  54.9413366
   9.3747296  71.1173679  55.8828889   9.2163214  70.4150930  54.5511247
   6.6153053  67.2654599  56.2572673   7.5162916  67.1261064  55.9656671
   6.6901028  67.4309054  57.1970851  10.8267488  73.7020613  55.1855388
  10.5352296  74.0650593  56.0218849  10.2139619  72.9887621  55.0068720
  12.0263170  71.2673493  47.7057958  12.8610061  71.7063297  47.8695519
  12.1622299  70.7912146  46.8866204   9.0754676  68.8253228  53.6535446
   9.5508798  69.0180874  52.8454297   8.1520241  68.8812413  53.4078830
   3.6534892  60.8601071  52.6191280   4.1716836  61.5962098  52.2937768
   3.2990025  61.1665064  53.4538039   3.9047487  57.2801354  48.1392176
   4.1849240  56.6124543  48.7652603   4.6898094  57.4730449  47.6266840
   1.7080955  76.4560348  39.7017203   1.1354922  77.0750535  39.2487675
   2.2813749  77.0059709  40.2357125   7.7756345  65.7018988  51.8863752
   8.7273768  65.8017085  51.9075976   7.6059795  64.9097256  52.3961836
   5.7970724  62.7874571  52.0723152   5.2020657  63.0679584  51.3769641
   5.5120421  63.2768472  52.8439894   4.9278215  76.7397498  40.8325785
   5.8608888  76.6743059  41.0358660   4.8401428  77.5753765  40.3740318
   7.5566232  76.0563368  37.7929733   7.4779863  75.7223232  38.6865490
   8.3775898  76.5485136  37.7921205  10.2544423  68.9225107  51.0006051
  10.2220743  67.9841108  51.1865735  10.8645046  69.0009144  50.2671876
   2.0927754  67.7921160  37.0433255   3.0386858  67.6627368  37.1121673
   1.7141999  67.0535822  37.5202683  10.4038911  65.7136151  51.0464334
   9.8877960  64.9294607  50.8594263  11.2878860  65.3854867  51.2110854
   8.0649638  59.4577166  47.0060147   7.8674459  59.1492254  47.8903479
   8.6749344  60.1838805  47.1358077  16.0720973  69.9841114  50.1412088
  16.8024361  69.7226402  50.7019791  15.4627918  69.2469836  50.1814156
  14.1536270  68.1248977  50.7386539  13.4269433  67.9904942  50.1303031
  13.7383557  68.4325805  51.5443257   1.9766446  71.8438906  58.5033912
   2.8969456  72.0217505  58.6973959   1.9416029  70.8994952  58.3513611
   1.8932736  60.2608026  43.1332382   1.0833465  59.9155111  43.5087628
   2.5817153  59.9515570  43.7219993   3.8223285  59.3386073  44.7556678
   4.3754323  59.7581527  45.4146701   4.0593371  58.4121821  44.7979634
   7.2002092  61.4486598  44.2635343   6.6200761  62.1071402  43.8813395
   6.9338025  60.6263943  43.8522760   5.6505658  60.8491656  46.4656663
   6.1505437  60.9608191  45.6570982   6.2941266  60.5452709  47.1057471
   5.9826970  63.6086689  43.3191691   5.0952825  63.8936339  43.1011886
   6.3980959  63.4480452  42.4718968   9.3341506  63.6333210  47.0346030
  10.1101896  64.1229662  47.3070647   8.6089640  64.0591264  47.4917900
  11.7714065  64.3460829  48.0919971  12.3658555  64.1056565  47.3813279
  11.8440648  63.6267959  48.7193507   5.1270183  73.3731363  37.4139711
   5.8306033  73.5781366  38.0297366   4.4032832  73.9408125  37.6788794
   5.9567994  69.1241225  43.5341981   5.9003195  69.5809776  42.6949613
   6.5096336  68.3631909  43.3564824   9.7672800  64.9130957  44.3592101
   9.5109734  64.5127592  45.1900308   9.1425668  65.6274750  44.2342240
  14.0785137  67.6527030  46.8663392  13.5184695  67.7220219  47.6394954
  13.4728641  67.4768014  46.1462888   7.0356881  73.8113893  39.4638171
   7.8702485  73.3795091  39.2815646   6.8741224  73.6395906  40.3915065
   6.6902773  70.3146006  40.8294510   6.6351577  70.1490277  39.8882954
   6.0648828  71.0222039  40.9856700   4.0048680  72.6194918  60.1548073
   4.8739840  72.7935570  59.7934708   3.5255432  73.4389335  60.0323802
   3.8151018  56.4096892  44.6625765   3.0483414  55.8555378  44.8082448
   4.2261723  56.4818760  45.5239917  15.6641156  84.3283544  49.5593348
  16.3019566  84.2090291  48.8556688  15.5461999  85.2764388  49.6181300
  12.4730862  84.2810972  49.4954872  12.1349374  84.1652037  48.6075407
  13.3420630  83.8802137  49.4755878   8.3317678  86.1346448  45.4851763
   7.7682543  86.0436385  44.7168051   8.2170073  85.3146353  45.9654256
  12.9550645  85.4345824  55.4541078  12.9439286  85.0398622  54.5821582
  13.1171285  84.7011896  56.0474849   5.8782110  87.6297640  48.3235984
   6.6703402  87.2888464  47.9082283   6.1178760  87.7392615  49.2438137
  13.9117237  89.8017416  40.7966228  13.2605216  90.3871496  40.4100242
  14.7061599  90.3323611  40.8561266   7.8372864  86.8906553  41.1953363
   8.6103740  86.3435540  41.0566238   8.1898263  87.7550802  41.4067824
   9.6757906  88.2182935  54.4020262   9.3847772  89.1228566  54.2866928
  10.3114891  88.2599463  55.1164331  10.6014113  85.5959784  50.9921622
  11.1977685  85.3715806  50.2778584  10.6589085  84.8544529  51.5947069
  10.1739142  83.0499219  38.8271812  10.4264662  82.5280740  38.0655275
   9.2363701  82.8865365  38.9298496  15.2182424  82.0534998  46.6346556
  16.0045514  81.6354421  46.2836973  15.4821129  82.9581090  46.8028204
  15.3892502  87.4907848  41.3335213  14.7538335  87.5642474  42.0456117
  15.0589908  88.0801447  40.6554292  20.6190851  81.9910231  47.5379534
  21.3516023  81.4209448  47.7717364  19.8630207  81.6031831  47.9786040
   9.8935430  84.9527325  41.0296187   9.7771688  84.2772229  41.6977272
  10.0037690  84.4659699  40.2128340  12.2366971  84.4137472  44.7342877
  11.8725178  83.8868093  45.4455798  13.0934087  84.0235941  44.5609362
  18.1416272  75.7031805  51.9974143  17.8099597  76.5727216  51.7735358
  17.5461885  75.3868089  52.6768173  11.8772458  79.4427372  39.7304225
  12.0446861  80.3107608  40.0974696  11.6869627  79.6054654  38.8065514
  14.6347791  87.9044351  51.3970056  14.3348514  88.8069390  51.2885863
  14.2898851  87.6376534  52.2491208   8.0860273  84.3558148  47.4306760
   7.1610769  84.2234362  47.6384452   8.3344686  85.1352367  47.9276702
  18.0344935  80.4226891  49.0767493  17.1261812  80.3542299  48.7826254
  17.9832531  80.8998836  49.9049318  11.8561679  81.8985029  40.7150892
  11.7361304  82.3442080  41.5536372  11.1614267  82.2470347  40.1564430
   5.4469084  83.9991421  48.2650549   5.5761465  84.2525900  49.1789961
   4.7666535  84.5919129  47.9455204   9.6168571  94.6688671  44.3641023
   9.5392601  95.6196496  44.4429504   9.0130215  94.3234544  45.0215950
  12.1085801  81.8416537  57.0202390  11.3319135  82.4010457  57.0105255
  12.7476364  82.3273320  57.5417260  19.9006582  78.6243329  50.8545367
  19.2580962  78.9175863  50.2085161  19.3961510  78.5096250  51.6598563
  17.5546745  82.3706503  41.5431226  18.4664601  82.6033889  41.3678924
  17.0456392  82.9543547  40.9806305  10.3632173  84.6501990  56.5820357
  11.1046858  85.1887034  56.3055181   9.6569159  85.2768279  56.7391909
  15.8387513  86.7931130  55.1792519  16.2470869  86.3513541  54.4347151
  15.1164774  86.2183758  55.4326712  12.1918583  81.7303737  52.5526076
  13.0379778  82.1543151  52.6960725  12.1317221  81.0737362  53.2464639
  16.1616327  87.3532321  48.9344808  15.5325190  87.5178035  48.2320875
  15.7741990  87.7673931  49.7055772  20.0405559  88.2886759  46.2889171
  19.3556598  88.6685660  45.7386205  20.1249409  88.8982086  47.0221119
  15.3418028  79.3908106  54.2107249  15.0978960  80.1450166  53.6741525
  15.6177959  79.7693453  55.0454496  17.2956491  85.9346718  52.8884515
  17.5073386  86.5778478  52.2118896  17.2486239  85.1009035  52.4206445
  14.8982720  78.5464539  49.7921087  14.0367199  78.8445792  50.0837825
  14.9245155  78.7634938  48.8602120  11.7144289  87.0906729  46.1994893
  12.1782635  87.3694432  45.4099515  11.4501087  86.1890174  46.0167983
   8.6068370  86.6378211  49.1374656   9.1769728  87.0665479  48.4992140
   9.1976482  86.3560795  49.8358842  10.6513175  83.2129882  43.0084458
  11.3537219  83.6650925  43.4758384  10.3193804  82.5713700  43.6364351
   9.0993537  81.8041638  57.3835667   8.4692198  82.4857919  57.6171064
   8.9929625  81.6924720  56.4388805   4.3938509  81.4713434  48.3101591
   3.6037563  81.7270963  47.8341702   4.8849757  82.2861772  48.4153632
  18.4102319  88.8118673  51.0606872  19.2319763  88.4098861  50.7789554
  18.4064722  88.7086908  52.0122988   6.3453255  81.8358013  45.2685068
   5.5484418  81.9476708  45.7868564   6.1178847  82.1744666  44.4025959
  12.1758922  88.3602717  53.2167583  12.2403355  88.8223124  54.0525754
  11.4669846  87.7300082  53.3449892   2.6776212  81.7243925  50.7416582
   2.9284251  82.6090935  51.0074158   3.2135761  81.5448526  49.9691674
  26.5008312  85.1557422  47.4091844  25.7472020  84.5864820  47.2535848
  26.6355853  85.1220086  48.3562478  11.8906940  90.0270824  43.0846563
  11.7552615  90.8722360  43.5131411  12.4316753  90.2290102  42.3212497
   8.3774280  76.1062404  59.7460918   7.9841225  75.5528603  60.4208562
   9.1940420  76.4172982  60.1367436   5.3436337  87.5446262  43.6574488
   5.8560858  88.3389512  43.8080053   5.9959050  86.8472553  43.5908090
   7.1531222  90.6612018  45.7397241   7.3297850  91.5829983  45.5518225
   7.9488056  90.3470438  46.1691621  11.2942241  77.5220283  57.3381175
  12.0351954  78.1227436  57.2585637  11.5260163  76.7797921  56.7799217
   6.4383579  82.7076650  55.6159404   6.3237094  81.8061908  55.9166503
   5.5828096  82.9540347  55.2644221  13.5175416  90.6494391  57.2146905
  13.0739271  89.8630769  56.8967810  14.1792630  90.8373541  56.5490796
   8.2762538  92.1790192  51.7407584   8.8269963  92.0507256  50.9684578
   7.4374014  92.4785081  51.3902476  15.6156654  90.9297191  55.2428306
  15.5975130  91.7506072  54.7508576  16.5376575  90.8051266  55.4678447
  12.0729709  88.4441320  56.0851815  12.6058045  87.6829608  55.8551123
  11.5443790  88.1514972  56.8275969  15.2399404  73.5501386  51.6145456
  14.8963673  74.4403028  51.5384567  15.6078366  73.3603044  50.7515041
   3.3085254  85.8734917  44.4334059   4.1460476  86.2831925  44.2167766
   3.4863522  84.9334359  44.4034252  15.2049686  83.5409997  40.1217892
  14.6896310  84.3114602  40.3606279  14.9326995  82.8675133  40.7450953
  12.7896797  78.3859698  45.1803130  11.9338394  77.9966548  45.0008769
  13.2023749  78.4651659  44.3202915  14.3195944  75.9206041  49.5794690
  13.8160740  75.8836176  48.7662495  14.6126551  76.8298784  49.6391346
  10.5638830  76.0044771  48.5860871  11.4291827  75.8087580  48.2266761
  10.6316339  75.7755123  49.5130228  20.1783960  86.2942352  42.0571065
  19.4013403  85.9553511  41.6126227  20.8575441  86.2994975  41.3826030
  14.9935990  81.4137089  41.9477673  14.6886125  81.7283238  42.7987816
  15.9466432  81.4918509  41.9905006  13.4382421  87.5727313  43.5970627
  12.9103783  86.8380072  43.2843864  12.9369924  88.3501989  43.3510595
  18.4175267  85.7676333  48.7137673  17.7598942  86.4575594  48.8017802
  19.2215667  86.1572765  49.0571659   8.1701149  78.2346979  45.9577238
   8.7444901  78.0122160  45.2250431   8.7572131  78.3035673  46.7105840
  17.2280726  84.1220706  46.7641615  17.7412608  84.7550698  47.2663324
  17.8781950  83.5221901  46.3984975   8.4970736  80.2651440  39.9773124
   7.6608048  80.6026126  40.2982398   8.3575506  80.1300420  39.0400260
  10.4723817  75.1088228  44.6852308   9.8188229  74.7937245  44.0608922
  10.4304291  74.4863968  45.4112131  11.5835022  85.3907523  36.6005600
  10.6762083  85.1596776  36.7996749  12.0806054  84.5945142  36.7879581
  14.4903100  94.1005030  39.5202286  13.8164799  94.4036727  40.1287244
  14.8768922  94.9034110  39.1707743  13.7061557  81.5970161  49.0099955
  12.7884118  81.8185108  48.8521643  14.1221701  81.6716472  48.1511663
  14.4896605  82.9961577  44.1402636  15.2368424  83.5082974  43.8309758
  14.7588194  82.6745630  45.0007029  12.7623255  85.4920118  41.1229590
  11.8534474  85.2079151  41.2202060  12.7918339  85.9119196  40.2632897
  17.9942522  89.1026707  44.8920757  17.5404849  88.2617617  44.9485948
  17.3636489  89.7388106  45.2295538  16.9375442  80.0318693  46.1221425
  16.1998199  79.5196079  46.4531667  17.1902215  79.5919075  45.3104702
  16.4375462  90.9403204  45.8270576  16.7298436  91.5008261  45.1082941
  16.9474082  91.2331765  46.5823735  17.0387069  72.8094945  46.7163194
  17.3445946  71.9492309  46.4289109  17.7639674  73.4012565  46.5162188
   3.3311425  83.2125632  45.1044792   3.1335825  82.6194993  44.3795859
   2.7758089  82.9077842  45.8220731  11.3108149  83.1048738  47.2239385
  11.3656759  82.1522575  47.1481862  10.4999351  83.2608177  47.7080684
  12.4599343  87.0328861  38.4617668  12.0218773  86.3164720  38.0023306
  13.2009784  87.2604976  37.9002760   9.2500509  81.7225798  44.9829764
   8.4368374  82.0219969  45.3894956   9.7459503  81.3281487  45.7004246
  11.4009087  91.7183555  46.9164029  11.3585266  91.9444401  45.9872561
  12.3171786  91.4846930  47.0649830  14.8474721  82.1867623  53.8144658
  15.2024108  82.4139096  54.6739124  15.4946852  82.5185999  53.1921913
  20.5772458  85.3086058  44.5193987  20.4390356  85.4987654  43.5915176
  20.2208676  86.0705441  44.9762038   8.7414584  79.2944154  50.5990999
   9.3813963  79.1532913  49.9013962   7.9092114  79.0078667  50.2229601
  20.6041837  87.3762585  49.5305258  21.0378344  87.2837875  50.3788313
  21.3173418  87.3520086  48.8925274   9.5174888  88.5946584  46.7125991
  10.3115486  88.0996904  46.5108566   8.8066580  88.0664447  46.3493697
  14.3369732  90.9764680  51.0638359  14.3906754  91.5455616  51.8316075
  13.4684513  91.1466565  50.6992396   5.8257651  82.7389666  42.7885744
   4.8955239  82.6774121  43.0055706   5.9215123  82.2165618  41.9922385
   5.7443200  79.2644479  45.3763986   6.0050017  80.1789812  45.2673146
   6.5660372  78.7968921  45.5260599   7.2168125  80.6782236  52.5462810
   7.8891179  80.4699598  51.8975459   6.3897912  80.4804322  52.1068043
  21.4657387  87.4186286  52.0638144  21.6593277  88.3232097  52.3097419
  21.3658005  86.9593705  52.8976729  13.1193697  77.3044177  54.5628471
  12.4721612  78.0034126  54.4692948  13.8894713  77.7380321  54.9304719
  16.5272495  87.5693029  57.6379024  16.3758002  87.3403581  56.7209108
  16.5177175  88.5263630  57.6510370  13.2957832  85.1424942  52.6225291
  14.2249892  85.2936101  52.4494258  12.8748862  85.2308962  51.7673937
  12.0946164  89.1675606  50.3923829  11.9557249  88.7994390  51.2649767
  11.3060760  89.6823245  50.2207786  12.6894316  94.2684702  41.7349365
  12.8646071  93.7972746  42.5494988  12.0027104  94.8950469  41.9630626
  13.6451379  88.5457209  47.7812666  13.3101211  88.5057979  48.6770316
  13.1455324  87.8801925  47.3083077   7.6195623  83.9524839  53.3065248
   7.4815421  83.2205078  53.9076787   8.5300546  83.8633739  53.0249435
  16.5810570  85.8913243  38.0549726  15.9639741  85.1660071  37.9582779
  16.1127059  86.6522603  37.7116800  10.2477923  83.6644798  52.7948927
  10.9577542  83.0237990  52.7535546  10.2047232  83.9157693  53.7175108
  18.2364702  90.6012151  55.7155506  18.1777248  89.9171371  55.0486089
  18.6384220  91.3431141  55.2636132   8.9606857  80.6510016  54.6144567
   8.4244214  80.2000754  55.2666163   8.3723566  80.7855925  53.8715031
   7.2555401  97.4174065  48.5089225   7.4951999  98.0492589  49.1868244
   6.4124597  97.0662105  48.7954585   8.3709116  80.1098667  37.1771030
   7.4938583  79.9887468  36.8133277   8.8466869  79.3184746  36.9249919
  18.2382109  88.5651735  53.9469486  17.3508888  88.2277657  54.0695885
  18.8080660  87.8334767  54.1838251   4.6945979  79.7866024  51.6997561
   4.6104167  79.1791693  50.9647971   3.8728685  80.2775042  51.7007057
  11.7683263  93.2253188  50.9130729  11.6953434  94.0308159  51.4250034
  11.3260656  93.4245153  50.0878751  11.5573042  92.4624958  44.4233551
  10.7740564  93.0046638  44.5171775  12.2565788  92.9798937  44.8227792
  14.8669692  78.2719587  47.0667756  15.3638392  77.5189549  46.7468826
  14.0956674  78.3083904  46.5010966  22.7199450  83.9759953  48.7086048
  22.7089326  84.8584668  48.3379981  21.8516829  83.6231504  48.5140585
  14.2281946  93.1240022  53.0688888  14.9409918  93.7587487  52.9964789
  13.7371975  93.2203888  52.2528890  15.9499473  87.0291274  44.6406180
  15.0155752  87.1492737  44.4710884  16.1276142  86.1263741  44.3766189
  11.4504661  80.4136970  46.7939441  11.0802449  79.8608011  47.4820346
  11.9463754  79.8095104  46.2414441  19.3372024  82.8708594  45.1756214
  19.8032477  83.7036585  45.1016516  19.7879525  82.4053575  45.8801472
   9.2793860  90.8734465  53.8894459   9.9803319  91.5070948  54.0423853
   8.8088975  91.2149197  53.1290098  17.4048256  89.2152415  42.1742366
  17.6808099  89.1009010  43.0836240  16.5352754  88.8169900  42.1354539
  17.3088687  75.2389181  49.2147115  16.3951767  75.4693407  49.3829322
  17.7381789  75.3227625  50.0661147  17.0795146  83.4279073  51.7147009
  16.4266596  83.6754980  51.0599462  17.4575526  82.6143211  51.3809486
  14.0402320  93.4638766  45.8175179  14.2224714  92.6460422  46.2802932
  14.8635306  93.6806458  45.3800069  14.3744485  92.3906951  43.0790228
  14.9032252  91.8799405  42.4660390  14.6372705  92.0749481  43.9435761
  13.1282719  84.1698884  58.2013046  12.4523356  84.0693013  58.8715421
  13.9510353  84.0138097  58.6649043   4.8761578  90.4070820  50.8225561
   5.4615015  89.6614508  50.9553466   4.6786416  90.7174777  51.7062225
   7.7300233  93.4422068  45.8388004   7.0610608  93.9268195  45.3552044
   7.5913103  93.6891288  46.7531382  11.8705502  95.4765811  52.4370662
  12.4223810  95.6397433  53.2019747  12.2111695  96.0670249  51.7650687
   6.8469995  77.8240961  53.0392547   6.9111321  78.6855792  52.6269945
   6.7837115  77.2114963  52.3064905   6.3222267  79.8964093  56.6865581
   6.9494306  79.5141171  57.3003105   5.4650186  79.6778295  57.0521274
  16.7216376  90.3027069  58.2919317  17.2656280  90.9157027  57.7974271
  16.1403221  90.8606647  58.8086330   3.0987810  81.7040523  42.6183936
   3.3941251  80.7951201  42.5650990   2.1975846  81.6828262  42.2964938
  15.0073889  93.4247787  49.4234344  14.8825028  92.6237526  48.9145290
  15.6652980  93.9193980  48.9348314   6.6282057  79.7796519  48.6011485
   5.9068643  80.3932487  48.4618958   7.4175313  80.3154284  48.5228130
  17.0708797  91.2256807  51.0513894  16.1239133  91.1062158  50.9792221
  17.4191570  90.3379305  51.1340156   9.4308371  77.1150946  54.8752136
   9.9542772  77.3613242  55.6378446   9.2120704  77.9470980  54.4555274
   4.8275652  79.3854620  42.7423261   4.4988358  78.5051999  42.5598367
   5.1815022  79.3302289  43.6299650  14.0755231  91.0209523  47.2518247
  13.9280193  90.0926230  47.4325817  14.9008724  91.0429614  46.7675322
   7.9417475  79.6727590  43.1098739   8.2813547  80.2013511  42.3877347
   8.3889595  80.0107996  43.8857305  17.6789352  91.8438082  48.3383119
  18.6035900  91.6380943  48.2007571  17.5104656  91.5954483  49.2472461
  10.6360916  78.0564641  52.5601807  10.2957736  77.2572454  52.9622487
   9.9299922  78.3566352  51.9878640  11.2877388  75.1413953  51.0129130
  12.1103457  74.6674431  50.8908020  11.5315451  75.9204437  51.5127816
   9.9285622  78.1702212  41.3092032  10.6493985  78.5483464  40.8055748
   9.3050926  78.8891088  41.4127009  14.0716745  78.8747361  42.2450364
  14.2880359  79.7571998  41.9439192  13.5910812  78.4833574  41.5156006
   8.8115966  81.8333074  48.8221108   8.6660547  82.1473377  49.7145390
   8.3341170  82.4517974  48.2692007  10.6712349  78.8235622  48.8701998
  10.6573918  77.9276715  48.5334296  11.3884777  78.8306286  49.5040284
  12.5238480  79.2572962  50.9155125  12.2656258  80.1790033  50.9139456
  11.9923520  78.8603397  51.6055590  17.4684669  92.3623749  43.6945211
  17.6421546  91.7970172  42.9419063  17.9613560  93.1624644  43.5124701
   3.2861628  84.3738418  51.7608770   2.7415097  85.1498226  51.8929044
   4.1640978  84.7209223  51.6027891  10.0749245  77.7050002  44.1389568
  10.1965156  76.7766648  44.3380456   9.7851287  77.7188688  43.2267884
  12.9440435  75.3904913  47.2756288  12.9662132  75.4544246  46.3208268
  13.3608495  74.5509421  47.4696794  23.3224060  85.1260172  45.3135511
  23.7655206  84.3767497  44.9154634  22.4450570  85.1170308  44.9309243
  18.4559841  91.6790514  40.7942109  19.1510746  92.2997206  41.0129424
  18.7982991  90.8285865  41.0694487   4.0727650  83.5008314  54.6538927
   3.3309386  83.6490950  55.2403557   3.7520395  83.7616580  53.7905676
  20.3551264  89.1290219  42.3229440  20.8802588  89.4677492  41.5978760
  20.2673617  88.1937234  42.1392575  12.0171313  93.0424293  54.4519317
  12.3258439  92.7973439  55.3242016  12.8146795  93.2470931  53.9638187
  12.0391925  95.1962202  46.6824693  11.5996915  94.7038581  47.3757550
  12.7900042  94.6535170  46.4416768   4.5184264  91.3873743  46.6849321
   5.3442284  91.0877515  46.3047965   4.1678316  90.6181366  47.1339110
   9.4865797  90.7400211  48.7546995   8.8645806  90.0770916  48.4549223
  10.1570664  90.7661343  48.0720643   2.7192869  89.3060070  47.6438255
   1.8824777  88.8782244  47.4622256   2.6916514  89.4992513  48.5809046
   9.5590325  79.2181999  58.3479501   9.6078480  80.0944122  57.9657270
  10.1012839  78.6759392  57.7751144  20.0445170  89.7623123  57.6280638
  19.2540714  89.7447262  57.0885137  19.8078525  90.3011416  58.3829674
  20.1643045  86.6115589  54.9413366  20.2141050  86.4465597  55.8828889
  20.0556969  85.7442848  54.5511247   9.0479304  89.2904135  42.2305455
   9.1967424  89.9739599  41.5772128   9.8545748  89.2709225  42.7454911
  17.4546808  82.5946517  56.2572673  18.3556671  82.4552982  55.9656671
  17.5294782  82.7600972  57.1970851  11.7889613  79.9713372  55.1025859
  10.9192922  80.2646938  54.8308448  12.0249093  80.5553817  55.8233123
  21.6661242  89.0312531  55.1855388  21.3746051  89.3942511  56.0218849
  21.0533373  88.3179539  55.0068720  22.8656925  86.5965410  47.7057958
  23.7003816  87.0355214  47.8695519  23.0016053  86.1204064  46.8866204
  19.9148430  84.1545145  53.6535446  20.3902552  84.3472792  52.8454297
  18.9913996  84.2104331  53.4078830   6.8031937  85.3169312  43.2366524
   6.5577979  84.4131642  43.4346734   6.9727852  85.3186463  42.2946002
  14.4928647  76.1892989  52.6191280  15.0110591  76.9254016  52.2937768
  14.1383780  76.4956982  53.4538039   6.0727585  81.0497670  40.7352686
   5.3796830  81.1242025  40.0792722   5.8279336  80.2858014  41.2574203
  14.7441241  72.6093271  48.1392176  15.0242995  71.9416460  48.7652603
  15.5291848  72.8022367  47.6266840  12.5474710  91.7852265  39.7017203
  11.9748677  92.4042452  39.2487675  13.1207503  92.3351627  40.2357125
  18.6150099  81.0310905  51.8863752  19.5667522  81.1309003  51.9075976
  18.4453550  80.2389174  52.3961836  16.6364479  78.1166489  52.0723152
  16.0414411  78.3971501  51.3769641  16.3514176  78.6060389  52.8439894
  15.7671969  92.0689415  40.8325785  16.7002643  92.0034977  41.0358660
  15.6795182  92.9045682  40.3740318  18.3959986  91.3855286  37.7929733
  18.3173618  91.0515149  38.6865490  19.2169653  91.8777054  37.7921205
  21.0938177  84.2517025  51.0006051  21.0614497  83.3133026  51.1865735
  21.7038801  84.3301062  50.2671876  12.9321508  83.1213078  37.0433255
  13.8780613  82.9919286  37.1121673  12.5535753  82.3827740  37.5202683
  21.2432666  81.0428068  51.0464334  20.7271714  80.2586525  50.8594263
  22.1272614  80.7146785  51.2110854  18.9043393  74.7869084  47.0060147
  18.7068214  74.4784172  47.8903479  19.5143098  75.5130723  47.1358077
  26.9114727  85.3133032  50.1412088  27.6418116  85.0518320  50.7019791
  26.3021673  84.5761754  50.1814156  24.9930024  83.4540894  50.7386539
  24.2663188  83.3196859  50.1303031  24.5777311  83.7617723  51.5443257
  12.8160201  87.1730824  58.5033912  13.7363210  87.3509423  58.6973959
  12.7809784  86.2286869  58.3513611  11.1164425  81.0463054  36.9788140
  10.2095881  80.7496167  37.0550854  11.3940406  80.7492872  36.1122427
   2.0342366  82.3669418  47.4287187   1.7145150  81.5134726  47.1361561
   1.4875794  82.5817996  48.1845154   5.8122273  85.0831859  51.1456693
   6.0308283  86.0148967  51.1644727   6.2248047  84.7239833  51.9311497
  12.7326491  75.5899944  43.1332382  11.9227219  75.2447029  43.5087628
  13.4210908  75.2807488  43.7219993  14.6617039  74.6677991  44.7556678
  15.2148078  75.0873444  45.4146701  14.8987126  73.7413739  44.7979634
  10.6850138  80.6565065  60.5359442  10.5846865  81.6059421  60.4671533
  10.4671681  80.3283303  59.6635512   9.8863210  77.9049990  37.1200120
  10.7482374  78.2304888  37.3795937  10.0713554  77.1181485  36.6073185
   1.9030626  85.9872329  49.3980308   1.2094097  85.5726282  48.8850263
   2.6503617  86.0292866  48.8013727  18.0395846  76.7778516  44.2635343
  17.4594515  77.4363320  43.8813395  17.7731779  75.9555861  43.8522760
  16.4899413  76.1783574  46.4656663  16.9899191  76.2900108  45.6570982
  17.1335021  75.8744627  47.1057471  10.5481409  84.0862203  59.3524504
  10.0648490  84.8862563  59.5588393  10.6342348  84.0970148  58.3991948
   3.8167368  85.9190583  47.2746323   3.7938056  86.0178270  46.3228206
   4.1268005  86.7655734  47.5963489   6.4754746  87.9766738  51.3892938
   7.4298000  87.9450680  51.3222869   6.2767270  87.5157362  52.2043164
   7.0654128  86.5467854  53.9563735   7.8847017  87.0411933  53.9798573
   7.3390936  85.6299822  53.9281303  16.8220724  78.9378606  43.3191691
  15.9346579  79.2228257  43.1011886  17.2374713  78.7772370  42.4718968
  20.1735261  78.9625127  47.0346030  20.9495651  79.4521580  47.3070647
  19.4483395  79.3883182  47.4917900  22.6107819  79.6752747  48.0919971
  23.2052310  79.4348483  47.3813279  22.6834403  78.9559877  48.7193507
   4.8304975  93.5186358  48.4063136   4.6959443  92.7586758  47.8401134
   4.4137037  94.2427257  47.9391924  15.9663938  88.7023281  37.4139711
  16.6699788  88.9073284  38.0297366  15.2426587  89.2700043  37.6788794
  16.7961748  84.4533142  43.5341981  16.7396950  84.9101694  42.6949613
  17.3490091  83.6923827  43.3564824  20.6066554  80.2422874  44.3592101
  20.3503488  79.8419510  45.1900308  19.9819422  80.9566668  44.2342240
  24.9178892  82.9818947  46.8663392  24.3578450  83.0512137  47.6394954
  24.3122395  82.8059932  46.1462888   7.9874101  94.4155675  48.6181578
   7.8706485  95.3601107  48.5160268   7.1666547  94.1129236  49.0067377
  17.8750635  89.1405810  39.4638171  18.7096239  88.7087009  39.2815646
  17.7134978  88.9687824  40.3915065  17.5296527  85.6437924  40.8294510
  17.4745331  85.4782195  39.8882954  16.9042583  86.3513956  40.9856700
   2.3189042  80.8805988  54.6555932   2.9647906  80.3704942  55.1443158
   2.1106194  81.6174670  55.2299358  14.8442435  87.9486835  60.1548073
  15.7133594  88.1227488  59.7934708  14.3649186  88.7681252  60.0323802
  10.8392653  75.1446033  40.4079829  10.8271323  76.0887873  40.5648099
  11.7316075  74.9616178  40.1139290   9.0128615  95.0683936  51.8337507
   9.9155862  95.1007547  52.1504002   8.7865985  94.1384387  51.8483842
  10.7682217  93.8214923  48.4947585   9.8177848  93.8216785  48.3811958
  11.0714703  93.0747658  47.9783620  14.6544772  71.7388809  44.6625765
  13.8877168  71.1847296  44.8082448  15.0655477  71.8110678  45.5239917
   6.6586533  78.0273605  58.7530947   7.5217995  77.6710410  58.9634271
   6.0851944  77.6887500  59.4406351  26.5034910  99.6575461  49.5593348
  27.1413320  99.5382209  48.8556688  26.3855753 100.6056305  49.6181300
  23.3124617  99.6102889  49.4954872  22.9743128  99.4943954  48.6075407
  24.1814385  99.2094055  49.4755878  19.1711432 101.4638366  45.4851763
  18.6076297 101.3728303  44.7168051  19.0563827 100.6438270  45.9654256
  23.7944400 100.7637741  55.4541078  23.7833040 100.3690539  54.5821582
  23.9565039 100.0303814  56.0474849  16.7175864 102.9589558  48.3235984
  17.5097156 102.6180382  47.9082283  16.9572514 103.0684533  49.2438137
  24.7510991 105.1309334  40.7966228  24.0998971 105.7163414  40.4100242
  25.5455354 105.6615529  40.8561266  18.6766618 102.2198471  41.1953363
  19.4497494 101.6727458  41.0566238  19.0292017 103.0842720  41.4067824
  20.5151661 103.5474853  54.4020262  20.2241527 104.4520484  54.2866928
  21.1508645 103.5891381  55.1164331  21.4407868 100.9251702  50.9921622
  22.0371440 100.7007724  50.2778584  21.4982839 100.1836447  51.5947069
  21.0132896  98.3791137  38.8271812  21.2658417  97.8572658  38.0655275
  20.0757455  98.2157282  38.9298496  26.0576179  97.3826915  46.6346556
  26.8439268  96.9646338  46.2836973  26.3214883  98.2873007  46.8028204
  26.2286256 102.8199766  41.3335213  25.5932089 102.8934392  42.0456117
  25.8983663 103.4093364  40.6554292  31.4584606  97.3202148  47.5379534
  32.1909778  96.7501365  47.7717364  30.7023962  96.9323749  47.9786040
  20.7329185 100.2819243  41.0296187  20.6165443  99.6064146  41.6977272
  20.8431445  99.7951617  40.2128340  23.0760726  99.7429390  44.7342877
  22.7118933  99.2160011  45.4455798  23.9327842  99.3527859  44.5609362
  28.9810026  91.0323723  51.9974143  28.6493351  91.9019134  51.7735358
  28.3855640  90.7160007  52.6768173  22.7166213  94.7719290  39.7304225
  22.8840615  95.6399526  40.0974696  22.5263382  94.9346571  38.8065514
  25.4741546 103.2336269  51.3970056  25.1742269 104.1361307  51.2885863
  25.1292605 102.9668452  52.2491208  18.9254027  99.6850065  47.4306760
  18.0004524  99.5526279  47.6384452  19.1738441 100.4644285  47.9276702
  28.8738690  95.7518809  49.0767493  27.9655567  95.6834217  48.7826254
  28.8226285  96.2290754  49.9049318  22.6955434  97.2276947  40.7150892
  22.5755059  97.6733998  41.5536372  22.0008022  97.5762265  40.1564430
  16.2862838  99.3283339  48.2650549  16.4155220  99.5817818  49.1789961
  15.6060290  99.9211047  47.9455204  20.4562326 109.9980589  44.3641023
  20.3786355 110.9488414  44.4429504  19.8523969 109.6526461  45.0215950
  22.9479555  97.1708454  57.0202390  22.1712889  97.7302374  57.0105255
  23.5870118  97.6565237  57.5417260  30.7400336  93.9535247  50.8545367
  30.0974716  94.2467780  50.2085161  30.2355265  93.8388167  51.6598563
  28.3940500  97.6998420  41.5431226  29.3058356  97.9325807  41.3678924
  27.8850147  98.2835465  40.9806305  21.2025928  99.9793908  56.5820357
  21.9440612 100.5178952  56.3055181  20.4962913 100.6060196  56.7391909
  26.6781267 102.1223048  55.1792519  27.0864623 101.6805459  54.4347151
  25.9558529 101.5475676  55.4326712  23.0312337  97.0595655  52.5526076
  23.8773533  97.4835068  52.6960725  22.9710975  96.4029279  53.2464639
  27.0010082 102.6824239  48.9344808  26.3718944 102.8469953  48.2320875
  26.6135744 103.0965848  49.7055772  30.8799314 103.6178677  46.2889171
  30.1950352 103.9977578  45.7386205  30.9643163 104.2274003  47.0221119
  26.1811783  94.7200023  54.2107249  25.9372715  95.4742084  53.6741525
  26.4571713  95.0985371  55.0454496  28.1350245 101.2638636  52.8884515
  28.3467141 101.9070396  52.2118896  28.0879994 100.4300952  52.4206445
  25.7376474  93.8756456  49.7921087  24.8760953  94.1737710  50.0837825
  25.7638909  94.0926855  48.8602120  22.5538044 102.4198647  46.1994893
  23.0176389 102.6986350  45.4099515  22.2894842 101.5182091  46.0167983
  19.4462125 101.9670128  49.1374656  20.0163482 102.3957397  48.4992140
  20.0370237 101.6852713  49.8358842  21.4906930  98.5421799  43.0084458
  22.1930973  98.9942843  43.4758384  21.1587558  97.9005618  43.6364351
  19.9387291  97.1333556  57.3835667  19.3085952  97.8149837  57.6171064
  19.8323379  97.0216637  56.4388805  15.2332264  96.8005352  48.3101591
  14.4431318  97.0562880  47.8341702  15.7243511  97.6153690  48.4153632
  29.2496073 104.1410591  51.0606872  30.0713517 103.7390778  50.7789554
  29.2458476 104.0378825  52.0122988  17.1847009  97.1649931  45.2685068
  16.3878173  97.2768625  45.7868564  16.9572601  97.5036583  44.4025959
  23.0152677 103.6894634  53.2167583  23.0797109 104.1515042  54.0525754
  22.3063601 103.0591999  53.3449892  13.5169967  97.0535842  50.7416582
  13.7678005  97.9382852  51.0074158  14.0529515  96.8740444  49.9691674
  37.3402066 100.4849340  47.4091844  36.5865775  99.9156738  47.2535848
  37.4749608 100.4512004  48.3562478  22.7300695 105.3562742  43.0846563
  22.5946369 106.2014278  43.5131411  23.2710507 105.5582019  42.3212497
  19.2168034  91.4354322  59.7460918  18.8234980  90.8820520  60.4208562
  20.0334174  91.7464900  60.1367436  16.1830092 102.8738180  43.6574488
  16.6954612 103.6681430  43.8080053  16.8352805 102.1764470  43.5908090
  17.9924977 105.9903936  45.7397241  18.1691605 106.9121901  45.5518225
  18.7881810 105.6762355  46.1691621  22.1335995  92.8512201  57.3381175
  22.8745709  93.4519354  57.2585637  22.3653918  92.1089839  56.7799217
  17.2777333  98.0368568  55.6159404  17.1630848  97.1353825  55.9166503
  16.4221851  98.2832265  55.2644221  24.3569171 105.9786308  57.2146905
  23.9133025 105.1922687  56.8967810  25.0186384 106.1665459  56.5490796
  19.1156292 107.5082110  51.7407584  19.6663717 107.3799173  50.9684578
  18.2767768 107.8076999  51.3902476  26.4550409 106.2589108  55.2428306
  26.4368884 107.0797989  54.7508576  27.3770329 106.1343184  55.4678447
  22.9123463 103.7733238  56.0851815  23.4451800 103.0121526  55.8551123
  22.3837544 103.4806890  56.8275969  26.0793158  88.8793304  51.6145456
  25.7357427  89.7694945  51.5384567  26.4472121  88.6894961  50.7515041
  14.1479009 101.2026834  44.4334059  14.9854231 101.6123843  44.2167766
  14.3257276 100.2626276  44.4034252  26.0443441  98.8701915  40.1217892
  25.5290064  99.6406519  40.3606279  25.7720749  98.1967051  40.7450953
  23.6290552  93.7151616  45.1803130  22.7732148  93.3258466  45.0008769
  24.0417504  93.7943576  44.3202915  25.1589698  91.2497959  49.5794690
  24.6554494  91.2128094  48.7662495  25.4520305  92.1590702  49.6391346
  21.4032584  91.3336689  48.5860871  22.2685581  91.1379497  48.2266761
  21.4710093  91.1047040  49.5130228  31.0177715 101.6234269  42.0571065
  30.2407158 101.2845429  41.6126227  31.6969196 101.6286893  41.3826030
  25.8329744  96.7429007  41.9477673  25.5279880  97.0575156  42.7987816
  26.7860186  96.8210427  41.9905006  24.2776176 102.9019230  43.5970627
  23.7497537 102.1671990  43.2843864  23.7763679 103.6793907  43.3510595
  29.2569022 101.0968251  48.7137673  28.5992696 101.7867512  48.8017802
  30.0609421 101.4864683  49.0571659  19.0094903  93.5638897  45.9577238
  19.5838655  93.3414078  45.2250431  19.5965886  93.6327591  46.7105840
  28.0674481  99.4512623  46.7641615  28.5806362 100.0842615  47.2663324
  28.7175705  98.8513819  46.3984975  19.3364491  95.5943358  39.9773124
  18.5001803  95.9318044  40.2982398  19.1969260  95.4592337  39.0400260
  21.3117571  90.4380145  44.6852308  20.6581984  90.1229163  44.0608922
  21.2698045  89.8155886  45.4112131  22.4228776 100.7199441  36.6005600
  21.5155838 100.4888694  36.7996749  22.9199808  99.9237060  36.7879581
  25.3296855 109.4296948  39.5202286  24.6558554 109.7328644  40.1287244
  25.7162677 110.2326028  39.1707743  24.5455312  96.9262079  49.0099955
  23.6277873  97.1477026  48.8521643  24.9615455  97.0008389  48.1511663
  25.3290359  98.3253495  44.1402636  26.0762178  98.8374892  43.8309758
  25.5981949  98.0037547  45.0007029  23.6017009 100.8212035  41.1229590
  22.6928229 100.5371068  41.2202060  23.6312093 101.2411114  40.2632897
  28.8336277 104.4318625  44.8920757  28.3798604 103.5909535  44.9485948
  28.2030244 105.0680023  45.2295538  27.7769196  95.3610611  46.1221425
  27.0391953  94.8487997  46.4531667  28.0295970  94.9210993  45.3104702
  27.2769216 106.2695122  45.8270576  27.5692190 106.8300179  45.1082941
  27.7867837 106.5623683  46.5823735  27.8780824  88.1386863  46.7163194
  28.1839701  87.2784226  46.4289109  28.6033429  88.7304483  46.5162188
  14.1705180  98.5417549  45.1044792  13.9729580  97.9486910  44.3795859
  13.6151844  98.2369760  45.8220731  22.1501904  98.4340656  47.2239385
  22.2050513  97.4814492  47.1481862  21.3393106  98.5900095  47.7080684
  23.2993097 102.3620779  38.4617668  22.8612527 101.6456638  38.0023306
  24.0403538 102.5896894  37.9002760  20.0894263  97.0517716  44.9829764
  19.2762129  97.3511886  45.3894956  20.5853258  96.6573404  45.7004246
  22.2402841 107.0475473  46.9164029  22.1979020 107.2736319  45.9872561
  23.1565540 106.8138847  47.0649830  25.6868475  97.5159540  53.8144658
  26.0417863  97.7431013  54.6739124  26.3340606  97.8477917  53.1921913
  31.4166212 100.6377976  44.5193987  31.2784111 100.8279572  43.5915176
  31.0602431 101.3997359  44.9762038  19.5808338  94.6236071  50.5990999
  20.2207718  94.4824830  49.9013962  18.7485869  94.3370585  50.2229601
  31.4435592 102.7054503  49.5305258  31.8772098 102.6129792  50.3788313
  32.1567172 102.6812004  48.8925274  20.3568642 103.9238502  46.7125991
  21.1509241 103.4288822  46.5108566  19.6460334 103.3956365  46.3493697
  25.1763487 106.3056597  51.0638359  25.2300509 106.8747534  51.8316075
  24.3078268 106.4758482  50.6992396  16.6651406  98.0681583  42.7885744
  15.7348994  98.0066039  43.0055706  16.7608878  97.5457536  41.9922385
  16.5836955  94.5936396  45.3763986  16.8443772  95.5081729  45.2673146
  17.4054127  94.1260839  45.5260599  18.0561880  96.0074153  52.5462810
  18.7284933  95.7991516  51.8975459  17.2291666  95.8096239  52.1068043
  32.3051141 102.7478204  52.0638144  32.4987031 103.6524014  52.3097419
  32.2051759 102.2885623  52.8976729  23.9587452  92.6336094  54.5628471
  23.3115367  93.3326044  54.4692948  24.7288467  93.0672238  54.9304719
  27.3666250 102.8984946  57.6379024  27.2151756 102.6695498  56.7209108
  27.3570929 103.8555548  57.6510370  24.1351586 100.4716859  52.6225291
  25.0643646 100.6228019  52.4494258  23.7142616 100.5600880  51.7673937
  22.9339918 104.4967524  50.3923829  22.7951004 104.1286308  51.2649767
  22.1454514 105.0115163  50.2207786  23.5288070 109.5976620  41.7349365
  23.7039826 109.1264663  42.5494988  22.8420858 110.2242386  41.9630626
  24.4845133 103.8749126  47.7812666  24.1494966 103.8349896  48.6770316
  23.9849079 103.2093842  47.3083077  18.4589377  99.2816756  53.3065248
  18.3209175  98.5496995  53.9076787  19.3694301  99.1925656  53.0249435
  27.4204325 101.2205161  38.0549726  26.8033496 100.4951989  37.9582779
  26.9520813 101.9814521  37.7116800  21.0871678  98.9936716  52.7948927
  21.7971296  98.3529908  52.7535546  21.0440986  99.2449611  53.7175108
  29.0758457 105.9304069  55.7155506  29.0171003 105.2463289  55.0486089
  29.4777975 106.6723059  55.2636132  19.8000612  95.9801934  54.6144567
  19.2637969  95.5292672  55.2666163  19.2117320  96.1147842  53.8715031
  19.2102871  95.4390585  37.1771030  18.3332337  95.3179386  36.8133277
  19.6860624  94.6476663  36.9249919  29.0775864 103.8943653  53.9469486
  28.1902643 103.5569575  54.0695885  29.6474415 103.1626684  54.1838251
  10.7305011 100.2267745  47.2712537  11.4176051  99.9129475  46.6833553
  10.5753140 101.1309109  46.9979789  15.5339733  95.1157941  51.6997561
  15.4497922  94.5083611  50.9647971  14.7122439  95.6066960  51.7007057
  22.6077017 108.5545105  50.9130729  22.5347189 109.3600077  51.4250034
  22.1654410 108.7537071  50.0878751  22.3966797 107.7916875  44.4233551
  21.6134319 108.3338556  44.5171775  23.0959542 108.3090855  44.8227792
  25.7063447  93.6011505  47.0667756  26.2032146  92.8481467  46.7468826
  24.9350428  93.6375821  46.5010966  33.5593204  99.3051870  48.7086048
  33.5483081 100.1876586  48.3379981  32.6910584  98.9523421  48.5140585
  25.0675701 108.4531939  53.0688888  25.7803673 109.0879404  52.9964789
  24.5765729 108.5495805  52.2528890  26.7893228 102.3583192  44.6406180
  25.8549506 102.4784654  44.4710884  26.9669896 101.4555659  44.3766189
  22.2898416  95.7428888  46.7939441  21.9196203  95.1899928  47.4820346
  22.7857508  95.1387021  46.2414441  30.1765779  98.2000511  45.1756214
  30.6426231  99.0328503  45.1016516  30.6273279  97.7345493  45.8801472
  20.1187614 106.2026383  53.8894459  20.8197074 106.8362866  54.0423853
  19.6482729 106.5441114  53.1290098  28.2442010 104.5444333  42.1742366
  28.5201854 104.4300927  43.0836240  27.3746509 104.1461817  42.1354539
  28.1482442  90.5681098  49.2147115  27.2345522  90.7985325  49.3829322
  28.5775543  90.6519542  50.0661147  27.9188900  98.7570990  51.7147009
  27.2660350  99.0046898  51.0599462  28.2969280  97.9435128  51.3809486
  24.8796074 108.7930683  45.8175179  25.0618469 107.9752339  46.2802932
  25.7029060 109.0098376  45.3800069  25.2138240 107.7198869  43.0790228
  25.7426006 107.2091323  42.4660390  25.4766459 107.4041399  43.9435761
  23.9676473  99.4990801  58.2013046  23.2917110  99.3984931  58.8715421
  24.7904107  99.3430015  58.6649043  15.7155332 105.7362738  50.8225561
  16.3008769 104.9906426  50.9553466  15.5180171 106.0466695  51.7062225
  18.5693988 108.7713985  45.8388004  17.9004363 109.2560113  45.3552044
  18.4306857 109.0183206  46.7531382  10.3072987  98.3068338  49.5430005
  10.3457087  97.7731929  50.3367123   9.8013280  97.7803544  48.9240982
  22.7099256 110.8057729  52.4370662  23.2617564 110.9689350  53.2019747
  23.0505450 111.3962167  51.7650687  17.6863749  93.1532879  53.0392547
  17.7505076  94.0147709  52.6269945  17.6230870  92.5406880  52.3064905
  17.1616022  95.2256011  56.6865581  17.7888061  94.8433088  57.3003105
  16.3043941  95.0070213  57.0521274  27.5610130 105.6318986  58.2919317
  28.1050034 106.2448945  57.7974271  26.9796975 106.1898565  58.8086330
  13.9381565  97.0332440  42.6183936  14.2335006  96.1243119  42.5650990
  13.0369600  97.0120180  42.2964938  25.8467643 108.7539704  49.4234344
  25.7218783 107.9529444  48.9145290  26.5046735 109.2485898  48.9348314
  17.4675812  95.1088437  48.6011485  16.7462397  95.7224405  48.4618958
  18.2569067  95.6446202  48.5228130  27.9102552 106.5548724  51.0513894
  26.9632887 106.4354076  50.9792221  28.2585325 105.6671222  51.1340156
  20.2702125  92.4442863  54.8752136  20.7936527  92.6905160  55.6378446
  20.0514458  93.2762898  54.4555274  15.6669406  94.7146538  42.7423261
  15.3382112  93.8343917  42.5598367  16.0208777  94.6594207  43.6299650
  24.9148985 106.3501441  47.2518247  24.7673948 105.4218148  47.4325817
  25.7402479 106.3721531  46.7675322  18.7811229  95.0019508  43.1098739
  19.1207302  95.5305429  42.3877347  19.2283350  95.3399914  43.8857305
  28.5183107 107.1729999  48.3383119  29.4429654 106.9672861  48.2007571
  28.3498410 106.9246401  49.2472461  21.4754670  93.3856558  52.5601807
  21.1351491  92.5864371  52.9622487  20.7693676  93.6858269  51.9878640
  22.1271142  90.4705871  51.0129130  22.9497211  89.9966349  50.8908020
  22.3709206  91.2496355  51.5127816  20.7679377  93.4994129  41.3092032
  21.4887739  93.8775382  40.8055748  20.1444681  94.2183006  41.4127009
  24.9110499  94.2039278  42.2450364  25.1274114  95.0863916  41.9439192
  24.4304567  93.8125492  41.5156006  19.6509721  97.1624991  48.8221108
  19.5054301  97.4765295  49.7145390  19.1734924  97.7809892  48.2692007
  21.5106104  94.1527539  48.8701998  21.4967672  93.2568633  48.5334296
  22.2278532  94.1598203  49.5040284  23.3632234  94.5864880  50.9155125
  23.1050012  95.5081950  50.9139456  22.8317275  94.1895314  51.6055590
  28.3078423 107.6915667  43.6945211  28.4815301 107.1262089  42.9419063
  28.8007314 108.4916562  43.5124701  14.1255383  99.7030336  51.7608770
  13.5808851 100.4790144  51.8929044  15.0034733 100.0501140  51.6027891
  20.9143000  93.0341920  44.1389568  21.0358911  92.1058566  44.3380456
  20.6245042  93.0480606  43.2267884  23.7834190  90.7196830  47.2756288
  23.8055887  90.7836163  46.3208268  24.2002249  89.8801339  47.4696794
  34.1617814 100.4552090  45.3135511  34.6048960  99.7059415  44.9154634
  33.2844325 100.4462226  44.9309243  29.2953596 107.0082431  40.7942109
  29.9904500 107.6289124  41.0129424  29.6376746 106.1577782  41.0694487
  14.9121405  98.8300232  54.6538927  14.1703141  98.9782867  55.2403557
  14.5914149  99.0908498  53.7905676  31.1945019 104.4582137  42.3229440
  31.7196343 104.7969409  41.5978760  31.1067371 103.5229152  42.1392575
  22.8565067 108.3716210  54.4519317  23.1652194 108.1265357  55.3242016
  23.6540549 108.5762849  53.9638187  22.8785679 110.5254120  46.6824693
  22.4390670 110.0330499  47.3757550  23.6293796 109.9827088  46.4416768
  15.3578018 106.7165661  46.6849321  16.1836038 106.4169433  46.3047965
  15.0072070 105.9473283  47.1339110  20.3259552 106.0692129  48.7546995
  19.7039561 105.4062834  48.4549223  20.9964419 106.0953261  48.0720643
  13.5586624 104.6351987  47.6438255  12.7218532 104.2074162  47.4622256
  13.5310269 104.8284431  48.5809046  20.3984079  94.5473917  58.3479501
  20.4472235  95.4236040  57.9657270  20.9406593  94.0051310  57.7751144
  30.8838925 105.0915040  57.6280638  30.0934469 105.0739179  57.0885137
  30.6472279 105.6303334  58.3829674  31.0036800 101.9407507  54.9413366
  31.0534805 101.7757514  55.8828889  30.8950723 101.0734766  54.5511247
  19.8873059 104.6196052  42.2305455  20.0361179 105.3031517  41.5772128
  20.6939502 104.6001142  42.7454911  28.2940562  97.9238435  56.2572673
  29.1950425  97.7844900  55.9656671  28.3688537  98.0892890  57.1970851
  22.6283368  95.3005290  55.1025859  21.7586677  95.5938856  54.8308448
  22.8642848  95.8845735  55.8233123  32.5054997 104.3604448  55.1855388
  32.2139805 104.7234429  56.0218849  31.8927128 103.6471457  55.0068720
  33.7050679 101.9257328  47.7057958  34.5397570 102.3647132  47.8695519
  33.8409808 101.4495981  46.8866204  30.7542185  99.4837063  53.6535446
  31.2296307  99.6764709  52.8454297  29.8307750  99.5396249  53.4078830
  17.6425692 100.6461230  43.2366524  17.3971733  99.7423560  43.4346734
  17.8121606 100.6478381  42.2946002  25.3322401  91.5184906  52.6191280
  25.8504345  92.2545933  52.2937768  24.9777534  91.8248900  53.4538039
  16.9121339  96.3789588  40.7352686  16.2190584  96.4533943  40.0792722
  16.6673091  95.6149931  41.2574203  25.5834996  87.9385189  48.1392176
  25.8636749  87.2708378  48.7652603  26.3685603  88.1314285  47.6266840
  23.3868464 107.1144183  39.7017203  22.8142431 107.7334370  39.2487675
  23.9601258 107.6643545  40.2357125  29.4543854  96.3602823  51.8863752
  30.4061277  96.4600921  51.9075976  29.2847304  95.5681092  52.3961836
  27.4758233  93.4458406  52.0723152  26.8808166  93.7263419  51.3769641
  27.1907930  93.9352307  52.8439894  26.6065724 107.3981333  40.8325785
  27.5396397 107.3326895  41.0358660  26.5188937 108.2337600  40.3740318
  29.2353741 106.7147203  37.7929733  29.1567372 106.3807067  38.6865490
  30.0563407 107.2068971  37.7921205  31.9331932  99.5808943  51.0006051
  31.9008252  98.6424943  51.1865735  32.5432555  99.6592979  50.2671876
  23.7715263  98.4504996  37.0433255  24.7174367  98.3211204  37.1121673
  23.3929508  97.7119658  37.5202683  32.0826420  96.3719986  51.0464334
  31.5665469  95.5878443  50.8594263  32.9666369  96.0438703  51.2110854
  29.7437147  90.1161002  47.0060147  29.5461968  89.8076090  47.8903479
  30.3536853  90.8422641  47.1358077  37.7508482 100.6424950  50.1412088
  38.4811870 100.3810238  50.7019791  37.1415427  99.9053671  50.1814156
  35.8323779  98.7832812  50.7386539  35.1056942  98.6488777  50.1303031
  35.4171066  99.0909641  51.5443257  23.6553955 102.5022742  58.5033912
  24.5756965 102.6801341  58.6973959  23.6203538 101.5578787  58.3513611
  21.9558180  96.3754972  36.9788140  21.0489635  96.0788085  37.0550854
  22.2334161  96.0784790  36.1122427  12.8736120  97.6961335  47.4287187
  12.5538904  96.8426644  47.1361561  12.3269548  97.9109914  48.1845154
  16.6516028 100.4123776  51.1456693  16.8702037 101.3440884  51.1644727
  17.0641801 100.0531751  51.9311497  23.5720245  90.9191862  43.1332382
  22.7620974  90.5738947  43.5087628  24.2604662  90.6099405  43.7219993
  25.5010794  89.9969909  44.7556678  26.0541832  90.4165362  45.4146701
  25.7380880  89.0705657  44.7979634  21.5243893  95.9856982  60.5359442
  21.4240620  96.9351339  60.4671533  21.3065435  95.6575221  59.6635512
  20.7256964  93.2341907  37.1200120  21.5876128  93.5596806  37.3795937
  20.9107309  92.4473403  36.6073185  12.7424380 101.3164247  49.3980308
  12.0487852 100.9018200  48.8850263  13.4897371 101.3584783  48.8013727
  28.8789601  92.1070434  44.2635343  28.2988270  92.7655238  43.8813395
  28.6125534  91.2847778  43.8522760  27.3293167  91.5075491  46.4656663
  27.8292946  91.6192026  45.6570982  27.9728775  91.2036544  47.1057471
  21.3875163  99.4154121  59.3524504  20.9042245 100.2154481  59.5588393
  21.4736102  99.4262066  58.3991948  14.6561123 101.2482501  47.2746323
  14.6331811 101.3470188  46.3228206  14.9661759 102.0947651  47.5963489
  17.3148501 103.3058656  51.3892938  18.2691754 103.2742598  51.3222869
  17.1161024 102.8449279  52.2043164  17.9047883 101.8759772  53.9563735
  18.7240772 102.3703850  53.9798573  18.1784690 100.9591740  53.9281303
  27.6614479  94.2670524  43.3191691  26.7740334  94.5520175  43.1011886
  28.0768468  94.1064287  42.4718968  31.0129015  94.2917045  47.0346030
  31.7889405  94.7813498  47.3070647  30.2877149  94.7175099  47.4917900
  33.4501574  95.0044664  48.0919971  34.0446064  94.7640400  47.3813279
  33.5228157  94.2851795  48.7193507  15.6698729 108.8478275  48.4063136
  15.5353197 108.0878676  47.8401134  15.2530792 109.5719175  47.9391924
  26.8057692 104.0315199  37.4139711  27.5093542 104.2365201  38.0297366
  26.0820341 104.5991961  37.6788794  27.6355503  99.7825060  43.5341981
  27.5790704 100.2393611  42.6949613  28.1883845  99.0215745  43.3564824
  31.4460309  95.5714792  44.3592101  31.1897243  95.1711428  45.1900308
  30.8213177  96.2858586  44.2342240  35.7572646  98.3110865  46.8663392
  35.1972204  98.3804054  47.6394954  35.1516150  98.1351850  46.1462888
  18.8267855 109.7447592  48.6181578  18.7100239 110.6893025  48.5160268
  18.0060301 109.4421154  49.0067377  28.7144390 104.4697728  39.4638171
  29.5489994 104.0378926  39.2815646  28.5528733 104.2979742  40.3915065
  28.3690282 100.9729841  40.8294510  28.3139086 100.8074113  39.8882954
  27.7436337 101.6805874  40.9856700  13.1582797  96.2097906  54.6555932
  13.8041660  95.6996860  55.1443158  12.9499948  96.9466587  55.2299358
  25.6836189 103.2778753  60.1548073  26.5527349 103.4519405  59.7934708
  25.2042941 104.0973170  60.0323802  21.6786407  90.4737950  40.4079829
  21.6665077  91.4179790  40.5648099  22.5709829  90.2908096  40.1139290
  19.8522369 110.3975854  51.8337507  20.7549616 110.4299464  52.1504002
  19.6259739 109.4676305  51.8483842  21.6075971 109.1506841  48.4947585
  20.6571602 109.1508702  48.3811958  21.9108457 108.4039575  47.9783620
  25.4938527  87.0680727  44.6625765  24.7270923  86.5139214  44.8082448
  25.9049232  87.1402596  45.5239917  17.4980288  93.3565523  58.7530947
  18.3611749  93.0002328  58.9634271  16.9245699  93.0179418  59.4406351
  37.3428665 114.9867379  49.5593348  37.9807075 114.8674126  48.8556688
  37.2249508 115.9348223  49.6181300  34.1518371 114.9394807  49.4954872
  33.8136883 114.8235872  48.6075407  35.0208139 114.5385972  49.4755878
  34.6338154 116.0929659  55.4541078  34.6226795 115.6982457  54.5821582
  34.7958794 115.3595732  56.0474849  31.8526650 113.7083055  38.8271812
  32.1052171 113.1864576  38.0655275  30.9151210 113.5449200  38.9298496
  36.8969933 112.7118833  46.6346556  37.6833023 112.2938256  46.2836973
  37.1608638 113.6164925  46.8028204  42.2978360 112.6494066  47.5379534
  43.0303532 112.0793283  47.7717364  41.5417716 112.2615667  47.9786040
  33.9154480 115.0721308  44.7342877  33.5512687 114.5451929  45.4455798
  34.7721596 114.6819777  44.5609362  39.8203781 106.3615640  51.9974143
  39.4887106 107.2311051  51.7735358  39.2249394 106.0451924  52.6768173
  33.5559967 110.1011207  39.7304225  33.7234369 110.9691444  40.0974696
  33.3657136 110.2638489  38.8065514  39.7132444 111.0810726  49.0767493
  38.8049321 111.0126135  48.7826254  39.6620040 111.5582671  49.9049318
  33.5349188 112.5568865  40.7150892  33.4148813 113.0025916  41.5536372
  32.8401776 112.9054182  40.1564430  33.7873310 112.5000372  57.0202390
  33.0106644 113.0594292  57.0105255  34.4263873 112.9857155  57.5417260
  41.5794091 109.2827165  50.8545367  40.9368471 109.5759698  50.2085161
  41.0749019 109.1680085  51.6598563  39.2334254 113.0290338  41.5431226
  40.1452110 113.2617725  41.3678924  38.7243901 113.6127382  40.9806305
  37.5175022 117.4514966  55.1792519  37.9258378 117.0097376  54.4347151
  36.7952283 116.8767593  55.4326712  33.8706092 112.3887573  52.5526076
  34.7167287 112.8126986  52.6960725  33.8104730 111.7321197  53.2464639
  37.0205537 110.0491941  54.2107249  36.7766469 110.8034001  53.6741525
  37.2965468 110.4277289  55.0454496  38.9744000 116.5930553  52.8884515
  39.1860895 117.2362313  52.2118896  38.9273748 115.7592870  52.4206445
  36.5770229 109.2048374  49.7921087  35.7154708 109.5029628  50.0837825
  36.6032664 109.4218773  48.8602120  32.3300684 113.8713717  43.0084458
  33.0324728 114.3234761  43.4758384  31.9981313 113.2297536  43.6364351
  30.7781046 112.4625474  57.3835667  30.1479707 113.1441754  57.6171064
  30.6717134 112.3508555  56.4388805  26.0726018 112.1297270  48.3101591
  25.2825072 112.3854798  47.8341702  26.5637266 112.9445607  48.4153632
  28.0240764 112.4941849  45.2685068  27.2271927 112.6060543  45.7868564
  27.7966356 112.8328501  44.4025959  48.1795821 115.8141257  47.4091844
  47.4259529 115.2448655  47.2535848  48.3143362 115.7803922  48.3562478
  30.0561789 106.7646239  59.7460918  29.6628734 106.2112438  60.4208562
  30.8727929 107.0756818  60.1367436  32.9729750 108.1804118  57.3381175
  33.7139463 108.7811272  57.2585637  33.2047672 107.4381756  56.7799217
  28.1171088 113.3660486  55.6159404  28.0024603 112.4645743  55.9166503
  27.2615605 113.6124182  55.2644221  36.9186913 104.2085221  51.6145456
  36.5751182 105.0986863  51.5384567  37.2865875 104.0186879  50.7515041
  36.8837195 114.1993833  40.1217892  36.3683819 114.9698437  40.3606279
  36.6114504 113.5258969  40.7450953  34.4684306 109.0443533  45.1803130
  33.6125903 108.6550384  45.0008769  34.8811258 109.1235494  44.3202915
  35.9983453 106.5789877  49.5794690  35.4948249 106.5420012  48.7662495
  36.2914060 107.4882619  49.6391346  32.2426339 106.6628606  48.5860871
  33.1079336 106.4671415  48.2266761  32.3103848 106.4338958  49.5130228
  41.8571469 116.9526187  42.0571065  41.0800912 116.6137347  41.6126227
  42.5362950 116.9578810  41.3826030  36.6723498 112.0720925  41.9477673
  36.3673634 112.3867074  42.7987816  37.6253941 112.1502344  41.9905006
  40.0962776 116.4260168  48.7137673  39.4386451 117.1159430  48.8017802
  40.9003176 116.8156600  49.0571659  29.8488658 108.8930814  45.9577238
  30.4232410 108.6705996  45.2250431  30.4359640 108.9619509  46.7105840
  38.9068235 114.7804541  46.7641615  39.4200117 115.4134533  47.2663324
  39.5569459 114.1805737  46.3984975  30.1758245 110.9235275  39.9773124
  29.3395557 111.2609962  40.2982398  30.0363015 110.7884255  39.0400260
  32.1511326 105.7672063  44.6852308  31.4975738 105.4521080  44.0608922
  32.1091800 105.1447804  45.4112131  33.2622531 116.0491358  36.6005600
  32.3549592 115.8180612  36.7996749  33.7593562 115.2528977  36.7879581
  35.3849066 112.2553997  49.0099955  34.4671627 112.4768944  48.8521643
  35.8009210 112.3300307  48.1511663  36.1684114 113.6545412  44.1402636
  36.9155933 114.1666810  43.8309758  36.4375703 113.3329465  45.0007029
  34.4410764 116.1503953  41.1229590  33.5321983 115.8662986  41.2202060
  34.4705848 116.5703032  40.2632897  38.6162951 110.6902529  46.1221425
  37.8785708 110.1779915  46.4531667  38.8689724 110.2502910  45.3104702
  38.7174578 103.4678781  46.7163194  39.0233455 102.6076144  46.4289109
  39.4427183 104.0596401  46.5162188  32.9895658 113.7632574  47.2239385
  33.0444268 112.8106410  47.1481862  32.1786860 113.9192013  47.7080684
  30.9288018 112.3809633  44.9829764  30.1155883 112.6803804  45.3894956
  31.4247012 111.9865322  45.7004246  36.5262230 112.8451458  53.8144658
  36.8811617 113.0722931  54.6739124  37.1734361 113.1769835  53.1921913
  42.2559967 115.9669894  44.5193987  42.1177865 116.1571490  43.5915176
  41.8996185 116.7289277  44.9762038  30.4202093 109.9527989  50.5990999
  31.0601472 109.8116748  49.9013962  29.5879623 109.6662502  50.2229601
  42.2829346 118.0346421  49.5305258  42.7165853 117.9421710  50.3788313
  42.9960927 118.0103921  48.8925274  27.5045160 113.3973501  42.7885744
  26.5742748 113.3357957  43.0055706  27.6002632 112.8749454  41.9922385
  27.4230709 109.9228314  45.3763986  27.6837526 110.8373647  45.2673146
  28.2447881 109.4552756  45.5260599  28.8955634 111.3366071  52.5462810
  29.5678688 111.1283433  51.8975459  28.0685421 111.1388157  52.1068043
  43.1444896 118.0770121  52.0638144  43.3380786 118.9815932  52.3097419
  43.0445514 117.6177540  52.8976729  34.7981206 107.9628012  54.5628471
  34.1509121 108.6617962  54.4692948  35.5682222 108.3964156  54.9304719
  34.9745341 115.8008777  52.6225291  35.9037401 115.9519937  52.4494258
  34.5536371 115.8892798  51.7673937  29.2983132 114.6108674  53.3065248
  29.1602930 113.8788913  53.9076787  30.2088055 114.5217574  53.0249435
  38.2598079 116.5497078  38.0549726  37.6427250 115.8243907  37.9582779
  37.7914568 117.3106439  37.7116800  31.9265432 114.3228633  52.7948927
  32.6365051 113.6821826  52.7535546  31.8834741 114.5741528  53.7175108
  30.6394366 111.3093851  54.6144567  30.1031723 110.8584590  55.2666163
  30.0511075 111.4439760  53.8715031  30.0496625 110.7682503  37.1771030
  29.1726092 110.6471303  36.8133277  30.5254378 109.9768581  36.9249919
  26.3733488 110.4449859  51.6997561  26.2891676 109.8375529  50.9647971
  25.5516194 110.9358877  51.7007057  36.5457201 108.9303422  47.0667756
  37.0425901 108.1773385  46.7468826  35.7744183 108.9667739  46.5010966
  44.3986959 114.6343788  48.7086048  44.3876835 115.5168503  48.3379981
  43.5304338 114.2815339  48.5140585  33.1292170 111.0720805  46.7939441
  32.7589958 110.5191846  47.4820346  33.6251263 110.4678939  46.2414441
  41.0159533 113.5292429  45.1756214  41.4819986 114.3620421  45.1016516
  41.4667034 113.0637411  45.8801472  38.9876196 105.8973016  49.2147115
  38.0739276 106.1277243  49.3829322  39.4169298 105.9811460  50.0661147
  38.7582655 114.0862908  51.7147009  38.1054105 114.3338815  51.0599462
  39.1363035 113.2727046  51.3809486  34.8070228 114.8282719  58.2013046
  34.1310865 114.7276848  58.8715421  35.6297862 114.6721933  58.6649043
  28.5257504 108.4824796  53.0392547  28.5898830 109.3439627  52.6269945
  28.4624624 107.8698798  52.3064905  28.0009776 110.5547929  56.6865581
  28.6281815 110.1725006  57.3003105  27.1437695 110.3362131  57.0521274
  24.7775319 112.3624358  42.6183936  25.0728760 111.4535036  42.5650990
  23.8763355 112.3412097  42.2964938  28.3069566 110.4380354  48.6011485
  27.5856152 111.0516322  48.4618958  29.0962822 110.9738119  48.5228130
  31.1095880 107.7734781  54.8752136  31.6330281 108.0197078  55.6378446
  30.8908213 108.6054816  54.4555274  26.5063161 110.0438456  42.7423261
  26.1775867 109.1635834  42.5598367  26.8602531 109.9886124  43.6299650
  29.6204984 110.3311425  43.1098739  29.9601056 110.8597347  42.3877347
  30.0677104 110.6691831  43.8857305  32.3148425 108.7148476  52.5601807
  31.9745245 107.9156289  52.9622487  31.6087431 109.0150187  51.9878640
  32.9664897 105.7997789  51.0129130  33.7890966 105.3258267  50.8908020
  33.2102960 106.5788272  51.5127816  31.6073131 108.8286047  41.3092032
  32.3281494 109.2067300  40.8055748  30.9838435 109.5474924  41.4127009
  35.7504254 109.5331196  42.2450364  35.9667868 110.4155834  41.9439192
  35.2698321 109.1417409  41.5156006  30.4903475 112.4916909  48.8221108
  30.3448056 112.8057212  49.7145390  30.0128679 113.1101809  48.2692007
  32.3499858 109.4819457  48.8701998  32.3361427 108.5860550  48.5334296
  33.0672286 109.4890121  49.5040284  34.2025989 109.9156797  50.9155125
  33.9443767 110.8373868  50.9139456  33.6711029 109.5187232  51.6055590
  31.7536754 108.3633837  44.1389568  31.8752665 107.4350484  44.3380456
  31.4638796 108.3772523  43.2267884  34.6227944 106.0488748  47.2756288
  34.6449641 106.1128081  46.3208268  35.0396003 105.2093256  47.4696794
  45.0011569 115.7844007  45.3135511  45.4442715 115.0351333  44.9154634
  44.1238079 115.7754144  44.9309243  31.2377834 109.8765835  58.3479501
  31.2865989 110.7527958  57.9657270  31.7800348 109.3343228  57.7751144
  41.8430554 117.2699424  54.9413366  41.8928559 117.1049432  55.8828889
  41.7344478 116.4026683  54.5511247  39.1334317 113.2530352  56.2572673
  40.0344179 113.1136817  55.9656671  39.2082291 113.4184807  57.1970851
  33.4677122 110.6297207  55.1025859  32.5980431 110.9230773  54.8308448
  33.7036602 111.2137652  55.8233123  44.5444433 117.2549246  47.7057958
  45.3791325 117.6939050  47.8695519  44.6803562 116.7787899  46.8866204
  41.5935939 114.8128981  53.6535446  42.0690061 115.0056627  52.8454297
  40.6701505 114.8688166  53.4078830  36.1716156 106.8476824  52.6191280
  36.6898100 107.5837851  52.2937768  35.8171289 107.1540817  53.4538039
  27.7515094 111.7081505  40.7352686  27.0584338 111.7825860  40.0792722
  27.5066845 110.9441849  41.2574203  36.4228750 103.2677107  48.1392176
  36.7030504 102.6000296  48.7652603  37.2079357 103.4606202  47.6266840
  40.2937608 111.6894741  51.8863752  41.2455031 111.7892838  51.9075976
  40.1241059 110.8973009  52.3961836  38.3151988 108.7750324  52.0723152
  37.7201920 109.0555337  51.3769641  38.0301685 109.2644225  52.8439894
  42.7725686 114.9100860  51.0006051  42.7402006 113.9716861  51.1865735
  43.3826310 114.9884897  50.2671876  34.6109017 113.7796913  37.0433255
  35.5568122 113.6503121  37.1121673  34.2323262 113.0411575  37.5202683
  42.9220175 111.7011904  51.0464334  42.4059223 110.9170360  50.8594263
  43.8060123 111.3730620  51.2110854  40.5830902 105.4452919  47.0060147
  40.3855723 105.1368008  47.8903479  41.1930607 106.1714558  47.1358077
  48.5902236 115.9716867  50.1412088  49.3205625 115.7102155  50.7019791
  47.9809182 115.2345589  50.1814156  46.6717533 114.1124730  50.7386539
  45.9450697 113.9780695  50.1303031  46.2564820 114.4201558  51.5443257
  32.7951934 111.7046890  36.9788140  31.8883390 111.4080002  37.0550854
  33.0727915 111.4076708  36.1122427  34.4114000 106.2483779  43.1332382
  33.6014728 105.9030864  43.5087628  35.0998417 105.9391323  43.7219993
  36.3404548 105.3261826  44.7556678  36.8935587 105.7457280  45.4146701
  36.5774635 104.3997574  44.7979634  32.3637647 111.3148900  60.5359442
  32.2634374 112.2643257  60.4671533  32.1459190 110.9867139  59.6635512
  31.5650719 108.5633825  37.1200120  32.4269883 108.8888723  37.3795937
  31.7501063 107.7765321  36.6073185  39.7183355 107.4362351  44.2635343
  39.1382024 108.0947155  43.8813395  39.4519288 106.6139696  43.8522760
  38.1686922 106.8367409  46.4656663  38.6686700 106.9483944  45.6570982
  38.8122530 106.5328462  47.1057471  32.2268918 114.7446039  59.3524504
  31.7435999 115.5446399  59.5588393  32.3129857 114.7553984  58.3991948
  38.5008233 109.5962442  43.3191691  37.6134088 109.8812092  43.1011886
  38.9162222 109.4356205  42.4718968  41.8522769 109.6208963  47.0346030
  42.6283160 110.1105415  47.3070647  41.1270904 110.0467017  47.4917900
  44.2895328 110.3336582  48.0919971  44.8839819 110.0932318  47.3813279
  44.3621912 109.6143713  48.7193507  38.4749257 115.1116978  43.5341981
  38.4184458 115.5685529  42.6949613  39.0277600 114.3507662  43.3564824
  42.2854063 110.9006710  44.3592101  42.0290997 110.5003345  45.1900308
  41.6606931 111.6150503  44.2342240  46.5966401 113.6402783  46.8663392
  46.0365959 113.7095972  47.6394954  45.9909904 113.4643767  46.1462888
  39.2084036 116.3021759  40.8294510  39.1532840 116.1366030  39.8882954
  38.5830092 117.0097792  40.9856700  23.9976551 111.5389823  54.6555932
  24.6435415 111.0288777  55.1443158  23.7893702 112.2758505  55.2299358
  32.5180162 105.8029868  40.4079829  32.5058832 106.7471708  40.5648099
  33.4103584 105.6200013  40.1139290  36.3332281 102.3972645  44.6625765
  35.5664677 101.8431131  44.8082448  36.7442986 102.4694513  45.5239917
  28.3374042 108.6857440  58.7530947  29.2005504 108.3294245  58.9634271
  27.7639453 108.3471335  59.4406351  47.7580667 119.5377139  51.6145456
  47.4144936 120.4278781  51.5384567  48.1259630 119.3478797  50.7515041
  49.5568333 118.7970698  46.7163194  49.8627210 117.9368062  46.4289109
  50.2820938 119.3888318  46.5162188  49.8269951 121.2264934  49.2147115
  48.9133030 121.4569161  49.3829322  50.2563052 121.3103378  50.0661147
  47.2622505 118.5969024  48.1392176  47.5424258 117.9292213  48.7652603
  48.0473111 118.7898120  47.6266840  51.4224656 120.7744837  47.0060147
  51.2249477 120.4659925  47.8903479  52.0324362 121.5006476  47.1358077
  47.1798303 120.6553744  44.7556678  47.7329341 121.0749197  45.4146701
  47.4168389 119.7289492  44.7979634  47.1726036 117.7264562  44.6625765
  46.4058432 117.1723049  44.8082448  47.5836741 117.7986431  45.5239917
   4.8220804  31.5035709  34.1337150   4.0684513  30.9343107  33.9781155
   4.9568345  31.4698374  35.0807785   1.6436552  31.4738459  32.0380817
   2.0867698  30.7245785  31.6399940   0.7663062  31.4648596  31.6554549
   1.1869417  32.9443698  34.4303265   2.0216308  33.3833502  34.5940825
   1.3228546  32.4682351  33.6111511   5.2327219  31.6611319  36.8657395
   5.9630608  31.3996607  37.4265098   4.6234165  30.9240041  36.9059463
   3.3142516  29.8019182  37.4631846   2.5875680  29.6675147  36.8548337
   2.8989803  30.1096010  38.2688564   0.9320311  26.0231034  34.8165277
   1.5264802  25.7826770  34.1058586   1.0046895  25.3038164  35.4438814
   3.2391384  29.3297235  33.5908699   2.6790942  29.3990424  34.3640261
   2.6334888  29.1538219  32.8708195   4.8247403  46.0053749  36.2838654
   5.4625813  45.8860496  35.5801994   4.7068245  46.9534593  36.3426606
   1.6337109  45.9581177  36.2200179   1.2955620  45.8422241  35.3320714
   2.5026877  45.5572342  36.2001185   2.1156892  47.1116028  42.1786385
   2.1045533  46.7168827  41.3066888   2.2777531  46.3782101  42.7720156
   3.0723483  51.4787621  27.5211535   2.4211463  52.0641701  27.1345549
   3.8667846  52.0093816  27.5806572   4.3788671  43.7305202  33.3591862
   5.1651760  43.3124626  33.0082279   4.6427375  44.6351295  33.5273511
   4.5498748  49.1678053  28.0580519   3.9144581  49.2412679  28.7701424
   4.2196155  49.7571652  27.3799598   9.7797098  43.6680436  34.2624841
  10.5122270  43.0979652  34.4962670   9.0236454  43.2802036  34.7031346
   1.3973218  46.0907677  31.4588183   1.0331425  45.5638298  32.1701105
   2.2540334  45.7006146  31.2854669   7.3022519  37.3802010  38.7219449
   6.9705843  38.2497421  38.4980664   6.7068132  37.0638294  39.4013480
   1.0378705  41.1197577  26.4549532   1.2053107  41.9877813  26.8220003
   0.8475874  41.2824859  25.5310821   3.7954038  49.5814556  38.1215362
   3.4954761  50.4839595  38.0131169   3.4505098  49.3146739  38.9736515
   7.1951182  42.0997096  35.8012800   6.2868059  42.0312504  35.5071560
   7.1438778  42.5769041  36.6294625   1.2692048  43.5186742  43.7447697
   0.4925382  44.0780662  43.7350561   1.9082611  44.0043525  44.2662567
   9.0612828  40.3013534  37.5790673   8.4187209  40.5946068  36.9330468
   8.5567757  40.1866455  38.3843870   6.7152992  44.0476708  28.2676533
   7.6270848  44.2804094  28.0924230   6.2062639  44.6313752  27.7051611
   4.9993760  48.4701335  41.9037825   5.4077116  48.0283746  41.1592458
   4.2771021  47.8953963  42.1572018   1.3524830  43.4073942  39.2771382
   2.1986025  43.8313356  39.4206031   1.2923467  42.7507566  39.9709945
   5.3222574  49.0302526  35.6590114   4.6931437  49.1948240  34.9566182
   4.9348236  49.4444136  36.4301078   9.2011806  49.9656964  33.0134478
   8.5162844  50.3455865  32.4631511   9.2855655  50.5752291  33.7466426
   4.5024275  41.0678311  40.9352556   4.2585207  41.8220371  40.3986832
   4.7784206  41.4463658  41.7699803   6.4562738  47.6116923  39.6129821
   6.6679633  48.2548683  38.9364203   6.4092486  46.7779239  39.1451752
   4.0588967  40.2234744  36.5166394   3.1973446  40.5215997  36.8083131
   4.0851401  40.4405142  35.5847426   0.8750536  48.7676934  32.9240199
   1.3388882  49.0464637  32.1344822   0.6107334  47.8660379  32.7413290
   7.5708566  50.4888878  37.7852179   8.3926009  50.0869066  37.5034860
   7.5670969  50.3857112  38.7368295   1.3365169  50.0372922  39.9412889
   1.4009602  50.4993329  40.7771061   0.6276093  49.4070287  40.0695199
  15.6614559  46.8327627  34.1337150  14.9078267  46.2635025  33.9781155
  15.7962100  46.7990291  35.0807785   1.0513187  51.7041029  29.8091870
   0.9158862  52.5492565  30.2376717   1.5922999  51.9060307  29.0457803
   2.6781663  52.3264596  43.9392212   2.2345517  51.5400974  43.6213116
   3.3398877  52.5143746  43.2736102   4.7762901  52.6067396  41.9673613
   4.7581377  53.4276277  41.4753882   5.6982821  52.4821471  42.1923754
   1.2335955  50.1211525  42.8097121   1.7664292  49.3599813  42.5796429
   0.7050037  49.8285177  43.5521276   4.4005650  35.2271591  38.3390763
   4.0569920  36.1173233  38.2629874   4.7684613  35.0373249  37.4760348
   4.3655933  45.2180202  26.8463198   3.8502557  45.9884807  27.0851586
   4.0933242  44.5445338  27.4696260   1.9503044  40.0629903  31.9048437
   1.0944640  39.6736753  31.7254075   2.3629996  40.1421864  31.0448222
   3.4802191  37.5976246  36.3039996   2.9766986  37.5606381  35.4907802
   3.7732798  38.5068989  36.3636653   9.3390207  47.9712557  28.7816372
   8.5619650  47.6323716  28.3371534  10.0181688  47.9765180  28.1071337
   4.1542236  43.0907294  28.6722979   3.8492372  43.4053443  29.5233123
   5.1072678  43.1688714  28.7150312   2.5988668  49.2497517  30.3215933
   2.0710030  48.5150277  30.0089171   2.0976171  50.0272194  30.0755902
   7.5781514  47.4446538  35.4382980   6.9205189  48.1345799  35.5263108
   8.3821913  47.8342970  35.7816966   6.3886973  45.7990911  33.4886921
   6.9018855  46.4320903  33.9908631   7.0388197  45.1992106  33.1230281
   3.6509347  55.7775235  26.2447593   2.9771046  56.0806932  26.8532550
   4.0375169  56.5804315  25.8953050   2.8667804  43.2740366  35.7345262
   1.9490365  43.4955313  35.5766950   3.2827947  43.3486677  34.8756969
   3.6502852  44.6731782  30.8647942   4.3974671  45.1853179  30.5555064
   3.9194441  44.3515835  31.7252336   1.9229502  47.1690323  27.8474896
   1.0140721  46.8849355  27.9447366   1.9524586  47.5889401  26.9878203
   7.1548769  50.7796912  31.6166064   6.7011096  49.9387822  31.6731255
   6.5242736  51.4158310  31.9540844   6.0981689  41.7088898  32.8466731
   5.3604446  41.1966284  33.1776974   6.3508462  41.2689280  32.0350008
   5.5981708  52.6173409  32.5515882   5.8904683  53.1778466  31.8328248
   6.1080329  52.9101970  33.3069041   6.1993316  34.4865150  33.4408501
   6.5052193  33.6262514  33.1534416   6.9245921  35.0782770  33.2407495
   1.6205590  48.7099066  25.1862975   1.1825019  47.9934925  24.7268612
   2.3616030  48.9375181  24.6248066   0.5615334  53.3953760  33.6409335
   0.5191512  53.6214606  32.7117867   1.4778032  53.1617134  33.7895137
   4.0080967  43.8637827  40.5389965   4.3630355  44.0909301  41.3984430
   4.6553099  44.1956204  39.9167220   9.7378704  46.9856263  31.2439294
   9.5996603  47.1757859  30.3160483   9.3814923  47.7475646  31.7007345
   9.7648084  49.0532790  36.2550565  10.1984591  48.9608079  37.1033619
  10.4779665  49.0290291  35.6170581   3.4975979  52.6534884  37.7883666
   3.5513001  53.2225821  38.5561382   2.6290760  52.8236769  37.4237703
  10.6263634  49.0956491  38.7883451  10.8199524  50.0002301  39.0342725
  10.5264252  48.6363910  39.6222036   2.2799944  38.9814382  41.2873778
   1.6327859  39.6804331  41.1938254   3.0500960  39.4150525  41.6550026
   5.6878742  49.2463234  44.3624331   5.5364249  49.0173785  43.4454415
   5.6783422  50.2033835  44.3755676   2.4564079  46.8195146  39.3470598
   3.3856139  46.9706306  39.1739565   2.0355109  46.9079167  38.4919244
   1.8500562  55.9454907  28.4594672   2.0252318  55.4742951  29.2740294
   1.1633350  56.5720674  28.6875932   2.8057626  50.2227414  34.5057973
   2.4707458  50.1828184  35.4015623   2.3061571  49.5572130  34.0328383
   5.7416817  47.5683448  24.7795033   5.1245988  46.8430276  24.6828085
   5.2733306  48.3292808  24.4362107   7.3970949  52.2782356  42.4400813
   7.3383495  51.5941576  41.7731396   7.7990467  53.0201346  41.9881439
   7.3988356  50.2421940  40.6714793   6.5115135  49.9047862  40.7941192
   7.9686907  49.5104971  40.9083558   0.9289509  54.9023393  37.6376036
   0.8559681  55.7078364  38.1495340   0.4866903  55.1015358  36.8124057
   4.0275939  39.9489792  33.7913063   4.5244639  39.1959754  33.4714133
   3.2562921  39.9854109  33.2256272  11.8805697  45.6530158  35.4331354
  11.8695573  46.5354873  35.0625287  11.0123076  45.3001708  35.2385891
   3.3888193  54.8010227  39.7934195   4.1016165  55.4357691  39.7210096
   2.8978222  54.8974093  38.9774196   5.1105720  48.7061479  31.3651486
   4.1761999  48.8262942  31.1956191   5.2882388  47.8033946  31.1011496
   8.4978271  44.5478799  31.9001520   8.9638723  45.3806790  31.8261823
   8.9485772  44.0823780  32.6046779   6.5654502  50.8922620  28.8987672
   6.8414346  50.7779214  29.8081546   5.6959001  50.4940105  28.8599845
   6.4694934  36.9159386  35.9392422   5.5558014  37.1463612  36.1074629
   6.8988035  36.9997830  36.7906454   6.2401393  45.1049278  38.4392316
   5.5872843  45.3525185  37.7844768   6.6181772  44.2913416  38.1054793
   3.2008566  55.1408971  32.5420486   3.3830961  54.3230627  33.0048238
   4.0241552  55.3576663  32.1045376   3.5350732  54.0677156  29.8035534
   4.0638498  53.5569610  29.1905697   3.7978951  53.7519686  30.6681068
   2.2888966  45.8469089  44.9258353   1.6129603  45.7463218  45.5960728
   3.1116599  45.6908302  45.3894350   1.0311748  57.1536016  39.1615969
   1.5830056  57.3167638  39.9265054   1.3717942  57.7440454  38.4895994
   5.8822623  51.9797274  45.0164623   6.4262527  52.5927232  44.5219578
   5.3009468  52.5376852  45.5331636   4.1680136  55.1017992  36.1479651
   4.0431275  54.3007731  35.6390596   4.8259227  55.5964185  35.6593621
   6.2315044  52.9027012  37.7759201   5.2845380  52.7832363  37.7037528
   6.5797817  52.0149510  37.8585462   3.2361477  52.6979728  33.9763553
   3.0886440  51.7696435  34.1571123   4.0614971  52.7199819  33.4920629
   6.8395599  53.5208287  35.0628426   7.7642147  53.3151148  34.9252877
   6.6710903  53.2724688  35.9717768   3.2322992  40.5517566  28.9695671
   3.4486606  41.4342203  28.6684499   2.7517059  40.1603779  28.2401312
   1.6844727  40.9343167  37.6400432   1.4262504  41.8560238  37.6384763
   1.1529767  40.5373601  38.3300896   6.6290915  54.0393954  30.4190517
   6.8027793  53.4740377  29.6664370   7.1219807  54.8394849  30.2370007
   2.1046682  37.0675117  34.0001595   2.1268379  37.1314451  33.0453574
   2.5214741  36.2279626  34.1942101  12.4830307  46.8030377  32.0380817
  12.9261453  46.0537702  31.6399940  11.6056817  46.7940513  31.6554549
   7.6166088  53.3560718  27.5187416   8.3116993  53.9767411  27.7374730
   7.9589238  52.5056070  27.7939794   9.5157511  50.8060424  29.0474747
  10.0408835  51.1447697  28.3224067   9.4279864  49.8707439  28.8637881
   1.1777560  54.7194498  41.1764623   1.4864686  54.4743644  42.0487323
   1.9753042  54.9241136  40.6883493   1.1998172  56.8732407  33.4070000
   0.7603162  56.3808786  34.1002856   1.9506289  56.3305375  33.1662075
   9.2051417  51.4393328  44.3525944   8.4146961  51.4217466  43.8130444
   8.9684772  51.9781621  45.1074981   9.3249292  48.2885794  41.6658673
   9.3747297  48.1235801  42.6074196   9.2163215  47.4213053  41.2756554
   6.6153055  44.2716722  42.9817980   7.5162917  44.1323187  42.6901978
   6.6901029  44.4371177  43.9216157  10.8267489  50.7082735  41.9100695
  10.5352297  51.0712716  42.7464156  10.2139620  49.9949744  41.7314027
  12.0263171  48.2735615  34.4303265  12.8610063  48.7125419  34.5940825
  12.1622300  47.7974268  33.6111511   9.0754677  45.8315350  40.3780753
   9.5508799  46.0242996  39.5699604   8.1520243  45.8874536  40.1324136
   3.6534894  37.8663194  39.3436586   4.1716838  38.6024221  39.0183075
   3.2990026  38.1727187  40.1783346   3.9047488  34.2863476  34.8637483
   4.1849242  33.6186665  35.4897910   4.6898095  34.4792572  34.3512147
   1.7080956  53.4622470  26.4262509   1.1354923  54.0812657  25.9732981
   2.2813750  54.0121832  26.9602431   7.7756346  42.7081110  38.6109058
   8.7273769  42.8079208  38.6321282   7.6059797  41.9159379  39.1207143
   5.7970726  39.7936693  38.7968459   5.2020658  40.0741706  38.1014948
   5.5120422  40.2830594  39.5685200   4.9278216  53.7459620  27.5571092
   5.8608889  53.6805182  27.7603967   4.8401429  54.5815887  27.0985624
   7.5566233  53.0625491  24.5175039   7.4779864  52.7285354  25.4110797
   8.3775900  53.5547259  24.5166512  10.2544424  45.9287230  37.7251358
  10.2220744  44.9903231  37.9111042  10.8645048  46.0071267  36.9917183
   2.0927755  44.7983283  23.7678562   3.0386860  44.6689491  23.8366980
   1.7142000  44.0597945  24.2447990  10.4038912  42.7198273  37.7709641
   9.8877961  41.9356730  37.5839570  11.2878861  42.3916990  37.9356160
   8.0649639  36.4639289  33.7305454   7.8674461  36.1554377  34.6148786
   8.6749345  37.1900928  33.8603384  16.0720974  46.9903237  36.8657395
  16.8024362  46.7288525  37.4265098  15.4627919  46.2531959  36.9059463
  14.1536271  45.1311099  37.4631846  13.4269435  44.9967064  36.8548337
  13.7383558  45.4387928  38.2688564   1.9766447  48.8501029  45.2279219
   2.8969457  49.0279628  45.4219265   1.9416030  47.9057074  45.0758918
   1.8932738  37.2670149  29.8577688   1.0833466  36.9217234  30.2332934
   2.5817155  36.9577693  30.4465300   3.8223286  36.3448196  31.4801985
   4.3754325  36.7643649  32.1392008   4.0593372  35.4183944  31.5224941
   7.2002093  38.4548721  30.9880649   6.6200762  39.1133525  30.6058702
   6.9338026  37.6326066  30.5768067   5.6505659  37.8553779  33.1901970
   6.1505438  37.9670313  32.3816288   6.2941267  37.5514831  33.8302778
   5.9826971  40.6148811  30.0436998   5.0952826  40.8998462  29.8257192
   6.3980960  40.4542575  29.1964274   9.3341507  40.6395332  33.7591337
  10.1101897  41.1291785  34.0315954   8.6089641  41.0653387  34.2163206
  11.7714066  41.3522952  34.8165277  12.3658557  41.1118687  34.1058586
  11.8440650  40.6330082  35.4438814   5.1270185  50.3793486  24.1385018
   5.8306035  50.5843488  24.7542673   4.4032833  50.9470248  24.4034101
   5.9567995  46.1303347  30.2587288   5.9003196  46.5871899  29.4194920
   6.5096337  45.3694032  30.0810130   9.7672801  41.9193079  31.0837407
   9.5109735  41.5189715  31.9145615   9.1425669  42.6336873  30.9587546
  14.0785139  44.6589152  33.5908699  13.5184697  44.7282342  34.3640261
  13.4728642  44.4830137  32.8708195   7.0356882  50.8176015  26.1883478
   7.8702486  50.3857214  26.0060952   6.8741225  50.6458029  27.1160372
   6.6902774  47.3208129  27.5539817   6.6351578  47.1552400  26.6128261
   6.0648829  48.0284161  27.7102007   4.0048681  49.6257040  46.8793380
   4.8739841  49.7997693  46.5180015   3.5255433  50.4451457  46.7569109
   3.8151019  33.4159014  31.3871072   3.0483415  32.8617501  31.5327754
   4.2261724  33.4880883  32.2485224  15.6641157  61.3345666  36.2838654
  16.3019567  61.2152414  35.5801994  15.5462000  62.2826510  36.3426606
  12.4730863  61.2873094  36.2200179  12.1349375  61.1714159  35.3320714
  13.3420632  60.8864260  36.2001185   8.3317679  63.1408571  32.2097070
   7.7682544  63.0498508  31.4413358   8.2170074  62.3208475  32.6899562
  12.9550646  62.4407946  42.1786385  12.9439287  62.0460744  41.3066888
  13.1171286  61.7074019  42.7720156   5.8782111  64.6359762  35.0481290
   6.6703403  64.2950587  34.6327590   6.1178761  64.7454737  35.9683444
  13.9117238  66.8079539  27.5211535  13.2605218  67.3933619  27.1345549
  14.7061601  67.3385733  27.5806572   7.8372865  63.8968676  27.9198669
   8.6103741  63.3497663  27.7811545   8.1898264  64.7612925  28.1313131
   9.6757908  65.2245058  41.1265569   9.3847773  66.1290689  41.0112235
  10.3114892  65.2661586  41.8409638  10.6014114  62.6021906  37.7166928
  11.1977687  62.3777929  37.0023891  10.6589086  61.8606652  38.3192376
  10.1739143  60.0561342  25.5517119  10.4264663  59.5342863  24.7900582
   9.2363702  59.8927487  25.6543803  15.2182426  59.0597120  33.3591862
  16.0045515  58.6416543  33.0082279  15.4821130  59.9643212  33.5273511
  15.3892503  64.4969970  28.0580519  14.7538336  64.5704597  28.7701424
  15.0589909  65.0863569  27.3799598  20.6190853  58.9972353  34.2624841
  21.3516025  58.4271570  34.4962670  19.8630208  58.6093954  34.7031346
   9.8935432  61.9589448  27.7541494   9.7771690  61.2834351  28.4222578
  10.0037691  61.4721822  26.9373647  12.2366972  61.4199595  31.4588183
  11.8725180  60.8930216  32.1701105  13.0934088  61.0298064  31.2854669
  18.1416273  52.7093927  38.7219449  17.8099598  53.5789338  38.4980664
  17.5461886  52.3930211  39.4013480  11.8772459  56.4489495  26.4549532
  12.0446862  57.3169731  26.8220003  11.6869628  56.6116776  25.5310821
  14.6347793  64.9106473  38.1215362  14.3348516  65.8131512  38.0131169
  14.2898852  64.6438657  38.9736515   8.0860274  61.3620270  34.1552067
   7.1610771  61.2296484  34.3629758   8.3344687  62.1414490  34.6522009
  18.0344936  57.4289014  35.8012800  17.1261814  57.3604422  35.5071560
  17.9832532  57.9060959  36.6294625  11.8561680  58.9047152  27.4396199
  11.7361305  59.3504203  28.2781679  11.1614269  59.2532470  26.8809737
   5.4469085  61.0053544  34.9895856   5.5761466  61.2588023  35.9035267
   4.7666536  61.5981252  34.6700511   9.6168572  71.6750794  31.0886330
   9.5392602  72.6258619  31.1674810   9.0130216  71.3296666  31.7461256
  12.1085802  58.8478659  43.7447697  11.3319136  59.4072579  43.7350561
  12.7476365  59.3335442  44.2662567  19.9006583  55.6305452  37.5790673
  19.2580963  55.9237985  36.9330468  19.3961511  55.5158372  38.3843870
  17.5546746  59.3768625  28.2676533  18.4664603  59.6096012  28.0924230
  17.0456394  59.9605669  27.7051611  10.3632174  61.6564113  43.3065664
  11.1046859  62.1949157  43.0300487   9.6569160  62.2830401  43.4637216
  15.8387514  63.7993253  41.9037825  16.2470870  63.3575664  41.1592458
  15.1164776  63.2245881  42.1572018  12.1918584  58.7365860  39.2771382
  13.0379779  59.1605273  39.4206031  12.1317222  58.0799484  39.9709945
  16.1616329  64.3594444  35.6590114  15.5325191  64.5240158  34.9566182
  15.7741991  64.7736053  36.4301078  20.0405561  65.2948882  33.0134478
  19.3556599  65.6747783  32.4631511  20.1249410  65.9044208  33.7466426
  15.3418029  56.3970228  40.9352556  15.0978961  57.1512289  40.3986832
  15.6177960  56.7755576  41.7699803  17.2956492  62.9408841  39.6129821
  17.5073387  63.5840600  38.9364203  17.2486241  62.1071157  39.1451752
  14.8982721  55.5526661  36.5166394  14.0367200  55.8507915  36.8083131
  14.9245156  55.7697060  35.5847426  11.7144291  64.0968852  32.9240199
  12.1782636  64.3756555  32.1344822  11.4501089  63.1952296  32.7413290
   8.6068372  63.6440333  35.8619963   9.1769729  64.0727602  35.2237447
   9.1976484  63.3622918  36.5604148  10.6513177  60.2192004  29.7329764
  11.3537220  60.6713048  30.2003691  10.3193805  59.5775823  30.3609658
   9.0993538  58.8103761  44.1080974   8.4692199  59.4920042  44.3416371
   8.9929626  58.6986842  43.1634112   4.3938511  58.4775557  35.0346898
   3.6037565  58.7333085  34.5587009   4.8849758  59.2923895  35.1398939
  18.4102320  65.8180796  37.7852179  19.2319764  65.4160983  37.5034860
  18.4064723  65.7149030  38.7368295   6.3453256  58.8420136  31.9930375
   5.5484419  58.9538830  32.5113870   6.1178848  59.1806788  31.1271265
  12.1758924  65.3664839  39.9412889  12.2403356  65.8285247  40.7771061
  11.4669848  64.7362204  40.0695199   2.6776214  58.7306047  37.4661889
   2.9284252  59.6153057  37.7319465   3.2135762  58.5510649  36.6936981
  26.5008313  62.1619544  34.1337150  25.7472022  61.5926943  33.9781155
  26.6355854  62.1282209  35.0807785  11.8906941  67.0332947  29.8091870
  11.7552616  67.8784482  30.2376717  12.4316754  67.2352224  29.0457803
   8.3774281  53.1124527  46.4706225   7.9841227  52.5590725  47.1453869
   9.1940421  53.4235105  46.8612742   5.3436339  64.5508385  30.3819795
   5.8560859  65.3451635  30.5325359   5.9959052  63.8534675  30.3153396
   7.1531223  67.6674141  32.4642548   7.3297852  68.5892106  32.2763532
   7.9488057  67.3532560  32.8936928  11.2942242  54.5282406  44.0626481
  12.0351955  55.1289559  43.9830944  11.5260165  53.7860043  43.5044524
   6.4383580  59.7138773  42.3404711   6.3237095  58.8124030  42.6411810
   5.5828098  59.9602470  41.9889528  13.5175418  67.6556513  43.9392212
  13.0739272  66.8692892  43.6213116  14.1792631  67.8435664  43.2736102
   8.2762539  69.1852315  38.4652890   8.8269964  69.0569378  37.6929884
   7.4374015  69.4847204  38.1147783  15.6156656  67.9359313  41.9673613
  15.5975131  68.7568194  41.4753882  16.5376576  67.8113388  42.1923754
  12.0729710  65.4503443  42.8097121  12.6058047  64.6891731  42.5796429
  11.5443791  65.1577094  43.5521276  15.2399405  50.5563509  38.3390763
  14.8963674  51.4465150  38.2629874  15.6078367  50.3665166  37.4760348
   3.3085255  62.8797039  31.1579365   4.1460477  63.2894047  30.9413073
   3.4863523  61.9396481  31.1279559  15.2049688  60.5472120  26.8463198
  14.6896311  61.3176724  27.0851586  14.9326996  59.8737256  27.4696260
  12.7896799  55.3921821  31.9048437  11.9338395  55.0028671  31.7254075
  13.2023750  55.4713781  31.0448222  14.3195945  52.9268164  36.3039996
  13.8160741  52.8898299  35.4907802  14.6126552  53.8360907  36.3636653
  10.5638831  53.0106894  35.3106178  11.4291828  52.8149702  34.9512068
  10.6316340  52.7817245  36.2375535  20.1783962  63.3004474  28.7816372
  19.4013404  62.9615634  28.3371534  20.8575443  63.3057098  28.1071337
  14.9935991  58.4199212  28.6722979  14.6886126  58.7345361  29.5233123
  15.9466433  58.4980632  28.7150312  13.4382423  64.5789435  30.3215933
  12.9103784  63.8442195  30.0089171  12.9369925  65.3564112  30.0755902
  18.4175269  62.7738456  35.4382980  17.7598943  63.4637717  35.5263108
  19.2215668  63.1634888  35.7816966   8.1701150  55.2409101  32.6822545
   8.7444902  55.0184283  31.9495738   8.7572133  55.3097796  33.4351146
  17.2280727  61.1282828  33.4886921  17.7412609  61.7612820  33.9908631
  17.8781951  60.5284024  33.1230281   8.4970737  57.2713562  26.7018430
   7.6608050  57.6088249  27.0227705   8.3575507  57.1362542  25.7645567
  10.4723818  52.1150350  31.4097614   9.8188230  51.7999368  30.7854229
  10.4304292  51.4926091  32.1357437  11.5835023  62.3969645  23.3250906
  10.6762085  62.1658899  23.5242055  12.0806055  61.6007265  23.5124888
  14.4903102  71.1067153  26.2447593  13.8164800  71.4098849  26.8532550
  14.8768924  71.9096233  25.8953050  13.7061558  58.6032284  35.7345262
  12.7884120  58.8247231  35.5766950  14.1221702  58.6778594  34.8756969
  14.4896606  60.0023700  30.8647942  15.2368425  60.5145097  30.5555064
  14.7588196  59.6807752  31.7252336  12.7623256  62.4982240  27.8474896
  11.8534475  62.2141273  27.9447366  12.7918340  62.9181319  26.9878203
  17.9942524  66.1088830  31.6166064  17.5404851  65.2679740  31.6731255
  17.3636490  66.7450228  31.9540844  16.9375443  57.0380816  32.8466731
  16.1998200  56.5258202  33.1776974  17.1902217  56.5981197  32.0350008
  16.4375463  67.9465326  32.5515882  16.7298437  68.5070384  31.8328248
  16.9474083  68.2393887  33.3069041  17.0387071  49.8157068  33.4408501
  17.3445947  48.9554431  33.1534416  17.7639675  50.4074688  33.2407495
   3.3311427  60.2187754  31.8290099   3.1335826  59.6257115  31.1041165
   2.7758091  59.9139965  32.5466037  11.3108150  60.1110861  33.9484692
  11.3656760  59.1584697  33.8727168  10.4999352  60.2670300  34.4325990
  12.4599344  64.0390984  25.1862975  12.0218774  63.3226843  24.7268612
  13.2009785  64.2667099  24.6248066   9.2500510  58.7287921  31.7075071
   8.4368376  59.0282091  32.1140263   9.7459504  58.3343609  32.4249553
  11.4009088  68.7245678  33.6409335  11.3585267  68.9506524  32.7117867
  12.3171787  68.4909052  33.7895137  14.8474722  59.1929745  40.5389965
  15.2024110  59.4201218  41.3984430  15.4946853  59.5248122  39.9167220
  20.5772459  62.3148181  31.2439294  20.4390357  62.5049777  30.3160483
  20.2208678  63.0767564  31.7007345   8.7414585  56.3006276  37.3236306
   9.3813964  56.1595035  36.6259269   7.9092116  56.0140790  36.9474908
  20.6041838  64.3824708  36.2550565  21.0378345  64.2899997  37.1033619
  21.3173419  64.3582208  35.6170581   9.5174889  65.6008707  33.4371298
  10.3115487  65.1059027  33.2353873   8.8066581  65.0726570  33.0739004
  14.3369733  67.9826802  37.7883666  14.3906756  68.5517738  38.5561382
  13.4684515  68.1528687  37.4237703   5.8257652  59.7451788  29.5131051
   4.8955240  59.6836244  29.7301013   5.9215124  59.2227741  28.7167692
   5.7443201  56.2706601  32.1009292   6.0050019  57.1851934  31.9918453
   6.5660374  55.8031044  32.2505905   7.2168127  57.6844358  39.2708117
   7.8891180  57.4761720  38.6220766   6.3897913  57.4866444  38.8313349
  21.4657388  64.4248409  38.7883451  21.6593278  65.3294219  39.0342725
  21.3658006  63.9655828  39.6222036  13.1193699  54.3106299  41.2873778
  12.4721614  55.0096249  41.1938254  13.8894714  54.7442443  41.6550026
  16.5272497  64.5755151  44.3624331  16.3758003  64.3465703  43.4454415
  16.5177176  65.5325753  44.3755676  13.2957833  62.1487064  39.3470598
  14.2249893  62.2998224  39.1739565  12.8748863  62.2371085  38.4919244
  12.0946165  66.1737729  37.1169135  11.9557251  65.8056513  37.9895073
  11.3060761  66.6885368  36.9453093  12.6894317  71.2746825  28.4594672
  12.8646073  70.8034868  29.2740294  12.0027105  71.9012591  28.6875932
  13.6451380  65.5519331  34.5057973  13.3101213  65.5120101  35.4015623
  13.1455326  64.8864047  34.0328383   7.6195624  60.9586961  40.0310554
   7.4815422  60.2267200  40.6322093   8.5300547  60.8695861  39.7494742
  16.5810572  62.8975366  24.7795033  15.9639742  62.1722194  24.6828085
  16.1127060  63.6584726  24.4362107  10.2477925  60.6706921  39.5194234
  10.9577543  60.0300113  39.4780852  10.2047233  60.9219815  40.4420415
  18.2364703  67.6074274  42.4400813  18.1777249  66.9233494  41.7731396
  18.6384222  68.3493264  41.9881439   8.9606859  57.6572139  41.3389873
   8.4244216  57.2062877  41.9911470   8.3723567  57.7918047  40.5960338
   7.2555402  74.4236188  35.2334532   7.4952000  75.0554712  35.9113550
   6.4124599  74.0724228  35.5199891   8.3709118  57.1160790  23.9016337
   7.4938584  56.9949591  23.5378584   8.8466871  56.3246868  23.6495226
  18.2382111  65.5713858  40.6714793  17.3508889  65.2339780  40.7941192
  18.8080662  64.8396889  40.9083558   4.6945980  56.7928146  38.4242868
   4.6104169  56.1853816  37.6893278   3.8728686  57.2837165  38.4252364
  11.7683264  70.2315310  37.6376036  11.6953435  71.0370282  38.1495340
  11.3260657  70.4307276  36.8124057  11.5573044  69.4687080  31.1478857
  10.7740565  70.0108760  31.2417082  12.2565789  69.9861060  31.5473099
  14.8669694  55.2781710  33.7913063  15.3638393  54.5251672  33.4714133
  14.0956675  55.3146026  33.2256272  22.7199451  60.9822075  35.4331354
  22.7089327  61.8646791  35.0625287  21.8516831  60.6293626  35.2385891
  14.2281947  70.1302144  39.7934195  14.9409920  70.7649609  39.7210096
  13.7371976  70.2266010  38.9774196  15.9499474  64.0353397  31.3651486
  15.0155753  64.1554859  31.1956191  16.1276143  63.1325864  31.1011496
  11.4504662  57.4199093  33.5184747  11.0802450  56.8670133  34.2065653
  11.9463755  56.8157226  32.9659747  19.3372026  59.8770716  31.9001520
  19.8032478  60.7098708  31.8261823  19.7879526  59.4115698  32.6046779
   9.2793861  67.8796588  40.6139765   9.9803321  68.5133071  40.7669160
   8.8088976  68.2211319  39.8535405  17.4048257  66.2214538  28.8987672
  17.6808101  66.1071132  29.8081546  16.5352756  65.8232022  28.8599845
  17.3088688  52.2451303  35.9392422  16.3951768  52.4755530  36.1074629
  17.7381790  52.3289747  36.7906454  17.0795147  60.4341195  38.4392316
  16.4266597  60.6817103  37.7844768  17.4575527  59.6205333  38.1054793
  14.0402321  70.4700888  32.5420486  14.2224715  69.6522544  33.0048238
  14.8635307  70.6868581  32.1045376  14.3744486  69.3969074  29.8035534
  14.9032253  68.8861528  29.1905697  14.6372706  69.0811604  30.6681068
  13.1282720  61.1761006  44.9258353  12.4523357  61.0755136  45.5960728
  13.9510354  61.0200220  45.3894350   4.8761579  67.4132943  37.5470868
   5.4615016  66.6676631  37.6798772   4.6786418  67.7236900  38.4307532
   7.7300234  70.4484190  32.5633310   7.0610610  70.9330318  32.0797350
   7.5913104  70.6953411  33.4776689  11.8705503  72.4827934  39.1615969
  12.4223811  72.6459555  39.9265054  12.2111696  73.0732372  38.4895994
   6.8469996  54.8303084  39.7637853   6.9111323  55.6917914  39.3515251
   6.7837116  54.2177085  39.0310212   6.3222269  56.9026216  43.4110888
   6.9494307  56.5203293  44.0248412   5.4650188  56.6840418  43.7766580
  16.7216377  67.3089191  45.0164623  17.2656281  67.9219149  44.5219578
  16.1403222  67.8668770  45.5331636   3.0987811  58.7102645  29.3429243
   3.3941252  57.8013324  29.2896296   2.1975847  58.6890385  29.0210245
  15.0073890  70.4309909  36.1479651  14.8825030  69.6299649  35.6390596
  15.6652981  70.9256103  35.6593621   6.6282058  56.7858642  35.3256791
   5.9068644  57.3994609  35.1864264   7.4175314  57.3216407  35.2473437
  17.0708799  68.2318929  37.7759201  16.1239134  68.1124280  37.7037528
  17.4191572  67.3441427  37.8585462   9.4308372  54.1213068  41.5997443
   9.9542774  54.3675365  42.3623752   9.2120705  54.9533103  41.1800580
   4.8275653  56.3916743  29.4668568   4.4988359  55.5114122  29.2843674
   5.1815024  56.3364412  30.3544957  14.0755232  68.0271646  33.9763553
  13.9280194  67.0988353  34.1571123  14.9008725  68.0491736  33.4920629
   7.9417476  56.6789713  29.8344045   8.2813549  57.2075634  29.1122654
   8.3889597  57.0170119  30.6102612  17.6789354  68.8500204  35.0628426
  18.6035901  68.6443066  34.9252877  17.5104657  68.6016605  35.9717768
  10.6360917  55.0626763  39.2847113  10.2957737  54.2634576  39.6867793
   9.9299923  55.3628474  38.7123947  11.2877389  52.1476076  37.7374436
  12.1103458  51.6736554  37.6153327  11.5315452  52.9266560  38.2373123
   9.9285623  55.1764334  28.0337338  10.6493986  55.5545587  27.5301055
   9.3050927  55.8953211  28.1372316  14.0716746  55.8809483  28.9695671
  14.2880361  56.7634121  28.6684499  13.5910813  55.4895697  28.2401312
   8.8115968  58.8395196  35.5466415   8.6660548  59.1535499  36.4390697
   8.3341171  59.4580097  34.9937314  10.6712350  55.8297744  35.5947305
  10.6573919  54.9338838  35.2579603  11.3884779  55.8368408  36.2285591
  12.5238481  56.2635085  37.6400432  12.2656259  57.1852155  37.6384763
  11.9923522  55.8665519  38.3300896  17.4684670  69.3685872  30.4190517
  17.6421547  68.8032294  29.6664370  17.9613561  70.1686767  30.2370007
   3.2861630  61.3800541  38.4854076   2.7415098  62.1560349  38.6174351
   4.1640980  61.7271345  38.3273198  10.0749246  54.7112125  30.8634875
  10.1965158  53.7828771  31.0625762   9.7851289  54.7250811  29.9513190
  12.9440437  52.3967035  34.0001595  12.9662134  52.4606368  33.0453574
  13.3608496  51.5571544  34.1942101  23.3224061  62.1322295  32.0380817
  23.7655207  61.3829620  31.6399940  22.4450571  62.1232431  31.6554549
  18.4559842  68.6852636  27.5187416  19.1510747  69.3059329  27.7374730
  18.7982993  67.8347987  27.7939794   4.0727652  60.5070437  41.3784233
   3.3309388  60.6553072  41.9648864   3.7520396  60.7678703  40.5150983
  20.3551266  66.1352342  29.0474747  20.8802590  66.4739614  28.3224067
  20.2673618  65.1999357  28.8637881  12.0171314  70.0486415  41.1764623
  12.3258441  69.8035562  42.0487323  12.8146796  70.2533054  40.6883493
  12.0391926  72.2024325  33.4070000  11.5996917  71.7100704  34.1002856
  12.7900043  71.6597293  33.1662075   4.5184265  68.3935866  33.4094628
   5.3442285  68.0939638  33.0293271   4.1678317  67.6243488  33.8584416
   9.4865798  67.7462334  35.4792301   8.8645808  67.0833039  35.1794529
  10.1570665  67.7723466  34.7965949   2.7192870  66.3122192  34.3683561
   1.8824779  65.8844367  34.1867563   2.6916516  66.5054636  35.3054353
   9.5590326  56.2244122  45.0724807   9.6078481  57.1006245  44.6902577
  10.1012840  55.6821515  44.4996451  20.0445172  66.7685245  44.3525944
  19.2540715  66.7509384  43.8130444  19.8078526  67.3073539  45.1074981
  20.1643047  63.6177712  41.6658673  20.2141052  63.4527719  42.6074196
  20.0556970  62.7504971  41.2756554   9.0479305  66.2966257  28.9550762
   9.1967426  66.9801722  28.3017435   9.8545749  66.2771347  29.4700218
  17.4546809  59.6008640  42.9817980  18.3556672  59.4615105  42.6901978
  17.5294784  59.7663095  43.9216157  11.7889614  56.9775494  41.8271166
  10.9192924  57.2709060  41.5553755  12.0249095  57.5615939  42.5478430
  21.6661243  66.0374653  41.9100695  21.3746052  66.4004634  42.7464156
  21.0533375  65.3241661  41.7314027  22.8656926  63.6027533  34.4303265
  23.7003817  64.0417337  34.5940825  23.0016055  63.1266186  33.6111511
  19.9148432  61.1607268  40.3780753  20.3902553  61.3534914  39.5699604
  18.9913997  61.2166454  40.1324136   6.8031938  62.3231435  29.9611831
   6.5577980  61.4193765  30.1592041   6.9727853  62.3248585  29.0191309
  14.4928648  53.1955111  39.3436586  15.0110592  53.9316138  39.0183075
  14.1383781  53.5019105  40.1783346   6.0727586  58.0559793  27.4597992
   5.3796831  58.1304148  26.8038028   5.8279338  57.2920136  27.9819509
  14.7441242  49.6155394  34.8637483  15.0242996  48.9478583  35.4897910
  15.5291849  49.8084490  34.3512147  12.5474711  68.7914388  26.4262509
  11.9748678  69.4104575  25.9732981  13.1207505  69.3413749  26.9602431
  18.6150101  58.0373028  38.6109058  19.5667524  58.1371126  38.6321282
  18.4453551  57.2451296  39.1207143  16.6364480  55.1228611  38.7968459
  16.0414412  55.4033624  38.1014948  16.3514177  55.6122512  39.5685200
  15.7671971  69.0751538  27.5571092  16.7002644  69.0097100  27.7603967
  15.6795183  69.9107805  27.0985624  18.3959987  68.3917408  24.5175039
  18.3173619  68.0577272  25.4110797  19.2169654  68.8839176  24.5166512
  21.0938178  61.2579148  37.7251358  21.0614499  60.3195148  37.9111042
  21.7038802  61.3363184  36.9917183  12.9321509  60.1275201  23.7678562
  13.8780614  59.9981409  23.8366980  12.5535754  59.3889862  24.2447990
  21.2432667  58.0490191  37.7709641  20.7271716  57.2648648  37.5839570
  22.1272615  57.7208908  37.9356160  18.9043394  51.7931207  33.7305454
  18.7068215  51.4846295  34.6148786  19.5143099  52.5192845  33.8603384
  26.9114728  62.3195154  36.8657395  27.6418117  62.0580443  37.4265098
  26.3021674  61.5823876  36.9059463  24.9930025  60.4603017  37.4631846
  24.2663189  60.3258982  36.8548337  24.5777312  60.7679846  38.2688564
  12.8160202  64.1792947  45.2279219  13.7363211  64.3571546  45.4219265
  12.7809785  63.2348992  45.0758918  11.1164427  58.0525177  23.7033447
  10.2095882  57.7558290  23.7796161  11.3940408  57.7554995  22.8367733
   2.0342367  59.3731540  34.1532493   1.7145151  58.5196849  33.8606867
   1.4875795  59.5880118  34.9090461   5.8122274  62.0893981  37.8702000
   6.0308284  63.0211089  37.8890034   6.2248048  61.7301956  38.6556804
  12.7326492  52.5962067  29.8577688  11.9227221  52.2509152  30.2332934
  13.4210909  52.2869610  30.4465300  14.6617041  51.6740113  31.4801985
  15.2148079  52.0935567  32.1392008  14.8987127  50.7475862  31.5224941
  10.6850140  57.6627187  47.2604749  10.5846867  58.6121544  47.1916840
  10.4671682  57.3345426  46.3880819   9.8863211  54.9112112  23.8445426
  10.7482375  55.2367010  24.1041244  10.0713555  54.1243608  23.3318492
   1.9030627  62.9934452  36.1225615   1.2094098  62.5788405  35.6095569
   2.6503618  63.0354988  35.5259034  18.0395848  53.7840639  30.9880649
  17.4594517  54.4425443  30.6058702  17.7731780  52.9617983  30.5768067
  16.4899414  53.1845696  33.1901970  16.9899192  53.2962231  32.3816288
  17.1335022  52.8806749  33.8302778  10.5481410  61.0924326  46.0769811
  10.0648492  61.8924686  46.2833700  10.6342349  61.1032271  45.1237255
   3.8167369  62.9252706  33.9991630   3.7938058  63.0240393  33.0473513
   4.1268006  63.7717856  34.3208796   6.4754747  64.9828861  38.1138244
   7.4298001  64.9512803  38.0468176   6.2767271  64.5219484  38.9288470
   7.0654129  63.5529977  40.6809042   7.8847018  64.0474055  40.7043879
   7.3390937  62.6361945  40.6526610  16.8220726  55.9440729  30.0436998
  15.9346581  56.2290380  29.8257192  17.2374715  55.7834492  29.1964274
  20.1735262  55.9687250  33.7591337  20.9495652  56.4583702  34.0315954
  19.4483396  56.3945304  34.2163206  22.6107820  56.6814869  34.8165277
  23.2052311  56.4410605  34.1058586  22.6834404  55.9622000  35.4438814
   4.8304976  70.5248480  35.1308442   4.6959444  69.7648881  34.5646440
   4.4137038  71.2489380  34.6637231  15.9663939  65.7085404  24.1385018
  16.6699789  65.9135406  24.7542673  15.2426588  66.2762166  24.4034101
  16.7961749  61.4595265  30.2587288  16.7396951  61.9163816  29.4194920
  17.3490092  60.6985950  30.0810130  20.6066555  57.2484997  31.0837407
  20.3503490  56.8481632  31.9145615  19.9819423  57.9628791  30.9587546
  24.9178893  59.9881070  33.5908699  24.3578451  60.0574259  34.3640261
  24.3122396  59.8122055  32.8708195   7.9874102  71.4217797  35.3426885
   7.8706486  72.3663230  35.2405575   7.1666548  71.1191359  35.7312684
  17.8750636  66.1467933  26.1883478  18.7096240  65.7149131  26.0060952
  17.7134979  65.9749947  27.1160372  17.5296529  62.6500046  27.5539817
  17.4745332  62.4844318  26.6128261  16.9042584  63.3576079  27.7102007
   2.3189044  57.8868111  41.3801239   2.9647907  57.3767065  41.8688464
   2.1106195  58.6236792  41.9544664  14.8442436  64.9548958  46.8793380
  15.7133595  65.1289610  46.5180015  14.3649187  65.7743375  46.7569109
  10.8392654  52.1508155  27.1325135  10.8271324  53.0949995  27.2893406
  11.7316076  51.9678301  26.8384596   9.0128616  72.0746059  38.5582813
   9.9155863  72.1069669  38.8749308   8.7865986  71.1446510  38.5729149
  10.7682218  70.8277046  35.2192892   9.8177849  70.8278907  35.1057264
  11.0714704  70.0809780  34.7028927  14.6544774  48.7450932  31.3871072
  13.8877169  48.1909419  31.5327754  15.0655479  48.8172801  32.2485224
   6.6586535  55.0335728  45.4776253   7.5217996  54.6772532  45.6879578
   6.0851945  54.6949622  46.1651658  26.5034912  76.6637584  36.2838654
  27.1413322  76.5444331  35.5801994  26.3855754  77.6118428  36.3426606
  23.3124618  76.6165012  36.2200179  22.9743129  76.5006077  35.3320714
  24.1814386  76.2156177  36.2001185  19.1711434  78.4700489  32.2097070
  18.6076299  78.3790425  31.4413358  19.0563829  77.6500393  32.6899562
  23.7944401  77.7699864  42.1786385  23.7833042  77.3752662  41.3066888
  23.9565040  77.0365936  42.7720156  16.7175865  79.9651680  35.0481290
  17.5097157  79.6242505  34.6327590  16.9572516  80.0746655  35.9683444
  24.7510992  82.1371456  27.5211535  24.0998972  82.7225537  27.1345549
  25.5455355  82.6677651  27.5806572  18.6766619  79.2260593  27.9198669
  19.4497495  78.6789580  27.7811545  19.0292018  80.0904843  28.1313131
  20.5151662  80.5536976  41.1265569  20.2241528  81.4582606  41.0112235
  21.1508646  80.5953503  41.8409638  21.4407869  77.9313824  37.7166928
  22.0371441  77.7069847  37.0023891  21.4982840  77.1898570  38.3192376
  21.0132897  75.3853259  25.5517119  21.2658418  74.8634781  24.7900582
  20.0757456  75.2219405  25.6543803  26.0576180  74.3889038  33.3591862
  26.8439269  73.9708461  33.0082279  26.3214884  75.2935130  33.5273511
  26.2286257  79.8261888  28.0580519  25.5932090  79.8996515  28.7701424
  25.8983664  80.4155487  27.3799598  31.4584607  74.3264271  34.2624841
  32.1909779  73.7563488  34.4962670  30.7023963  73.9385871  34.7031346
  20.7329186  77.2881365  27.7541494  20.6165444  76.6126269  28.4222578
  20.8431446  76.8013739  26.9373647  23.0760727  76.7491513  31.4588183
  22.7118934  76.2222134  32.1701105  23.9327843  76.3589982  31.2854669
  28.9810028  68.0385845  38.7219449  28.6493352  68.9081256  38.4980664
  28.3855641  67.7222129  39.4013480  22.7166214  71.7781412  26.4549532
  22.8840616  72.6461649  26.8220003  22.5263383  71.9408694  25.5310821
  25.4741547  80.2398391  38.1215362  25.1742270  81.1423430  38.0131169
  25.1292607  79.9730574  38.9736515  18.9254029  76.6912188  34.1552067
  18.0004525  76.5588402  34.3629758  19.1738442  77.4706407  34.6522009
  28.8738691  72.7580931  35.8012800  27.9655568  72.6896340  35.5071560
  28.8226287  73.2352876  36.6294625  22.6955435  74.2339070  27.4396199
  22.5755060  74.6796120  28.2781679  22.0008023  74.5824387  26.8809737
  16.2862840  76.3345462  34.9895856  16.4155221  76.5879940  35.9035267
  15.6060291  76.9273170  34.6700511  20.4562327  87.0042711  31.0886330
  20.3786357  87.9550537  31.1674810  19.8523970  86.6588584  31.7461256
  22.9479557  74.1770577  43.7447697  22.1712891  74.7364497  43.7350561
  23.5870120  74.6627360  44.2662567  30.7400337  70.9597370  37.5790673
  30.0974718  71.2529903  36.9330468  30.2355266  70.8450290  38.3843870
  28.3940501  74.7060543  28.2676533  29.3058357  74.9387930  28.0924230
  27.8850148  75.2897587  27.7051611  21.2025929  76.9856030  43.3065664
  21.9440613  77.5241074  43.0300487  20.4962914  77.6122319  43.4637216
  26.6781269  79.1285171  41.9037825  27.0864625  78.6867581  41.1592458
  25.9558530  78.5537798  42.1572018  23.0312339  74.0657778  39.2771382
  23.8773534  74.4897191  39.4206031  22.9710976  73.4091402  39.9709945
  27.0010083  79.6886361  35.6590114  26.3718946  79.8532075  34.9566182
  26.6135745  80.1027971  36.4301078  30.8799315  80.6240799  33.0134478
  30.1950353  81.0039701  32.4631511  30.9643164  81.2336126  33.7466426
  26.1811784  71.7262146  40.9352556  25.9372716  72.4804206  40.3986832
  26.4571714  72.1047493  41.7699803  28.1350247  78.2700758  39.6129821
  28.3467142  78.9132518  38.9364203  28.0879995  77.4363075  39.1451752
  25.7376476  70.8818579  36.5166394  24.8760955  71.1799832  36.8083131
  25.7638910  71.0988978  35.5847426  22.5538045  79.4260769  32.9240199
  23.0176391  79.7048472  32.1344822  22.2894843  78.5244214  32.7413290
  19.4462126  78.9732251  35.8619963  20.0163483  79.4019519  35.2237447
  20.0370238  78.6914836  36.5604148  21.4906931  75.5483922  29.7329764
  22.1930975  76.0004965  30.2003691  21.1587560  74.9067741  30.3609658
  19.9387293  74.1395678  44.1080974  19.3085953  74.8211959  44.3416371
  19.8323381  74.0278760  43.1634112  15.2332265  73.8067474  35.0346898
  14.4431319  74.0625003  34.5587009  15.7243513  74.6215812  35.1398939
  29.2496075  81.1472714  37.7852179  30.0713518  80.7452901  37.5034860
  29.2458478  81.0440948  38.7368295  17.1847011  74.1712054  31.9930375
  16.3878174  74.2830748  32.5113870  16.9572603  74.5098706  31.1271265
  23.0152678  80.6956757  39.9412889  23.0797111  81.1577164  40.7771061
  22.3063602  80.0654122  40.0695199  13.5169968  74.0597965  37.4661889
  13.7678007  74.9444975  37.7319465  14.0529517  73.8802566  36.6936981
  37.3402068  77.4911462  34.1337150  36.5865776  76.9218860  33.9781155
  37.4749609  77.4574127  35.0807785  22.7300696  82.3624864  29.8091870
  22.5946371  83.2076400  30.2376717  23.2710508  82.5644142  29.0457803
  19.2168035  68.4416444  46.4706225  18.8234981  67.8882643  47.1453869
  20.0334176  68.7527023  46.8612742  16.1830093  79.8800302  30.3819795
  16.6954614  80.6743553  30.5325359  16.8352806  79.1826593  30.3153396
  17.9924978  82.9966059  32.4642548  18.1691606  83.9184023  32.2763532
  18.7881811  82.6824478  32.8936928  22.1335996  69.8574323  44.0626481
  22.8745710  70.4581477  43.9830944  22.3653919  69.1151961  43.5044524
  17.2777334  75.0430691  42.3404711  17.1630850  74.1415948  42.6411810
  16.4221852  75.2894387  41.9889528  24.3569172  82.9848431  43.9392212
  23.9133026  82.1984810  43.6213116  25.0186386  83.1727581  43.2736102
  19.1156293  84.5144233  38.4652890  19.6663718  84.3861296  37.6929884
  18.2767769  84.8139122  38.1147783  26.4550410  83.2651231  41.9673613
  26.4368886  84.0860112  41.4753882  27.3770330  83.1405306  42.1923754
  22.9123464  80.7795360  42.8097121  23.4451801  80.0183649  42.5796429
  22.3837545  80.4869012  43.5521276  26.0793159  65.8855426  38.3390763
  25.7357429  66.7757068  38.2629874  26.4472122  65.6957084  37.4760348
  14.1479010  78.2088957  31.1579365  14.9854232  78.6185965  30.9413073
  14.3257278  77.2688399  31.1279559  26.0443442  75.8764037  26.8463198
  25.5290066  76.6468642  27.0851586  25.7720751  75.2029174  27.4696260
  23.6290553  70.7213738  31.9048437  22.7732149  70.3320589  31.7254075
  24.0417505  70.8005699  31.0448222  25.1589700  68.2560081  36.3039996
  24.6554495  68.2190217  35.4907802  25.4520307  69.1652824  36.3636653
  21.4032586  68.3398811  35.3106178  22.2685582  68.1441620  34.9512068
  21.4710095  68.1109163  36.2375535  31.0177716  78.6296392  28.7816372
  30.2407159  78.2907552  28.3371534  31.6969197  78.6349015  28.1071337
  25.8329745  73.7491130  28.6722979  25.5279881  74.0637279  29.5233123
  26.7860187  73.8272549  28.7150312  24.2776177  79.9081353  30.3215933
  23.7497539  79.1734112  30.0089171  23.7763680  80.6856029  30.0755902
  29.2569023  78.1030373  35.4382980  28.5992698  78.7929635  35.5263108
  30.0609422  78.4926805  35.7816966  19.0094905  70.5701019  32.6822545
  19.5838657  70.3476201  31.9495738  19.5965887  70.6389714  33.4351146
  28.0674482  76.4574746  33.4886921  28.5806364  77.0904738  33.9908631
  28.7175706  75.8575942  33.1230281  19.3364492  72.6005480  26.7018430
  18.5001804  72.9380167  27.0227705  19.1969261  72.4654460  25.7645567
  21.3117572  67.4442268  31.4097614  20.6581985  67.1291285  30.7854229
  21.2698047  66.8218008  32.1357437  22.4228777  77.7261563  23.3250906
  21.5155839  77.4950817  23.5242055  22.9199809  76.9299182  23.5124888
  25.3296856  86.4359070  26.2447593  24.6558555  86.7390767  26.8532550
  25.7162678  87.2388151  25.8953050  24.5455313  73.9324202  35.7345262
  23.6277874  74.1539149  35.5766950  24.9615456  74.0070512  34.8756969
  25.3290361  75.3315617  30.8647942  26.0762179  75.8437014  30.5555064
  25.5981950  75.0099670  31.7252336  23.6017011  77.8274158  27.8474896
  22.6928230  77.5433191  27.9447366  23.6312095  78.2473237  26.9878203
  28.8336278  81.4380747  31.6166064  28.3798605  80.5971657  31.6731255
  28.2030245  82.0742146  31.9540844  27.7769198  72.3672734  32.8466731
  27.0391954  71.8550120  33.1776974  28.0295971  71.9273115  32.0350008
  27.2769217  83.2757244  32.5515882  27.5692192  83.8362301  31.8328248
  27.7867838  83.5685805  33.3069041  27.8780825  65.1448986  33.4408501
  28.1839702  64.2846349  33.1534416  28.6033430  65.7366606  33.2407495
  14.1705181  75.5479672  31.8290099  13.9729581  74.9549033  31.1041165
  13.6151845  75.2431882  32.5466037  22.1501905  75.4402779  33.9484692
  22.2050515  74.4876615  33.8727168  21.3393107  75.5962218  34.4325990
  23.2993099  79.3682902  25.1862975  22.8612528  78.6518761  24.7268612
  24.0403539  79.5959016  24.6248066  20.0894265  74.0579838  31.7075071
  19.2762130  74.3574009  32.1140263  20.5853259  73.6635527  32.4249553
  22.2402843  84.0537595  33.6409335  22.1979021  84.2798442  32.7117867
  23.1565541  83.8200970  33.7895137  25.6868476  74.5221663  40.5389965
  26.0417864  74.7493136  41.3984430  26.3340608  74.8540040  39.9167220
  31.4166213  77.6440099  31.2439294  31.2784112  77.8341695  30.3160483
  31.0602432  78.4059481  31.7007345  19.5808339  71.6298194  37.3236306
  20.2207719  71.4886953  36.6259269  18.7485870  71.3432707  36.9474908
  31.4435593  79.7116626  36.2550565  31.8772100  79.6191915  37.1033619
  32.1567174  79.6874126  35.6170581  20.3568643  80.9300624  33.4371298
  21.1509242  80.4350944  33.2353873  19.6460336  80.4018487  33.0739004
  25.1763488  83.3118720  37.7883666  25.2300510  83.8809656  38.5561382
  24.3078269  83.4820605  37.4237703  16.6651407  75.0743706  29.5131051
  15.7348995  75.0128161  29.7301013  16.7608879  74.5519659  28.7167692
  16.5836956  71.5998519  32.1009292  16.8443773  72.5143852  31.9918453
  17.4054128  71.1322961  32.2505905  18.0561881  73.0136276  39.2708117
  18.7284935  72.8053638  38.6220766  17.2291668  72.8158362  38.8313349
  32.3051142  79.7540326  38.7883451  32.4987033  80.6586137  39.0342725
  32.2051761  79.2947745  39.6222036  23.9587453  69.6398217  41.2873778
  23.3115368  70.3388167  41.1938254  24.7288469  70.0734361  41.6550026
  27.3666251  79.9047069  44.3624331  27.2151758  79.6757621  43.4454415
  27.3570931  80.8617671  44.3755676  24.1351588  77.4778982  39.3470598
  25.0643648  77.6290141  39.1739565  23.7142618  77.5663003  38.4919244
  22.9339919  81.5029646  37.1169135  22.7951005  81.1348431  37.9895073
  22.1454516  82.0177286  36.9453093  23.5288071  86.6038743  28.4594672
  23.7039827  86.1326786  29.2740294  22.8420859  87.2304509  28.6875932
  24.4845134  80.8811249  34.5057973  24.1494967  80.8412019  35.4015623
  23.9849080  80.2155965  34.0328383  18.4589378  76.2878879  40.0310554
  18.3209176  75.5559118  40.6322093  19.3694302  76.1987779  39.7494742
  27.4204326  78.2267283  24.7795033  26.8033497  77.5014111  24.6828085
  26.9520815  78.9876644  24.4362107  21.0871679  75.9998838  39.5194234
  21.7971298  75.3592030  39.4780852  21.0440987  76.2511733  40.4420415
  29.0758458  82.9366192  42.4400813  29.0171004  82.2525412  41.7731396
  29.4777976  83.6785182  41.9881439  19.8000613  72.9864056  41.3389873
  19.2637970  72.5354795  41.9911470  19.2117322  73.1209965  40.5960338
  18.0949157  89.7528105  35.2334532  18.3345755  90.3846630  35.9113550
  17.2518353  89.4016146  35.5199891  19.2102872  72.4452708  23.9016337
  18.3332338  72.3241508  23.5378584  19.6860625  71.6538786  23.6495226
  29.0775865  80.9005776  40.6714793  28.1902644  80.5631697  40.7941192
  29.6474416  80.1688807  40.9083558  10.7305012  77.2329867  33.9957844
  11.4176052  76.9191597  33.4078859  10.5753141  78.1371232  33.7225095
  15.5339734  72.1220064  38.4242868  15.4497923  71.5145733  37.6893278
  14.7122441  72.6129082  38.4252364  22.6077018  85.5607228  37.6376036
  22.5347190  86.3662199  38.1495340  22.1654412  85.7599194  36.8124057
  22.3966798  84.7978998  31.1478857  21.6134320  85.3400678  31.2417082
  23.0959543  85.3152978  31.5473099  25.7063448  70.6073627  33.7913063
  26.2032148  69.8543590  33.4714133  24.9350430  70.6437944  33.2256272
  33.5593206  76.3113993  35.4331354  33.5483082  77.1938708  35.0625287
  32.6910585  75.9585544  35.2385891  25.0675702  85.4594062  39.7934195
  25.7803674  86.0941527  39.7210096  24.5765731  85.5557928  38.9774196
  26.7893229  79.3645315  31.3651486  25.8549508  79.4846777  31.1956191
  26.9669897  78.4617781  31.1011496  22.2898417  72.7491010  33.5184747
  21.9196204  72.1962051  34.2065653  22.7857509  72.1449144  32.9659747
  30.1765780  75.2062634  31.9001520  30.6426232  76.0390626  31.8261823
  30.6273281  74.7407615  32.6046779  20.1187616  83.2088505  40.6139765
  20.8197075  83.8424988  40.7669160  19.6482731  83.5503237  39.8535405
  28.2442011  81.5506455  28.8987672  28.5201855  81.4363050  29.8081546
  27.3746510  81.1523940  28.8599845  28.1482443  67.5743221  35.9392422
  27.2345523  67.8047448  36.1074629  28.5775544  67.6581665  36.7906454
  27.9188901  75.7633113  38.4392316  27.2660352  76.0109020  37.7844768
  28.2969281  74.9497251  38.1054793  24.8796075  85.7992806  32.5420486
  25.0618470  84.9814462  33.0048238  25.7029061  86.0160498  32.1045376
  25.2138241  84.7260991  29.8035534  25.7426007  84.2153446  29.1905697
  25.4766460  84.4103521  30.6681068  23.9676475  76.5052924  44.9258353
  23.2917112  76.4047053  45.5960728  24.7904108  76.3492138  45.3894350
  15.7155334  82.7424860  37.5470868  16.3008770  81.9968548  37.6798772
  15.5180172  83.0528817  38.4307532  18.5693989  85.7776108  32.5633310
  17.9004364  86.2622235  32.0797350  18.4306858  86.0245328  33.4776689
  10.3072988  75.3130461  36.2675311  10.3457088  74.7794051  37.0612429
   9.8013281  74.7865666  35.6486288  22.7099257  87.8119851  39.1615969
  23.2617565  87.9751473  39.9265054  23.0505451  88.4024289  38.4895994
  17.6863751  70.1595001  39.7637853  17.7505077  71.0209832  39.3515251
  17.6230871  69.5469003  39.0310212  17.1616023  72.2318134  43.4110888
  17.7888062  71.8495211  44.0248412  16.3043942  72.0132336  43.7766580
  27.5610132  82.6381109  45.0164623  28.1050036  83.2511067  44.5219578
  26.9796977  83.1960687  45.5331636  13.9381566  74.0394563  29.3429243
  14.2335007  73.1305241  29.2896296  13.0369602  74.0182302  29.0210245
  25.8467645  85.7601827  36.1479651  25.7218784  84.9591567  35.6390596
  26.5046736  86.2548020  35.6593621  17.4675813  72.1150559  35.3256791
  16.7462399  72.7286527  35.1864264  18.2569069  72.6508324  35.2473437
  27.9102553  83.5610847  37.7759201  26.9632889  83.4416198  37.7037528
  28.2585326  82.6733345  37.8585462  20.2702126  69.4504986  41.5997443
  20.7936528  69.6967282  42.3623752  20.0514460  70.2825021  41.1800580
  15.6669407  71.7208660  29.4668568  15.3382114  70.8406039  29.2843674
  16.0208778  71.6656329  30.3544957  24.9148986  83.3563563  33.9763553
  24.7673949  82.4280271  34.1571123  25.7402480  83.3783654  33.4920629
  18.7811231  72.0081630  29.8344045  19.1207303  72.5367552  29.1122654
  19.2283351  72.3462036  30.6102612  28.5183108  84.1792122  35.0628426
  29.4429656  83.9734983  34.9252877  28.3498412  83.9308523  35.9717768
  21.4754671  70.3918681  39.2847113  21.1351492  69.5926494  39.6867793
  20.7693678  70.6920392  38.7123947  22.1271143  67.4767993  37.7374436
  22.9497213  67.0028472  37.6153327  22.3709207  68.2558477  38.2373123
  20.7679378  70.5056252  28.0337338  21.4887740  70.8837505  27.5301055
  20.1444682  71.2245129  28.1372316  24.9110501  71.2101401  28.9695671
  25.1274115  72.0926039  28.6684499  24.4304568  70.8187614  28.2401312
  19.6509722  74.1687114  35.5466415  19.5054303  74.4827417  36.4390697
  19.1734926  74.7872014  34.9937314  21.5106105  71.1589662  35.5947305
  21.4967674  70.2630755  35.2579603  22.2278533  71.1660326  36.2285591
  23.3632236  71.5927002  37.6400432  23.1050013  72.5144073  37.6384763
  22.8317276  71.1957437  38.3300896  28.3078424  84.6977789  30.4190517
  28.4815302  84.1324212  29.6664370  28.8007316  85.4978684  30.2370007
  14.1255384  76.7092458  38.4854076  13.5808852  77.4852266  38.6174351
  15.0034734  77.0563263  38.3273198  20.9143001  70.0404042  30.8634875
  21.0358912  69.1120689  31.0625762  20.6245043  70.0542728  29.9513190
  23.7834191  67.7258953  34.0001595  23.8055888  67.7898286  33.0453574
  24.2002250  66.8863461  34.1942101  34.1617816  77.4614212  32.0380817
  34.6048962  76.7121538  31.6399940  33.2844326  77.4524349  31.6554549
  29.2953597  84.0144554  27.5187416  29.9904502  84.6351246  27.7374730
  29.6376747  83.1639905  27.7939794  14.9121406  75.8362355  41.3784233
  14.1703142  75.9844990  41.9648864  14.5914150  76.0970620  40.5150983
  31.1945020  81.4644259  29.0474747  31.7196344  81.8031532  28.3224067
  31.1067373  80.5291275  28.8637881  22.8565069  85.3778333  41.1764623
  23.1652195  85.1327480  42.0487323  23.6540551  85.5824971  40.6883493
  22.8785681  87.5316243  33.4070000  22.4390671  87.0392621  34.1002856
  23.6293798  86.9889210  33.1662075  15.3578020  83.7227783  33.4094628
  16.1836040  83.4231555  33.0293271  15.0072072  82.9535406  33.8584416
  20.3259553  83.0754252  35.4792301  19.7039562  82.4124957  35.1794529
  20.9964420  83.1015384  34.7965949  13.5586625  81.6414110  34.3683561
  12.7218533  81.2136284  34.1867563  13.5310270  81.8346553  35.3054353
  20.3984080  71.5536040  45.0724807  20.4472236  72.4298163  44.6902577
  20.9406595  71.0113433  44.4996451  30.8838926  82.0977163  44.3525944
  30.0934470  82.0801302  43.8130444  30.6472281  82.6365457  45.1074981
  31.0036801  78.9469629  41.6658673  31.0534806  78.7819637  42.6074196
  30.8950724  78.0796888  41.2756554  19.8873060  81.6258175  28.9550762
  20.0361180  82.3093639  28.3017435  20.6939503  81.6063265  29.4700218
  28.2940564  74.9300557  42.9817980  29.1950426  74.7907022  42.6901978
  28.3688538  75.0955012  43.9216157  22.6283369  72.3067412  41.8271166
  21.7586678  72.6000978  41.5553755  22.8642849  72.8907857  42.5478430
  32.5054998  81.3666571  41.9100695  32.2139806  81.7296551  42.7464156
  31.8927129  80.6533579  41.7314027  33.7050680  78.9319451  34.4303265
  34.5397572  79.3709255  34.5940825  33.8409809  78.4558104  33.6111511
  30.7542186  76.4899185  40.3780753  31.2296308  76.6826832  39.5699604
  29.8307752  76.5458371  40.1324136  17.6425693  77.6523353  29.9611831
  17.3971735  76.7485683  30.1592041  17.8121607  77.6540503  29.0191309
  25.3322403  68.5247029  39.3436586  25.8504347  69.2608056  39.0183075
  24.9777535  68.8311022  40.1783346  16.9121340  73.3851710  27.4597992
  16.2190585  73.4596065  26.8038028  16.6673092  72.6212054  27.9819509
  25.5834997  64.9447312  34.8637483  25.8636751  64.2770501  35.4897910
  26.3685604  65.1376407  34.3512147  23.3868465  84.1206305  26.4262509
  22.8142432  84.7396493  25.9732981  23.9601259  84.6705667  26.9602431
  29.4543855  73.3664946  38.6109058  30.4061278  73.4663043  38.6321282
  29.2847306  72.5743214  39.1207143  27.4758235  70.4520529  38.7968459
  26.8808167  70.7325541  38.1014948  27.1907931  70.9414430  39.5685200
  26.6065725  84.4043456  27.5571092  27.5396398  84.3389017  27.7603967
  26.5188938  85.2399722  27.0985624  29.2353742  83.7209326  24.5175039
  29.1567373  83.3869190  25.4110797  30.0563409  84.2131094  24.5166512
  31.9331933  76.5871065  37.7251358  31.9008253  75.6487066  37.9111042
  32.5432557  76.6655102  36.9917183  23.7715264  75.4567118  23.7678562
  24.7174369  75.3273326  23.8366980  23.3929509  74.7181780  24.2447990
  32.0826421  73.3782109  37.7709641  31.5665470  72.5940565  37.5839570
  32.9666370  73.0500825  37.9356160  29.7437148  67.1223124  33.7305454
  29.5461970  66.8138212  34.6148786  30.3536854  67.8484763  33.8603384
  37.7508483  77.6487072  36.8657395  38.4811871  77.3872360  37.4265098
  37.1415428  76.9115794  36.9059463  35.8323780  75.7894935  37.4631846
  35.1056944  75.6550900  36.8548337  35.4171067  76.0971763  38.2688564
  23.6553956  79.5084864  45.2279219  24.5756966  79.6863463  45.4219265
  23.6203539  78.5640910  45.0758918  21.9558181  73.3817095  23.7033447
  21.0489636  73.0850207  23.7796161  22.2334162  73.0846913  22.8367733
  12.8736121  74.7023458  34.1532493  12.5538906  73.8488766  33.8606867
  12.3269550  74.9172036  34.9090461  16.6516029  77.4185899  37.8702000
  16.8702039  78.3503007  37.8890034  17.0641803  77.0593873  38.6556804
  23.5720247  67.9253984  29.8577688  22.7620975  67.5801069  30.2332934
  24.2604664  67.6161528  30.4465300  25.5010795  67.0032031  31.4801985
  26.0541834  67.4227485  32.1392008  25.7380881  66.0767779  31.5224941
  21.5243894  72.9919105  47.2604749  21.4240621  73.9413462  47.1916840
  21.3065436  72.6637344  46.3880819  20.7256966  70.2404030  23.8445426
  21.5876130  70.5658928  24.1041244  20.9107310  69.4535526  23.3318492
  12.7424381  78.3226370  36.1225615  12.0487853  77.9080322  35.6095569
  13.4897372  78.3646906  35.5259034  28.8789602  69.1132556  30.9880649
  28.2988271  69.7717360  30.6058702  28.6125535  68.2909901  30.5768067
  27.3293168  68.5137614  33.1901970  27.8292947  68.6254149  32.3816288
  27.9728776  68.2098667  33.8302778  21.3875164  76.4216244  46.0769811
  20.9042246  77.2216604  46.2833700  21.4736103  76.4324188  45.1237255
  14.6561124  78.2544623  33.9991630  14.6331812  78.3532311  33.0473513
  14.9661760  79.1009774  34.3208796  17.3148502  80.3120778  38.1138244
  18.2691755  80.2804721  38.0468176  17.1161025  79.8511402  38.9288470
  17.9047884  78.8821894  40.6809042  18.7240773  79.3765973  40.7043879
  18.1784692  77.9653863  40.6526610  27.6614480  71.2732647  30.0436998
  26.7740335  71.5582297  29.8257192  28.0768469  71.1126410  29.1964274
  31.0129016  71.2979168  33.7591337  31.7889406  71.7875620  34.0315954
  30.2877150  71.7237222  34.2163206  33.4501575  72.0106787  34.8165277
  34.0446066  71.7702523  34.1058586  33.5228159  71.2913917  35.4438814
  15.6698731  85.8540398  35.1308442  15.5353198  85.0940799  34.5646440
  15.2530793  86.5781298  34.6637231  26.8057694  81.0377321  24.1385018
  27.5093544  81.2427324  24.7542673  26.0820342  81.6054083  24.4034101
  27.6355504  76.7887183  30.2587288  27.5790705  77.2455734  29.4194920
  28.1883846  76.0277867  30.0810130  31.4460310  72.5776914  31.0837407
  31.1897244  72.1773550  31.9145615  30.8213178  73.2920708  30.9587546
  35.7572648  75.3172988  33.5908699  35.1972206  75.3866177  34.3640261
  35.1516151  75.1413972  32.8708195  18.8267856  86.7509715  35.3426885
  18.7100241  87.6955147  35.2405575  18.0060303  86.4483276  35.7312684
  28.7144391  81.4759851  26.1883478  29.5489995  81.0441049  26.0060952
  28.5528734  81.3041864  27.1160372  28.3690283  77.9791964  27.5539817
  28.3139087  77.8136235  26.6128261  27.7436338  78.6867997  27.7102007
  13.1582798  73.2160028  41.3801239  13.8041662  72.7058982  41.8688464
  12.9499949  73.9528710  41.9544664  25.6836190  80.2840876  46.8793380
  26.5527350  80.4581528  46.5180015  25.2042942  81.1035293  46.7569109
  21.6786409  67.4800073  27.1325135  21.6665078  68.4241913  27.2893406
  22.5709830  67.2970218  26.8384596  19.8522371  87.4037977  38.5582813
  20.7549617  87.4361587  38.8749308  19.6259741  86.4738428  38.5729149
  21.6075973  86.1568963  35.2192892  20.6571604  86.1570825  35.1057264
  21.9108459  85.4101698  34.7028927  25.4938528  64.0742849  31.3871072
  24.7270924  63.5201336  31.5327754  25.9049233  64.1464718  32.2485224
  17.4980289  70.3627645  45.4776253  18.3611751  70.0064450  45.6879578
  16.9245700  70.0241540  46.1651658  37.3428666  91.9929502  36.2838654
  37.9807076  91.8736249  35.5801994  37.2249509  92.9410346  36.3426606
  34.1518372  91.9456930  36.2200179  33.8136884  91.8297994  35.3320714
  35.0208141  91.5448095  36.2001185  30.0105188  93.7992406  32.2097070
  29.4470053  93.7082343  31.4413358  29.8957583  92.9792311  32.6899562
  34.6338155  93.0991781  42.1786385  34.6226796  92.7044580  41.3066888
  34.7958795  92.3657854  42.7720156  27.5569620  95.2943598  35.0481290
  28.3490912  94.9534422  34.6327590  27.7966270  95.4038573  35.9683444
  35.5904747  97.4663374  27.5211535  34.9392727  98.0517454  27.1345549
  36.3849110  97.9969569  27.5806572  29.5160374  94.5552511  27.9198669
  30.2891250  94.0081498  27.7811545  29.8685773  95.4196760  28.1313131
  31.3545416  95.8828893  41.1265569  31.0635282  96.7874524  41.0112235
  31.9902401  95.9245421  41.8409638  32.2801623  93.2605742  37.7166928
  32.8765196  93.0361764  37.0023891  32.3376595  92.5190487  38.3192376
  31.8526652  90.7145177  25.5517119  32.1052172  90.1926698  24.7900582
  30.9151211  90.5511323  25.6543803  36.8969935  89.7180956  33.3591862
  37.6833024  89.3000379  33.0082279  37.1608639  90.6227048  33.5273511
  37.0680012  95.1553806  28.0580519  36.4325845  95.2288432  28.7701424
  36.7377418  95.7447405  27.3799598  42.2978362  89.6556189  34.2624841
  43.0303534  89.0855406  34.4962670  41.5417717  89.2677789  34.7031346
  31.5722940  92.6173283  27.7541494  31.4559199  91.9418186  28.4222578
  31.6825200  92.1305657  26.9373647  33.9154481  92.0783430  31.4588183
  33.5512689  91.5514051  32.1701105  34.7721597  91.6881899  31.2854669
  39.8203782  83.3677763  38.7219449  39.4887107  84.2373174  38.4980664
  39.2249395  83.0514047  39.4013480  33.5559968  87.1073330  26.4549532
  33.7234371  87.9753566  26.8220003  33.3657137  87.2700612  25.5310821
  36.3135302  95.5690309  38.1215362  36.0136025  96.4715348  38.0131169
  35.9686361  95.3022492  38.9736515  29.7647783  92.0204106  34.1552067
  28.8398280  91.8880320  34.3629758  30.0132196  92.7998325  34.6522009
  39.7132445  88.0872849  35.8012800  38.8049323  88.0188257  35.5071560
  39.6620041  88.5644794  36.6294625  33.5349189  89.5630987  27.4396199
  33.4148814  90.0088038  28.2781679  32.8401778  89.9116305  26.8809737
  27.1256594  91.6637379  34.9895856  27.2548975  91.9171858  35.9035267
  26.4454045  92.2565087  34.6700511  31.2956081 102.3334629  31.0886330
  31.2180111 103.2842454  31.1674810  30.6917725 101.9880502  31.7461256
  33.7873311  89.5062495  43.7447697  33.0106645  90.0656415  43.7350561
  34.4263874  89.9919278  44.2662567  41.5794092  86.2889287  37.5790673
  40.9368472  86.5821821  36.9330468  41.0749020  86.1742208  38.3843870
  39.2334255  90.0352461  28.2676533  40.1452112  90.2679847  28.0924230
  38.7243902  90.6189505  27.7051611  32.0419683  92.3147948  43.3065664
  32.7834368  92.8532992  43.0300487  31.3356669  92.9414237  43.4637216
  37.5175023  94.4577088  41.9037825  37.9258379  94.0159499  41.1592458
  36.7952285  93.8829716  42.1572018  33.8706093  89.3949695  39.2771382
  34.7167288  89.8189109  39.4206031  33.8104731  88.7383319  39.9709945
  37.8403838  95.0178279  35.6590114  37.2112700  95.1823993  34.9566182
  37.4529500  95.4319889  36.4301078  41.7193070  95.9532717  33.0134478
  41.0344108  96.3331618  32.4631511  41.8036919  96.5628044  33.7466426
  37.0205538  87.0554064  40.9352556  36.7766470  87.8096124  40.3986832
  37.2965469  87.4339411  41.7699803  38.9744001  93.5992676  39.6129821
  39.1860896  94.2424436  38.9364203  38.9273749  92.7654992  39.1451752
  36.5770230  86.2110497  36.5166394  35.7154709  86.5091750  36.8083131
  36.6032665  86.4280895  35.5847426  33.3931800  94.7552687  32.9240199
  33.8570145  95.0340390  32.1344822  33.1288598  93.8536132  32.7413290
  30.2855881  94.3024169  35.8619963  30.8557238  94.7311437  35.2237447
  30.8763993  94.0206753  36.5604148  32.3300686  90.8775839  29.7329764
  33.0324729  91.3296883  30.2003691  31.9981314  90.2359658  30.3609658
  30.7781047  89.4687596  44.1080974  30.1479708  90.1503877  44.3416371
  30.6717135  89.3570678  43.1634112  26.0726020  89.1359392  35.0346898
  25.2825074  89.3916921  34.5587009  26.5637267  89.9507730  35.1398939
  40.0889829  96.4764631  37.7852179  40.9107273  96.0744819  37.5034860
  40.0852232  96.3732865  38.7368295  28.0240765  89.5003971  31.9930375
  27.2271928  89.6122666  32.5113870  27.7966357  89.8390624  31.1271265
  33.8546433  96.0248675  39.9412889  33.9190865  96.4869082  40.7771061
  33.1457357  95.3946040  40.0695199  24.3563723  89.3889883  37.4661889
  24.6071761  90.2736893  37.7319465  24.8923271  89.2094484  36.6936981
  48.1795822  92.8203380  34.1337150  47.4259531  92.2510778  33.9781155
  48.3143363  92.7866044  35.0807785  33.5694450  97.6916782  29.8091870
  33.4340125  98.5368318  30.2376717  34.1104263  97.8936060  29.0457803
  30.0561790  83.7708362  46.4706225  29.6628735  83.2174561  47.1453869
  30.8727930  84.0818940  46.8612742  27.0223848  95.2092220  30.3819795
  27.5348368  96.0035470  30.5325359  27.6746561  94.5118511  30.3153396
  28.8318732  98.3257976  32.4642548  29.0085361  99.2475941  32.2763532
  29.6275566  98.0116396  32.8936928  32.9729751  85.1866241  44.0626481
  33.7139464  85.7873394  43.9830944  33.2047674  84.4443879  43.5044524
  28.1171089  90.3722608  42.3404711  28.0024604  89.4707866  42.6411810
  27.2615607  90.6186305  41.9889528  35.1962927  98.3140349  43.9392212
  34.7526781  97.5276727  43.6213116  35.8580140  98.5019499  43.2736102
  29.9550048  99.8436150  38.4652890  30.5057473  99.7153214  37.6929884
  29.1161524 100.1431039  38.1147783  37.2944165  98.5943149  41.9673613
  37.2762640  99.4152030  41.4753882  38.2164085  98.4697224  42.1923754
  33.7517219  96.1087278  42.8097121  34.2845556  95.3475566  42.5796429
  33.2231300  95.8160930  43.5521276  36.9186914  81.2147344  38.3390763
  36.5751183  82.1048986  38.2629874  37.2865876  81.0249002  37.4760348
  24.9872764  93.5380874  31.1579365  25.8247986  93.9477883  30.9413073
  25.1651032  92.5980317  31.1279559  36.8837197  91.2055955  26.8463198
  36.3683820  91.9760560  27.0851586  36.6114505  90.5321091  27.4696260
  34.4684308  86.0505656  31.9048437  33.6125904  85.6612506  31.7254075
  34.8811259  86.1297617  31.0448222  35.9983454  83.5851999  36.3039996
  35.4948250  83.5482134  35.4907802  36.2914061  84.4944742  36.3636653
  32.2426340  83.6690729  35.3106178  33.1079337  83.4733538  34.9512068
  32.3103849  83.4401081  36.2375535  41.8571471  93.9588310  28.7816372
  41.0800913  93.6199469  28.3371534  42.5362952  93.9640933  28.1071337
  36.6723500  89.0783047  28.6722979  36.3673635  89.3929196  29.5233123
  37.6253942  89.1564467  28.7150312  35.1169932  95.2373271  30.3215933
  34.5891293  94.5026030  30.0089171  34.6157434  96.0147947  30.0755902
  40.0962778  93.4322291  35.4382980  39.4386452  94.1221552  35.5263108
  40.9003177  93.8218723  35.7816966  29.8488659  85.8992937  32.6822545
  30.4232411  85.6768118  31.9495738  30.4359642  85.9681631  33.4351146
  38.9068236  91.7866664  33.4886921  39.4200118  92.4196656  33.9908631
  39.5569460  91.1867859  33.1230281  30.1758246  87.9297398  26.7018430
  29.3395559  88.2672084  27.0227705  30.0363016  87.7946378  25.7645567
  32.1511327  82.7734186  31.4097614  31.4975739  82.4583203  30.7854229
  32.1091801  82.1509926  32.1357437  33.2622532  93.0553481  23.3250906
  32.3549594  92.8242734  23.5242055  33.7593564  92.2591100  23.5124888
  36.1690611 101.7650988  26.2447593  35.4952309 102.0682685  26.8532550
  36.5556433 102.5680068  25.8953050  35.3849067  89.2616119  35.7345262
  34.4671629  89.4831066  35.5766950  35.8009211  89.3362430  34.8756969
  36.1684115  90.6607535  30.8647942  36.9155934  91.1728932  30.5555064
  36.4375705  90.3391588  31.7252336  34.4410765  93.1566076  27.8474896
  33.5321984  92.8725108  27.9447366  34.4705849  93.5765154  26.9878203
  39.6730033  96.7672665  31.6166064  39.2192360  95.9263575  31.6731255
  39.0423999  97.4034064  31.9540844  38.6162952  87.6964651  32.8466731
  37.8785709  87.1842037  33.1776974  38.8689726  87.2565033  32.0350008
  38.1162972  98.6049162  32.5515882  38.4085946  99.1654219  31.8328248
  38.6261592  98.8977723  33.3069041  38.7174580  80.4740903  33.4408501
  39.0233456  79.6138267  33.1534416  39.4427184  81.0658523  33.2407495
  25.0098936  90.8771590  31.8290099  24.8123335  90.2840950  31.1041165
  24.4545600  90.5723800  32.5466037  32.9895659  90.7694696  33.9484692
  33.0444269  89.8168533  33.8727168  32.1786861  90.9254135  34.4325990
  34.1386853  94.6974819  25.1862975  33.7006283  93.9810678  24.7268612
  34.8797294  94.9250934  24.6248066  30.9288019  89.3871756  31.7075071
  30.1155885  89.6865927  32.1140263  31.4247013  88.9927445  32.4249553
  33.0796597  99.3829513  33.6409335  33.0372776  99.6090359  32.7117867
  33.9959296  99.1492888  33.7895137  36.5262231  89.8513580  40.5389965
  36.8811619  90.0785054  41.3984430  37.1734362  90.1831957  39.9167220
  42.2559968  92.9732016  31.2439294  42.1177866  93.1633612  30.3160483
  41.8996187  93.7351399  31.7007345  30.4202094  86.9590112  37.3236306
  31.0601473  86.8178871  36.6259269  29.5879624  86.6724625  36.9474908
  42.2829347  95.0408543  36.2550565  42.7165854  94.9483832  37.1033619
  42.9960928  95.0166044  35.6170581  31.1962398  96.2592542  33.4371298
  31.9902996  95.7642862  33.2353873  30.4854090  95.7310405  33.0739004
  36.0157242  98.6410637  37.7883666  36.0694265  99.2101574  38.5561382
  35.1472024  98.8112523  37.4237703  27.5045161  90.4035624  29.5131051
  26.5742749  90.3420079  29.7301013  27.6002633  89.8811576  28.7167692
  27.4230710  86.9290437  32.1009292  27.6837528  87.8435770  31.9918453
  28.2447883  86.4614879  32.2505905  28.8955636  88.3428194  39.2708117
  29.5678689  88.1345556  38.6220766  28.0685422  88.1450280  38.8313349
  43.1444897  95.0832244  38.7883451  43.3380787  95.9878055  39.0342725
  43.0445515  94.6239663  39.6222036  34.7981208  84.9690135  41.2873778
  34.1509123  85.6680084  41.1938254  35.5682223  85.4026279  41.6550026
  38.2060006  95.2338987  44.3624331  38.0545512  95.0049538  43.4454415
  38.1964685  96.1909588  44.3755676  34.9745342  92.8070900  39.3470598
  35.9037402  92.9582059  39.1739565  34.5536372  92.8954920  38.4919244
  33.7733674  96.8321564  37.1169135  33.6344760  96.4640348  37.9895073
  32.9848270  97.3469203  36.9453093  34.3681826 101.9330660  28.4594672
  34.5433581 101.4618704  29.2740294  33.6814614 102.5596427  28.6875932
  35.3238889  96.2103167  34.5057973  34.9888722  96.1703937  35.4015623
  34.8242835  95.5447883  34.0328383  29.2983133  91.6170797  40.0310554
  29.1602931  90.8851035  40.6322093  30.2088056  91.5279697  39.7494742
  38.2598081  93.5559201  24.7795033  37.6427251  92.8306029  24.6828085
  37.7914569  94.3168561  24.4362107  31.9265434  91.3290756  39.5194234
  32.6365052  90.6883948  39.4780852  31.8834742  91.5803651  40.4420415
  39.9152212  98.2658109  42.4400813  39.8564758  97.5817329  41.7731396
  40.3171731  99.0077099  41.9881439  30.6394368  88.3155974  41.3389873
  30.1031725  87.8646712  41.9911470  30.0511076  88.4501883  40.5960338
  28.9342911 105.0820023  35.2334532  29.1739509 105.7138547  35.9113550
  28.0912108 104.7308063  35.5199891  30.0496627  87.7744625  23.9016337
  29.1726093  87.6533426  23.5378584  30.5254380  86.9830704  23.6495226
  39.9169620  96.2297693  40.6714793  39.0296398  95.8923615  40.7941192
  40.4868171  95.4980724  40.9083558  21.5698767  92.5621785  33.9957844
  22.2569807  92.2483515  33.4078859  21.4146895  93.4663150  33.7225095
  26.3733489  87.4511982  38.4242868  26.2891678  86.8437651  37.6893278
  25.5516195  87.9421000  38.4252364  33.4470773 100.8899146  37.6376036
  33.3740944 101.6954117  38.1495340  33.0048166 101.0891111  36.8124057
  33.2360553 100.1270916  31.1478857  32.4528074 100.6692596  31.2417082
  33.9353298 100.6444895  31.5473099  36.5457203  85.9365545  33.7913063
  37.0425902  85.1835507  33.4714133  35.7744184  85.9729862  33.2256272
  44.3986960  91.6405911  35.4331354  44.3876836  92.5230626  35.0625287
  43.5304340  91.2877461  35.2385891  35.9069456 100.7885980  39.7934195
  36.6197429 101.4233444  39.7210096  35.4159485 100.8849846  38.9774196
  37.6286983  94.6937232  31.3651486  36.6943262  94.8138695  31.1956191
  37.8063652  93.7909699  31.1011496  33.1292171  88.0782928  33.5184747
  32.7589959  87.5253968  34.2065653  33.6251264  87.4741062  32.9659747
  41.0159535  90.5354552  31.9001520  41.4819987  91.3682543  31.8261823
  41.4667035  90.0699533  32.6046779  30.9581370  98.5380423  40.6139765
  31.6590829  99.1716906  40.7669160  30.4876485  98.8795155  39.8535405
  39.0835766  96.8798373  28.8987672  39.3595610  96.7654967  29.8081546
  38.2140265  96.4815858  28.8599845  38.9876197  82.9035139  35.9392422
  38.0739277  83.1339365  36.1074629  39.4169299  82.9873583  36.7906454
  38.7582656  91.0925031  38.4392316  38.1054106  91.3400938  37.7844768
  39.1363036  90.2789169  38.1054793  35.7189830 101.1284724  32.5420486
  35.9012224 100.3106380  33.0048238  36.5422816 101.3452416  32.1045376
  36.0531995 100.0552909  29.8035534  36.5819762  99.5445363  29.1905697
  36.3160215  99.7395439  30.6681068  34.8070229  91.8344842  44.9258353
  34.1310866  91.7338971  45.5960728  35.6297863  91.6784055  45.3894350
  26.5549088  98.0716778  37.5470868  27.1402525  97.3260466  37.6798772
  26.3573927  98.3820735  38.4307532  29.4087743 101.1068026  32.5633310
  28.7398119 101.5914153  32.0797350  29.2700613 101.3537246  33.4776689
  21.1466743  90.6422378  36.2675311  21.1850842  90.1085969  37.0612429
  20.6407036  90.1157584  35.6486288  33.5493012 103.1411769  39.1615969
  34.1011320 103.3043391  39.9265054  33.8899205 103.7316207  38.4895994
  28.5257505  85.4886919  39.7637853  28.5898832  86.3501750  39.3515251
  28.4624625  84.8760921  39.0310212  28.0009778  87.5610051  43.4110888
  28.6281816  87.1787129  44.0248412  27.1437696  87.3424253  43.7766580
  38.4003886  97.9673027  45.0164623  38.9443790  98.5802985  44.5219578
  37.8190731  98.5252605  45.5331636  24.7775320  89.3686481  29.3429243
  25.0728761  88.4597159  29.2896296  23.8763356  89.3474220  29.0210245
  36.6861399 101.0893745  36.1479651  36.5612539 100.2883484  35.6390596
  37.3440490 101.5839938  35.6593621  28.3069567  87.4442477  35.3256791
  27.5856153  88.0578445  35.1864264  29.0962823  87.9800242  35.2473437
  38.7496308  98.8902765  37.7759201  37.8026643  98.7708116  37.7037528
  39.0979081  98.0025263  37.8585462  31.1095881  84.7796904  41.5997443
  31.6330283  85.0259200  42.3623752  30.8908214  85.6116938  41.1800580
  26.5063162  87.0500578  29.4668568  26.1775868  86.1697957  29.2843674
  26.8602533  86.9948247  30.3544957  35.7542741  98.6855481  33.9763553
  35.6067703  97.7572188  34.1571123  36.5796234  98.7075572  33.4920629
  29.6204985  87.3373548  29.8344045  29.9601058  87.8659469  29.1122654
  30.0677106  87.6753954  30.6102612  39.3576863  99.5084040  35.0628426
  40.2823410  99.3026901  34.9252877  39.1892166  99.2600441  35.9717768
  32.3148426  85.7210599  39.2847113  31.9745246  84.9218412  39.6867793
  31.6087432  86.0212310  38.7123947  32.9664898  82.8059911  37.7374436
  33.7890967  82.3320389  37.6153327  33.2102961  83.5850395  38.2373123
  31.6073132  85.8348170  28.0337338  32.3281495  86.2129422  27.5301055
  30.9838436  86.5537046  28.1372316  35.7504255  86.5393319  28.9695671
  35.9667870  87.4217956  28.6684499  35.2698322  86.1479532  28.2401312
  30.4903477  89.4979032  35.5466415  30.3448057  89.8119335  36.4390697
  30.0128680  90.1163932  34.9937314  32.3499859  86.4881580  35.5947305
  32.3361428  85.5922673  35.2579603  33.0672288  86.4952243  36.2285591
  34.2025990  86.9218920  37.6400432  33.9443768  87.8435991  37.6384763
  33.6711031  86.5249354  38.3300896  39.1472179 100.0269707  30.4190517
  39.3209056  99.4616130  29.6664370  39.6401070 100.8270602  30.2370007
  24.9649139  92.0384376  38.4854076  24.4202607  92.8144184  38.6174351
  25.8428489  92.3855181  38.3273198  31.7536755  85.3695960  30.8634875
  31.8752667  84.4412606  31.0625762  31.4638798  85.3834646  29.9513190
  34.6227946  83.0550870  34.0001595  34.6449643  83.1190204  33.0453574
  35.0396005  82.2155379  34.1942101  45.0011570  92.7906130  32.0380817
  45.4442716  92.0413455  31.6399940  44.1238080  92.7816266  31.6554549
  40.1347351  99.3436471  27.5187416  40.8298256  99.9643164  27.7374730
  40.4770502  98.4931823  27.7939794  25.7515161  91.1654272  41.3784233
  25.0096897  91.3136908  41.9648864  25.4307905  91.4262538  40.5150983
  42.0338774  96.7936177  29.0474747  42.5590099  97.1323450  28.3224067
  41.9461127  95.8583192  28.8637881  33.6958823 100.7070251  41.1764623
  34.0045950 100.4619397  42.0487323  34.4934305 100.9116889  40.6883493
  33.7179435 102.8608160  33.4070000  33.2784426 102.3684539  34.1002856
  34.4687552 102.3181128  33.1662075  26.1971774  99.0519701  33.4094628
  27.0229794  98.7523473  33.0293271  25.8465826  98.2827324  33.8584416
  31.1653307  98.4046169  35.4792301  30.5433317  97.7416874  35.1794529
  31.8358174  98.4307301  34.7965949  24.3980379  96.9706028  34.3683561
  23.5612288  96.5428202  34.1867563  24.3704025  97.1638471  35.3054353
  31.2377835  86.8827957  45.0724807  31.2865990  87.7590080  44.6902577
  31.7800349  86.3405350  44.4996451  41.7232681  97.4269081  44.3525944
  40.9328224  97.4093219  43.8130444  41.4866035  97.9657374  45.1074981
  41.8430556  94.2761547  41.6658673  41.8928561  94.1111554  42.6074196
  41.7344479  93.4088806  41.2756554  30.7266814  96.9550093  28.9550762
  30.8754935  97.6385557  28.3017435  31.5333258  96.9355183  29.4700218
  39.1334318  90.2592475  42.9817980  40.0344181  90.1198940  42.6901978
  39.2082293  90.4246930  43.9216157  33.4677123  87.6359330  41.8271166
  32.5980433  87.9292896  41.5553755  33.7036604  88.2199775  42.5478430
  43.3448752  96.6958489  41.9100695  43.0533561  97.0588469  42.7464156
  42.7320884  95.9825497  41.7314027  44.5444435  94.2611368  34.4303265
  45.3791326  94.7001172  34.5940825  44.6803564  93.7850022  33.6111511
  41.5935941  91.8191103  40.3780753  42.0690062  92.0118749  39.5699604
  40.6701506  91.8750289  40.1324136  28.4819447  92.9815270  29.9611831
  28.2365489  92.0777600  30.1592041  28.6515362  92.9832421  29.0191309
  36.1716157  83.8538947  39.3436586  36.6898101  84.5899974  39.0183075
  35.8171290  84.1602940  40.1783346  27.7515095  88.7143628  27.4597992
  27.0584340  88.7887983  26.8038028  27.5066847  87.9503972  27.9819509
  36.4228751  80.2739229  34.8637483  36.7030505  79.6062418  35.4897910
  37.2079358  80.4668325  34.3512147  34.2262220  99.4498223  26.4262509
  33.6536187 100.0688410  25.9732981  34.7995014  99.9997585  26.9602431
  40.2937610  88.6956863  38.6109058  41.2455033  88.7954961  38.6321282
  40.1241060  87.9035132  39.1207143  38.3151989  85.7812446  38.7968459
  37.7201921  86.0617459  38.1014948  38.0301686  86.2706347  39.5685200
  37.4459480  99.7335373  27.5571092  38.3790153  99.6680935  27.7603967
  37.3582692 100.5691640  27.0985624  40.0747496  99.0501244  24.5175039
  39.9961128  98.7161107  25.4110797  40.8957163  99.5423012  24.5166512
  42.7725687  91.9162983  37.7251358  42.7402008  90.9778984  37.9111042
  43.3826311  91.9947020  36.9917183  34.6109018  90.7859036  23.7678562
  35.5568123  90.6565244  23.8366980  34.2323263  90.0473698  24.2447990
  42.9220176  88.7074026  37.7709641  42.4059225  87.9232483  37.5839570
  43.8060124  88.3792743  37.9356160  40.5830903  82.4515042  33.7305454
  40.3855724  82.1430130  34.6148786  41.1930608  83.1776681  33.8603384
  48.5902237  92.9778990  36.8657395  49.3205626  92.7164278  37.4265098
  47.9809183  92.2407712  36.9059463  46.6717534  91.1186852  37.4631846
  45.9450698  90.9842817  36.8548337  46.2564821  91.4263681  38.2688564
  34.4947711  94.8376782  45.2279219  35.4150720  95.0155381  45.4219265
  34.4597294  93.8932827  45.0758918  32.7951935  88.7109012  23.7033447
  31.8883391  88.4142125  23.7796161  33.0727916  88.4138830  22.8367733
  23.7129876  90.0315376  34.1532493  23.3932660  89.1780684  33.8606867
  23.1663304  90.2463954  34.9090461  27.4909783  92.7477817  37.8702000
  27.7095793  93.6794925  37.8890034  27.9035557  92.3885791  38.6556804
  34.4114001  83.2545902  29.8577688  33.6014730  82.9092987  30.2332934
  35.0998418  82.9453446  30.4465300  36.3404549  82.3323949  31.4801985
  36.8935588  82.7519402  32.1392008  36.5774636  81.4059697  31.5224941
  32.3637649  88.3211022  47.2604749  32.2634376  89.2705379  47.1916840
  32.1459191  87.9929261  46.3880819  31.5650720  85.5695948  23.8445426
  32.4269884  85.8950846  24.1041244  31.7501064  84.7827443  23.3318492
  23.5818136  93.6518287  36.1225615  22.8881607  93.2372240  35.6095569
  24.3291127  93.6938824  35.5259034  39.7183357  84.4424474  30.9880649
  39.1382026  85.1009278  30.6058702  39.4519289  83.6201819  30.5768067
  38.1686923  83.8429532  33.1901970  38.6686701  83.9546066  32.3816288
  38.8122531  83.5390585  33.8302778  32.2268919  91.7508161  46.0769811
  31.7436000  92.5508521  46.2833700  32.3129858  91.7616106  45.1237255
  25.4954878  93.5836541  33.9991630  25.4725566  93.6824228  33.0473513
  25.8055515  94.4301692  34.3208796  28.1542256  95.6412696  38.1138244
  29.1085510  95.6096638  38.0468176  27.9554780  95.1803320  38.9288470
  28.7441638  94.2113812  40.6809042  29.5634527  94.7057891  40.7043879
  29.0178446  93.2945780  40.6526610  38.5008235  86.6024564  30.0436998
  37.6134090  86.8874215  29.8257192  38.9162224  86.4418328  29.1964274
  41.8522771  86.6271085  33.7591337  42.6283161  87.1167538  34.0315954
  41.1270905  87.0529140  34.2163206  44.2895329  87.3398705  34.8165277
  44.8839820  87.0994441  34.1058586  44.3621913  86.6205835  35.4438814
  26.5092485 101.1832315  35.1308442  26.3746953 100.4232716  34.5646440
  26.0924547 101.9073215  34.6637231  37.6451448  96.3669239  24.1385018
  38.3487298  96.5719242  24.7542673  36.9214097  96.9346001  24.4034101
  38.4749258  92.1179100  30.2587288  38.4184460  92.5747652  29.4194920
  39.0277601  91.3569785  30.0810130  42.2854064  87.9068832  31.0837407
  42.0290998  87.5065468  31.9145615  41.6606932  88.6212626  30.9587546
  46.5966402  90.6464905  33.5908699  46.0365960  90.7158095  34.3640261
  45.9909905  90.4705890  32.8708195  29.6661611 102.0801633  35.3426885
  29.5493995 103.0247065  35.2405575  28.8454057 101.7775194  35.7312684
  39.5538145  96.8051768  26.1883478  40.3883749  96.3732967  26.0060952
  39.3922488  96.6333782  27.1160372  39.2084038  93.3083882  27.5539817
  39.1532841  93.1428153  26.6128261  38.5830093  94.0159914  27.7102007
  23.9976553  88.5451946  41.3801239  24.6435416  88.0350900  41.8688464
  23.7893704  89.2820628  41.9544664  36.5229945  95.6132793  46.8793380
  37.3921104  95.7873446  46.5180015  36.0436696  96.4327210  46.7569109
  32.5180163  82.8091991  27.1325135  32.5058833  83.7533830  27.2893406
  33.4103585  82.6262136  26.8384596  30.6916125 102.7329894  38.5582813
  31.5943372 102.7653505  38.8749308  30.4653495 101.8030345  38.5729149
  32.4469727 101.4860881  35.2192892  31.4965358 101.4862743  35.1057264
  32.7502213 100.7393616  34.7028927  36.3332283  79.4034767  31.3871072
  35.5664678  78.8493254  31.5327754  36.7442988  79.4756636  32.2485224
  28.3374044  85.6919563  45.4776253  29.2005505  85.3356368  45.6879578
  27.7639454  85.3533458  46.1651658  48.1822421 107.3221419  36.2838654
  48.8200831 107.2028167  35.5801994  48.0643263 108.2702263  36.3426606
  44.9912127 107.2748847  36.2200179  44.6530638 107.1589912  35.3320714
  45.8601895 106.8740013  36.2001185  40.8498943 109.1284324  32.2097070
  40.2863808 109.0374261  31.4413358  40.7351338 108.3084228  32.6899562
  45.4731910 108.4283699  42.1786385  45.4620551 108.0336497  41.3066888
  45.6352549 107.6949772  42.7720156  38.3963374 110.6235515  35.0481290
  39.1884666 110.2826340  34.6327590  38.6360025 110.7330491  35.9683444
  46.4298501 112.7955292  27.5211535  45.7786481 113.3809372  27.1345549
  47.2242864 113.3261486  27.5806572  40.3554128 109.8844429  27.9198669
  41.1285004 109.3373416  27.7811545  40.7079527 110.7488678  28.1313131
  42.1939171 111.2120811  41.1265569  41.9029037 112.1166442  41.0112235
  42.8296155 111.2537339  41.8409638  43.1195378 108.5897659  37.7166928
  43.7158950 108.3653682  37.0023891  43.1770349 107.8482405  38.3192376
  42.6920406 106.0437095  25.5517119  42.9445927 105.5218616  24.7900582
  41.7544965 105.8803240  25.6543803  47.7363689 105.0472873  33.3591862
  48.5226778 104.6292296  33.0082279  48.0002393 105.9518965  33.5273511
  47.9073766 110.4845723  28.0580519  47.2719599 110.5580350  28.7701424
  47.5771173 111.0739322  27.3799598  53.1372116 104.9848106  34.2624841
  53.8697288 104.4147323  34.4962670  52.3811472 104.5969707  34.7031346
  42.4116695 107.9465201  27.7541494  42.2952953 107.2710104  28.4222578
  42.5218955 107.4597575  26.9373647  44.7548236 107.4075348  31.4588183
  44.3906443 106.8805969  32.1701105  45.6115352 107.0173817  31.2854669
  50.6597537  98.6969680  38.7219449  50.3280861  99.5665091  38.4980664
  50.0643150  98.3805964  39.4013480  44.3953723 102.4365248  26.4549532
  44.5628125 103.3045484  26.8220003  44.2050892 102.5992529  25.5310821
  47.1529056 110.8982226  38.1215362  46.8529779 111.8007265  38.0131169
  46.8080116 110.6314410  38.9736515  40.6041538 107.3496023  34.1552067
  39.6792034 107.2172237  34.3629758  40.8525951 108.1290243  34.6522009
  50.5526200 103.4164767  35.8012800  49.6443077 103.3480175  35.5071560
  50.5013796 103.8936712  36.6294625  44.3742944 104.8922905  27.4396199
  44.2542569 105.3379956  28.2781679  43.6795532 105.2408223  26.8809737
  37.9650349 106.9929297  34.9895856  38.0942730 107.2463776  35.9035267
  37.2847800 107.5857005  34.6700511  42.1349836 117.6626547  31.0886330
  42.0573866 118.6134372  31.1674810  41.5311479 117.3172419  31.7461256
  44.6267066 104.8354412  43.7447697  43.8500400 105.3948332  43.7350561
  45.2657629 105.3211195  44.2662567  52.4187846 101.6181205  37.5790673
  51.7762226 101.9113738  36.9330468  51.9142775 101.5034125  38.3843870
  50.0728010 105.3644378  28.2676533  50.9845866 105.5971765  28.0924230
  49.5637657 105.9481422  27.7051611  42.8813438 107.6439866  43.3065664
  43.6228122 108.1824910  43.0300487  42.1750423 108.2706154  43.4637216
  48.3568778 109.7869006  41.9037825  48.7652134 109.3451417  41.1592458
  47.6346039 109.2121634  42.1572018  44.7099848 104.7241613  39.2771382
  45.5561043 105.1481026  39.4206031  44.6498485 104.0675237  39.9709945
  48.6797592 110.3470197  35.6590114  48.0506455 110.5115911  34.9566182
  48.2923254 110.7611806  36.4301078  52.5586824 111.2824635  33.0134478
  51.8737862 111.6623536  32.4631511  52.6430673 111.8919961  33.7466426
  47.8599293 102.3845981  40.9352556  47.6160225 103.1388042  40.3986832
  48.1359223 102.7631329  41.7699803  49.8137756 108.9284594  39.6129821
  50.0254651 109.5716353  38.9364203  49.7667504 108.0946910  39.1451752
  47.4163985 101.5402414  36.5166394  46.5548464 101.8383668  36.8083131
  47.4426419 101.7572813  35.5847426  44.2325554 110.0844605  32.9240199
  44.6963900 110.3632308  32.1344822  43.9682352 109.1828049  32.7413290
  41.1249635 109.6316086  35.8619963  41.6950992 110.0603355  35.2237447
  41.7157747 109.3498671  36.5604148  43.1694440 106.2067757  29.7329764
  43.8718483 106.6588801  30.2003691  42.8375069 105.5651576  30.3609658
  41.6174802 104.7979514  44.1080974  40.9873462 105.4795795  44.3416371
  41.5110890 104.6862595  43.1634112  36.9119774 104.4651310  35.0346898
  36.1218828 104.7208838  34.5587009  37.4031021 105.2799648  35.1398939
  50.9283584 111.8056549  37.7852179  51.7501027 111.4036736  37.5034860
  50.9245987 111.7024783  38.7368295  38.8634519 104.8295889  31.9930375
  38.0665683 104.9414583  32.5113870  38.6360112 105.1682541  31.1271265
  44.6940187 111.3540592  39.9412889  44.7584620 111.8161000  40.7771061
  43.9851111 110.7237957  40.0695199  35.1957477 104.7181800  37.4661889
  35.4465516 105.6028810  37.7319465  35.7317025 104.5386402  36.6936981
  59.0189577 108.1495297  34.1337150  58.2653285 107.5802696  33.9781155
  59.1537118 108.1157962  35.0807785  44.4088205 113.0208700  29.8091870
  44.2733880 113.8660236  30.2376717  44.9498017 113.2227977  29.0457803
  40.8955544  99.1000280  46.4706225  40.5022490  98.5466478  47.1453869
  41.7121685  99.4110858  46.8612742  37.8617602 110.5384138  30.3819795
  38.3742123 111.3327388  30.5325359  38.5140315 109.8410428  30.3153396
  39.6712487 113.6549894  32.4642548  39.8479115 114.5767859  32.2763532
  40.4669320 113.3408313  32.8936928  43.8123505 100.5158159  44.0626481
  44.5533219 101.1165312  43.9830944  44.0441428  99.7735797  43.5044524
  38.9564843 105.7014526  42.3404711  38.8418359 104.7999783  42.6411810
  38.1009361 105.9478223  41.9889528  46.0356681 113.6432266  43.9392212
  45.5920535 112.8568645  43.6213116  46.6973895 113.8311417  43.2736102
  40.7943802 115.1728068  38.4652890  41.3451227 115.0445131  37.6929884
  39.9555278 115.4722957  38.1147783  48.1337919 113.9235066  41.9673613
  48.1156395 114.7443947  41.4753882  49.0557839 113.7989141  42.1923754
  44.5910973 111.4379196  42.8097121  45.1239310 110.6767484  42.5796429
  44.0625054 111.1452848  43.5521276  47.7580668  96.5439262  38.3390763
  47.4144938  97.4340903  38.2629874  48.1259631  96.3540919  37.4760348
  35.8266519 108.8672792  31.1579365  36.6641741 109.2769800  30.9413073
  36.0044787 107.9272234  31.1279559  47.7230951 106.5347873  26.8463198
  47.2077574 107.3052477  27.0851586  47.4508260 105.8613009  27.4696260
  45.3078062 101.3797574  31.9048437  44.4519658 100.9904424  31.7254075
  45.7205014 101.4589534  31.0448222  46.8377209  98.9143917  36.3039996
  46.3342004  98.8774052  35.4907802  47.1307816  99.8236660  36.3636653
  43.0820095  98.9982647  35.3106178  43.9473091  98.8025455  34.9512068
  43.1497604  98.7692998  36.2375535  52.6965225 109.2880227  28.7816372
  51.9194668 108.9491387  28.3371534  53.3756706 109.2932851  28.1071337
  47.5117254 104.4074965  28.6722979  47.2067390 104.7221114  29.5233123
  48.4647696 104.4856385  28.7150312  45.9563686 110.5665188  30.3215933
  45.4285048 109.8317948  30.0089171  45.4551189 111.3439865  30.0755902
  50.9356532 108.7614209  35.4382980  50.2780207 109.4513470  35.5263108
  51.7396931 109.1510641  35.7816966  40.6882414 101.2284854  32.6822545
  41.2626166 101.0060036  31.9495738  41.2753396 101.2973549  33.4351146
  49.7461991 107.1158581  33.4886921  50.2593873 107.7488573  33.9908631
  50.3963215 106.5159777  33.1230281  41.0152001 103.2589316  26.7018430
  40.1789313 103.5964002  27.0227705  40.8756770 103.1238295  25.7645567
  42.9905081  98.1026103  31.4097614  42.3369494  97.7875121  30.7854229
  42.9485556  97.4801844  32.1357437  44.1016286 108.3845398  23.3250906
  43.1943348 108.1534652  23.5242055  44.5987318 107.5883018  23.5124888
  47.0084365 117.0942906  26.2447593  46.3346064 117.3974602  26.8532550
  47.3950187 117.8971986  25.8953050  46.2242822 104.5908037  35.7345262
  45.3065383 104.8122984  35.5766950  46.6402965 104.6654347  34.8756969
  47.0077870 105.9899453  30.8647942  47.7549688 106.5020850  30.5555064
  47.2769459 105.6683505  31.7252336  45.2804520 108.4857993  27.8474896
  44.3715739 108.2017026  27.9447366  45.3099604 108.9057072  26.9878203
  50.5123787 112.0964583  31.6166064  50.0586114 111.2555493  31.6731255
  49.8817754 112.7325981  31.9540844  49.4556707 103.0256569  32.8466731
  48.7179463 102.5133955  33.1776974  49.7083480 102.5856950  32.0350008
  48.9556726 113.9341080  32.5515882  49.2479701 114.4946137  31.8328248
  49.4655347 114.2269641  33.3069041  49.5568334  95.8032821  33.4408501
  49.8627211  94.9430184  33.1534416  50.2820939  96.3950441  33.2407495
  35.8492690 106.2063507  31.8290099  35.6517090 105.6132868  31.1041165
  35.2939354 105.9015718  32.5466037  43.8289414 106.0986614  33.9484692
  43.8838024 105.1460450  33.8727168  43.0180616 106.2546053  34.4325990
  44.9780608 110.0266737  25.1862975  44.5400037 109.3102596  24.7268612
  45.7191048 110.2542852  24.6248066  41.7681774 104.7163674  31.7075071
  40.9549639 105.0157844  32.1140263  42.2640768 104.3219362  32.4249553
  43.9190352 114.7121431  33.6409335  43.8766530 114.9382277  32.7117867
  44.8353050 114.4784805  33.7895137  47.3655985 105.1805498  40.5389965
  47.7205373 105.4076971  41.3984430  48.0128117 105.5123875  39.9167220
  53.0953722 108.3023934  31.2439294  52.9571621 108.4925530  30.3160483
  52.7389941 109.0643317  31.7007345  41.2595848 102.2882029  37.3236306
  41.8995228 102.1470788  36.6259269  40.4273379 102.0016543  36.9474908
  53.1223102 110.3700461  36.2550565  53.5559609 110.2775750  37.1033619
  53.8354683 110.3457962  35.6170581  42.0356152 111.5884460  33.4371298
  42.8296751 111.0934780  33.2353873  41.3247845 111.0602323  33.0739004
  46.8550997 113.9702555  37.7883666  46.9088019 114.5393491  38.5561382
  45.9865778 114.1404440  37.4237703  38.3438916 105.7327541  29.5131051
  37.4136504 105.6711997  29.7301013  38.4396388 105.2103494  28.7167692
  38.2624465 102.2582354  32.1009292  38.5231282 103.1727687  31.9918453
  39.0841637 101.7906797  32.2505905  39.7349390 103.6720111  39.2708117
  40.4072444 103.4637473  38.6220766  38.9079177 103.4742197  38.8313349
  53.9838651 110.4124162  38.7883451  54.1774542 111.3169972  39.0342725
  53.8839270 109.9531581  39.6222036  45.6374962 100.2982052  41.2873778
  44.9902877 100.9972002  41.1938254  46.4075978 100.7318196  41.6550026
  49.0453760 110.5630904  44.3624331  48.8939267 110.3341456  43.4454415
  49.0358440 111.5201506  44.3755676  45.8139097 108.1362817  39.3470598
  46.7431157 108.2873977  39.1739565  45.3930127 108.2246838  38.4919244
  44.6127428 112.1613482  37.1169135  44.4738514 111.7932266  37.9895073
  43.8242025 112.6761121  36.9453093  45.2075580 117.2622578  28.4594672
  45.3827336 116.7910621  29.2740294  44.5208368 117.8888344  28.6875932
  46.1632643 111.5395084  34.5057973  45.8282476 111.4995854  35.4015623
  45.6636589 110.8739800  34.0328383  40.1376887 106.9462714  40.0310554
  39.9996685 106.2142953  40.6322093  41.0481811 106.8571614  39.7494742
  49.0991835 108.8851119  24.7795033  48.4821006 108.1597947  24.6828085
  48.6308324 109.6460479  24.4362107  42.7659188 106.6582674  39.5194234
  43.4758807 106.0175866  39.4780852  42.7228496 106.9095568  40.4420415
  50.7545967 113.5950027  42.4400813  50.6958513 112.9109247  41.7731396
  51.1565485 114.3369017  41.9881439  41.4788122 103.6447892  41.3389873
  40.9425479 103.1938630  41.9911470  40.8904831 103.7793800  40.5960338
  40.8890381 103.1036543  23.9016337  40.0119847 102.9825344  23.5378584
  41.3648134 102.3122621  23.6495226  50.7563374 111.5589611  40.6714793
  49.8690153 111.2215533  40.7941192  51.3261925 110.8272642  40.9083558
  32.4092521 107.8913703  33.9957844  33.0963561 107.5775433  33.4078859
  32.2540650 108.7955067  33.7225095  37.2127243 102.7803899  38.4242868
  37.1285432 102.1729569  37.6893278  36.3909950 103.2712918  38.4252364
  44.2864527 116.2191063  37.6376036  44.2134699 117.0246035  38.1495340
  43.8441921 116.4183029  36.8124057  44.0754307 115.4562833  31.1478857
  43.2921829 115.9984513  31.2417082  44.7747052 115.9736813  31.5473099
  47.3850957 101.2657463  33.7913063  47.8819657 100.5127425  33.4714133
  46.6137939 101.3021779  33.2256272  55.2380715 106.9697828  35.4331354
  55.2270591 107.8522544  35.0625287  54.3698094 106.6169379  35.2385891
  46.7463211 116.1177897  39.7934195  47.4591183 116.7525362  39.7210096
  46.2553240 116.2141763  38.9774196  48.4680738 110.0229150  31.3651486
  47.5337017 110.1430612  31.1956191  48.6457406 109.1201617  31.1011496
  43.9685926 103.4074846  33.5184747  43.5983713 102.8545886  34.2065653
  44.4645018 102.8032979  32.9659747  51.8553289 105.8646469  31.9001520
  52.3213741 106.6974461  31.8261823  52.3060790 105.3991451  32.6046779
  41.7975124 113.8672341  40.6139765  42.4984584 114.5008824  40.7669160
  41.3270239 114.2087072  39.8535405  49.9229520 112.2090291  28.8987672
  50.1989364 112.0946885  29.8081546  49.0534019 111.8107775  28.8599845
  49.8269952  98.2327056  35.9392422  48.9133032  98.4631283  36.1074629
  50.2563053  98.3165500  36.7906454  49.5976410 106.4216948  38.4392316
  48.9447861 106.6692856  37.7844768  49.9756790 105.6081086  38.1054793
  46.5583584 116.4576641  32.5420486  46.7405979 115.6398297  33.0048238
  47.3816570 116.6744334  32.1045376  46.8925750 115.3844827  29.8035534
  47.4213516 114.8737281  29.1905697  47.1553969 115.0687357  30.6681068
  45.6463983 107.1636759  44.9258353  44.9704621 107.0630889  45.5960728
  46.4691617 107.0075973  45.3894350  37.3942843 113.4008696  37.5470868
  37.9796279 112.6552384  37.6798772  37.1967681 113.7112653  38.4307532
  40.2481498 116.4359943  32.5633310  39.5791873 116.9206071  32.0797350
  40.1094367 116.6829164  33.4776689  31.9860497 105.9714296  36.2675311
  32.0244597 105.4377887  37.0612429  31.4800790 105.4449502  35.6486288
  44.3886766 118.4703687  39.1615969  44.9405074 118.6335308  39.9265054
  44.7292960 119.0608125  38.4895994  39.3651260 100.8178837  39.7637853
  39.4292586 101.6793667  39.3515251  39.3018380 100.2052838  39.0310212
  38.8403532 102.8901969  43.4110888  39.4675571 102.5079046  44.0248412
  37.9831451 102.6716171  43.7766580  49.2397641 113.2964944  45.0164623
  49.7837545 113.9094903  44.5219578  48.6584486 113.8544523  45.5331636
  35.6169075 104.6978398  29.3429243  35.9122516 103.7889077  29.2896296
  34.7157111 104.6766138  29.0210245  47.5255154 116.4185662  36.1479651
  47.4006293 115.6175402  35.6390596  48.1834245 116.9131856  35.6593621
  39.1463322 102.7734395  35.3256791  38.4249908 103.3870362  35.1864264
  39.9356578 103.3092160  35.2473437  49.5890062 114.2194682  37.7759201
  48.6420398 114.1000034  37.7037528  49.9372835 113.3317180  37.8585462
  41.9489635 100.1088821  41.5997443  42.4724037 100.3551118  42.3623752
  41.7301969 100.9408856  41.1800580  37.3456916 102.3792496  29.4668568
  37.0169623 101.4989875  29.2843674  37.6996287 102.3240165  30.3544957
  46.5936495 114.0147399  33.9763553  46.4461458 113.0864106  34.1571123
  47.4189989 114.0367489  33.4920629  40.4598740 102.6665466  29.8344045
  40.7994812 103.1951387  29.1122654  40.9070860 103.0045872  30.6102612
  50.1970617 114.8375957  35.0628426  51.1217165 114.6318819  34.9252877
  50.0285921 114.5892358  35.9717768  43.1542180 101.0502516  39.2847113
  42.8139001 100.2510329  39.6867793  42.4481187 101.3504227  38.7123947
  43.8058652  98.1351829  37.7374436  44.6284722  97.6612307  37.6153327
  44.0496716  98.9142313  38.2373123  42.4466887 101.1640087  28.0337338
  43.1675249 101.5421340  27.5301055  41.8232191 101.8828964  28.1372316
  46.5898010 101.8685236  28.9695671  46.8061624 102.7509874  28.6684499
  46.1092077 101.4771450  28.2401312  41.3297231 104.8270949  35.5466415
  41.1841812 105.1411252  36.4390697  40.8522435 105.4455850  34.9937314
  43.1893614 101.8173497  35.5947305  43.1755183 100.9214591  35.2579603
  43.9066042 101.8244161  36.2285591  45.0419745 102.2510838  37.6400432
  44.7837522 103.1727908  37.6384763  44.5104785 101.8541272  38.3300896
  49.9865933 115.3561625  30.4190517  50.1602811 114.7908047  29.6664370
  50.4794825 116.1562520  30.2370007  35.8042893 107.3676294  38.4854076
  35.2596361 108.1436102  38.6174351  36.6822243 107.7147098  38.3273198
  42.5930510 100.6987878  30.8634875  42.7146421  99.7704524  31.0625762
  42.3032552 100.7126564  29.9513190  45.4621700  98.3842788  34.0001595
  45.4843397  98.4482121  33.0453574  45.8789759  97.5447297  34.1942101
  55.8405325 108.1198048  32.0380817  56.2836471 107.3705373  31.6399940
  54.9631835 108.1108184  31.6554549  50.9741106 114.6728389  27.5187416
  51.6692010 115.2935082  27.7374730  51.3164256 113.8223740  27.7939794
  36.5908915 106.4946190  41.3784233  35.8490651 106.6428825  41.9648864
  36.2701659 106.7554456  40.5150983  52.8732529 112.1228095  29.0474747
  53.3983853 112.4615367  28.3224067  52.7854882 111.1875110  28.8637881
  44.5352578 116.0362168  41.1764623  44.8439704 115.7911315  42.0487323
  45.3328060 116.2408807  40.6883493  44.5573190 118.1900078  33.4070000
  44.1178180 117.6976457  34.1002856  45.3081307 117.6473046  33.1662075
  37.0365529 114.3811619  33.4094628  37.8623549 114.0815391  33.0293271
  36.6859581 113.6119241  33.8584416  42.0047062 113.7338087  35.4792301
  41.3827071 113.0708792  35.1794529  42.6751929 113.7599219  34.7965949
  35.2374134 112.2997945  34.3683561  34.4006042 111.8720120  34.1867563
  35.2097779 112.4930389  35.3054353  42.0771589 102.2119875  45.0724807
  42.1259745 103.0881998  44.6902577  42.6194104 101.6697268  44.4996451
  52.5626435 112.7560998  44.3525944  51.7721979 112.7385137  43.8130444
  52.3259790 113.2949292  45.1074981  52.6824310 109.6053465  41.6658673
  52.7322315 109.4403472  42.6074196  52.5738233 108.7380724  41.2756554
  41.5660569 112.2842010  28.9550762  41.7148689 112.9677475  28.3017435
  42.3727012 112.2647100  29.4700218  49.9728072 105.5884393  42.9817980
  50.8737935 105.4490858  42.6901978  50.0476047 105.7538848  43.9216157
  44.3070878 102.9651247  41.8271166  43.4374187 103.2584814  41.5553755
  44.5430358 103.5491692  42.5478430  54.1842507 112.0250406  41.9100695
  53.8927315 112.3880387  42.7464156  53.5714638 111.3117414  41.7314027
  55.3838189 109.5903286  34.4303265  56.2185081 110.0293090  34.5940825
  55.5197318 109.1141939  33.6111511  52.4329695 107.1483021  40.3780753
  52.9083817 107.3410667  39.5699604  51.5095261 107.2042207  40.1324136
  39.3213202 108.3107188  29.9611831  39.0759244 107.4069518  30.1592041
  39.4909116 108.3124338  29.0191309  47.0109912  99.1830864  39.3436586
  47.5291856  99.9191891  39.0183075  46.6565044  99.4894858  40.1783346
  38.5908849 104.0435546  27.4597992  37.8978094 104.1179901  26.8038028
  38.3460601 103.2795889  27.9819509  47.2622506  95.6031147  34.8637483
  47.5424260  94.9354336  35.4897910  48.0473113  95.7960243  34.3512147
  45.0655974 114.7790141  26.4262509  44.4929941 115.3980328  25.9732981
  45.6388768 115.3289503  26.9602431  51.1331364 104.0248781  38.6109058
  52.0848787 104.1246879  38.6321282  50.9634815 103.2327049  39.1207143
  49.1545744 101.1104364  38.7968459  48.5595676 101.3909377  38.1014948
  48.8695440 101.5998265  39.5685200  48.2853234 115.0627291  27.5571092
  49.2183907 114.9972853  27.7603967  48.1976447 115.8983558  27.0985624
  50.9141251 114.3793161  24.5175039  50.8354882 114.0453025  25.4110797
  51.7350918 114.8714929  24.5166512  53.6119442 107.2454901  37.7251358
  53.5795762 106.3070901  37.9111042  54.2220066 107.3238937  36.9917183
  45.4502773 106.1150954  23.7678562  46.3961878 105.9857162  23.8366980
  45.0717018 105.3765615  24.2447990  53.7613930 104.0365944  37.7709641
  53.2452979 103.2524401  37.5839570  54.6453879 103.7084661  37.9356160
  51.4224657  97.7806960  33.7305454  51.2249478  97.4722048  34.6148786
  52.0324363  98.5068599  33.8603384  59.4295992 108.3070907  36.8657395
  60.1599380 108.0456196  37.4265098  58.8202937 107.5699629  36.9059463
  57.5111289 106.4478770  37.4631846  56.7844453 106.3134735  36.8548337
  57.0958576 106.7555599  38.2688564  45.3341465 110.1668700  45.2279219
  46.2544475 110.3447299  45.4219265  45.2991048 109.2224745  45.0758918
  43.6345690 104.0400930  23.7033447  42.7277145 103.7434043  23.7796161
  43.9121671 103.7430748  22.8367733  34.5523630 105.3607293  34.1532493
  34.2326415 104.5072602  33.8606867  34.0057059 105.5755872  34.9090461
  38.3303538 108.0769734  37.8702000  38.5489548 109.0086842  37.8890034
  38.7429312 107.7177709  38.6556804  45.2507756  98.5837820  29.8577688
  44.4408484  98.2384905  30.2332934  45.9392173  98.2745363  30.4465300
  47.1798304  97.6615866  31.4801985  47.7329343  98.0811320  32.1392008
  47.4168390  96.7351615  31.5224941  43.2031403 103.6502940  47.2604749
  43.1028130 104.5997297  47.1916840  42.9852945 103.3221179  46.3880819
  42.4044475 100.8987865  23.8445426  43.2663639 101.2242764  24.1041244
  42.5894819 100.1119361  23.3318492  34.4211890 108.9810205  36.1225615
  33.7275362 108.5664158  35.6095569  35.1684881 109.0230741  35.5259034
  50.5577111  99.7716392  30.9880649  49.9775780 100.4301196  30.6058702
  50.2913044  98.9493736  30.5768067  49.0080677  99.1721449  33.1901970
  49.5080456  99.2837984  32.3816288  49.6516285  98.8682502  33.8302778
  43.0662673 107.0800079  46.0769811  42.5829755 107.8800439  46.2833700
  43.1523612 107.0908024  45.1237255  36.3348633 108.9128459  33.9991630
  36.3119321 109.0116146  33.0473513  36.6449269 109.7593609  34.3208796
  38.9936011 110.9704614  38.1138244  39.9479264 110.9388556  38.0468176
  38.7948534 110.5095237  38.9288470  39.5835393 109.5405730  40.6809042
  40.4028282 110.0349808  40.7043879  39.8572201 108.6237698  40.6526610
  49.3401989 101.9316482  30.0436998  48.4527844 102.2166133  29.8257192
  49.7555978 101.7710245  29.1964274  52.6916525 101.9563003  33.7591337
  53.4676915 102.4459455  34.0315954  51.9664659 102.3821057  34.2163206
  55.1289084 102.6690622  34.8165277  55.7233575 102.4286358  34.1058586
  55.2015668 101.9497753  35.4438814  37.3486240 116.5124233  35.1308442
  37.2140707 115.7524634  34.5646440  36.9318302 117.2365133  34.6637231
  48.4845203 111.6961157  24.1385018  49.1881053 111.9011159  24.7542673
  47.7607851 112.2637919  24.4034101  49.3143013 107.4471018  30.2587288
  49.2578214 107.9039569  29.4194920  49.8671355 106.6861703  30.0810130
  53.1247819 103.2360750  31.0837407  52.8684753 102.8357385  31.9145615
  52.5000687 103.9504544  30.9587546  57.4360157 105.9756823  33.5908699
  56.8759715 106.0450012  34.3640261  56.8303660 105.7997808  32.8708195
  40.5055365 117.4093550  35.3426885  40.3887750 118.3538983  35.2405575
  39.6847812 117.1067112  35.7312684  50.3931900 112.1343686  26.1883478
  51.2277504 111.7024884  26.0060952  50.2316243 111.9625700  27.1160372
  50.0477792 108.6375799  27.5539817  49.9926596 108.4720071  26.6128261
  49.4223847 109.3451832  27.7102007  34.8370307 103.8743864  41.3801239
  35.4829171 103.3642818  41.8688464  34.6287458 104.6112545  41.9544664
  47.3623699 110.9424711  46.8793380  48.2314859 111.1165363  46.5180015
  46.8830451 111.7619128  46.7569109  43.3573918  98.1383908  27.1325135
  43.3452587  99.0825748  27.2893406  44.2497339  97.9554054  26.8384596
  41.5309880 118.0621812  38.5582813  42.4337126 118.0945422  38.8749308
  41.3047250 117.1322263  38.5729149  43.2863482 116.8152799  35.2192892
  42.3359113 116.8154660  35.1057264  43.5895968 116.0685533  34.7028927
  47.1726037  94.7326685  31.3871072  46.4058433  94.1785172  31.5327754
  47.5836742  94.8048554  32.2485224  39.1767798 101.0211481  45.4776253
  40.0399260 100.6648286  45.6879578  38.6033209 100.6825375  46.1651658
  59.0216175 122.6513337  36.2838654  59.6594585 122.5320084  35.5801994
  58.9037018 123.5994181  36.3426606  55.8305881 122.6040765  36.2200179
  55.4924393 122.4881830  35.3320714  56.6995650 122.2031930  36.2001185
  56.3125664 123.7575617  42.1786385  56.3014305 123.3628415  41.3066888
  56.4746304 123.0241689  42.7720156  53.5314161 121.3729013  25.5517119
  53.7839681 120.8510534  24.7900582  52.5938720 121.2095158  25.6543803
  58.5757444 120.3764791  33.3591862  59.3620533 119.9584214  33.0082279
  58.8396148 121.2810883  33.5273511  63.9765871 120.3140024  34.2624841
  64.7091043 119.7439241  34.4962670  63.2205226 119.9261625  34.7031346
  55.5941990 122.7367266  31.4588183  55.2300198 122.2097887  32.1701105
  56.4509106 122.3465735  31.2854669  61.4991291 114.0261598  38.7219449
  61.1674616 114.8957009  38.4980664  60.9036904 113.7097882  39.4013480
  55.2347477 117.7657165  26.4549532  55.4021880 118.6337402  26.8220003
  55.0444646 117.9284447  25.5310821  61.3919954 118.7456684  35.8012800
  60.4836832 118.6772093  35.5071560  61.3407550 119.2228629  36.6294625
  55.2136698 120.2214823  27.4396199  55.0936323 120.6671874  28.2781679
  54.5189287 120.5700140  26.8809737  55.4660820 120.1646330  43.7447697
  54.6894154 120.7240250  43.7350561  56.1051383 120.6503113  44.2662567
  63.2581601 116.9473123  37.5790673  62.6155981 117.2405656  36.9330468
  62.7536529 116.8326043  38.3843870  60.9121764 120.6936296  28.2676533
  61.8239621 120.9263683  28.0924230  60.4031411 121.2773340  27.7051611
  59.1962532 125.1160924  41.9037825  59.6045888 124.6743334  41.1592458
  58.4739794 124.5413551  42.1572018  55.5493602 120.0533531  39.2771382
  56.3954797 120.4772944  39.4206031  55.4892240 119.3967155  39.9709945
  58.6993047 117.7137899  40.9352556  58.4553979 118.4679959  40.3986832
  58.9752978 118.0923246  41.7699803  60.6531510 124.2576511  39.6129821
  60.8648405 124.9008271  38.9364203  60.6061258 123.4238828  39.1451752
  58.2557739 116.8694332  36.5166394  57.3942218 117.1675585  36.8083131
  58.2820174 117.0864731  35.5847426  54.0088195 121.5359675  29.7329764
  54.7112238 121.9880719  30.2003691  53.6768823 120.8943494  30.3609658
  52.4568556 120.1271431  44.1080974  51.8267217 120.8087712  44.3416371
  52.3504644 120.0154513  43.1634112  47.7513529 119.7943228  35.0346898
  46.9612583 120.0500756  34.5587009  48.2424776 120.6091565  35.1398939
  49.7028274 120.1587807  31.9930375  48.9059437 120.2706501  32.5113870
  49.4753866 120.4974459  31.1271265  69.8583331 123.4787215  34.1337150
  69.1047040 122.9094613  33.9781155  69.9930872 123.4449880  35.0807785
  51.7349299 114.4292197  46.4706225  51.3416244 113.8758396  47.1453869
  52.5515439 114.7402776  46.8612742  54.6517260 115.8450076  44.0626481
  55.3926973 116.4457230  43.9830944  54.8835183 115.1027714  43.5044524
  49.7958598 121.0306444  42.3404711  49.6812113 120.1291701  42.6411810
  48.9403116 121.2770140  41.9889528  58.5974423 111.8731179  38.3390763
  58.2538692 112.7632821  38.2629874  58.9653385 111.6832837  37.4760348
  58.5624706 121.8639790  26.8463198  58.0471329 122.6344395  27.0851586
  58.2902014 121.1904927  27.4696260  56.1471817 116.7089491  31.9048437
  55.2913413 116.3196342  31.7254075  56.5598768 116.7881452  31.0448222
  57.6770963 114.2435835  36.3039996  57.1735759 114.2065970  35.4907802
  57.9701570 115.1528577  36.3636653  53.9213849 114.3274564  35.3106178
  54.7866846 114.1317373  34.9512068  53.9891358 114.0984916  36.2375535
  63.5358980 124.6172145  28.7816372  62.7588422 124.2783305  28.3371534
  64.2150461 124.6224768  28.1071337  58.3511009 119.7366883  28.6722979
  58.0461144 120.0513032  29.5233123  59.3041451 119.8148302  28.7150312
  61.7750287 124.0906126  35.4382980  61.1173961 124.7805388  35.5263108
  62.5790686 124.4802558  35.7816966  51.5276168 116.5576772  32.6822545
  52.1019920 116.3351954  31.9495738  52.1147151 116.6265467  33.4351146
  60.5855745 122.4450499  33.4886921  61.0987627 123.0780491  33.9908631
  61.2356969 121.8451695  33.1230281  51.8545755 118.5881233  26.7018430
  51.0183068 118.9255920  27.0227705  51.7150525 118.4530213  25.7645567
  53.8298836 113.4318021  31.4097614  53.1763248 113.1167038  30.7854229
  53.7879310 112.8093762  32.1357437  54.9410041 123.7137316  23.3250906
  54.0337102 123.4826570  23.5242055  55.4381073 122.9174935  23.5124888
  57.0636576 119.9199955  35.7345262  56.1459138 120.1414902  35.5766950
  57.4796720 119.9946265  34.8756969  57.8471624 121.3191370  30.8647942
  58.5943443 121.8312767  30.5555064  58.1163214 120.9975423  31.7252336
  56.1198274 123.8149911  27.8474896  55.2109493 123.5308944  27.9447366
  56.1493358 124.2348990  26.9878203  60.2950461 118.3548487  32.8466731
  59.5573218 117.8425873  33.1776974  60.5477235 117.9148868  32.0350008
  60.3962088 111.1324739  33.4408501  60.7020965 110.2722102  33.1534416
  61.1214693 111.7242359  33.2407495  54.6683168 121.4278532  33.9484692
  54.7231778 120.4752368  33.8727168  53.8574370 121.5837971  34.4325990
  52.6075528 120.0455591  31.7075071  51.7943394 120.3449762  32.1140263
  53.1034522 119.6511280  32.4249553  58.2049740 120.5097416  40.5389965
  58.5599128 120.7368889  41.3984430  58.8521871 120.8415793  39.9167220
  63.9347477 123.6315852  31.2439294  63.7965375 123.8217448  30.3160483
  63.5783696 124.3935235  31.7007345  52.0989603 117.6173947  37.3236306
  52.7388982 117.4762706  36.6259269  51.2667133 117.3308460  36.9474908
  63.9616856 125.6992379  36.2550565  64.3953363 125.6067668  37.1033619
  64.6748437 125.6749879  35.6170581  49.1832670 121.0619459  29.5131051
  48.2530258 121.0003915  29.7301013  49.2790142 120.5395412  28.7167692
  49.1018219 117.5874272  32.1009292  49.3625037 118.5019605  31.9918453
  49.9235392 117.1198714  32.2505905  50.5743145 119.0012029  39.2708117
  51.2466198 118.7929391  38.6220766  49.7472931 118.8034115  38.8313349
  64.8232406 125.7416079  38.7883451  65.0168296 126.6461890  39.0342725
  64.7233024 125.2823498  39.6222036  56.4768717 115.6273970  41.2873778
  55.8296632 116.3263920  41.1938254  57.2469732 116.0610114  41.6550026
  56.6532851 123.4654735  39.3470598  57.5824911 123.6165894  39.1739565
  56.2323881 123.5538756  38.4919244  50.9770642 122.2754632  40.0310554
  50.8390440 121.5434871  40.6322093  51.8875565 122.1863532  39.7494742
  59.9385590 124.2143036  24.7795033  59.3214760 123.4889864  24.6828085
  59.4702078 124.9752397  24.4362107  53.6052943 121.9874591  39.5194234
  54.3152561 121.3467784  39.4780852  53.5622251 122.2387486  40.4420415
  52.3181877 118.9739809  41.3389873  51.7819234 118.5230548  41.9911470
  51.7298585 119.1085718  40.5960338  51.7284136 118.4328461  23.9016337
  50.8513602 118.3117261  23.5378584  52.2041889 117.6414539  23.6495226
  48.0520998 118.1095817  38.4242868  47.9679187 117.5021486  37.6893278
  47.2303704 118.6004835  38.4252364  58.2244712 116.5949380  33.7913063
  58.7213411 115.8419343  33.4714133  57.4531693 116.6313697  33.2256272
  66.0774469 122.2989746  35.4331354  66.0664345 123.1814461  35.0625287
  65.2091849 121.9461297  35.2385891  54.8079680 118.7366763  33.5184747
  54.4377468 118.1837804  34.2065653  55.3038773 118.1324897  32.9659747
  62.6947044 121.1938387  31.9001520  63.1607496 122.0266379  31.8261823
  63.1454544 120.7283369  32.6046779  60.6663706 113.5618974  35.9392422
  59.7526786 113.7923201  36.1074629  61.0956808 113.6457418  36.7906454
  60.4370165 121.7508866  38.4392316  59.7841615 121.9984773  37.7844768
  60.8150545 120.9373004  38.1054793  56.4857738 122.4928677  44.9258353
  55.8098375 122.3922806  45.5960728  57.3085372 122.3367891  45.3894350
  50.2045014 116.1470754  39.7637853  50.2686341 117.0085585  39.3515251
  50.1412134 115.5344756  39.0310212  49.6797287 118.2193887  43.4110888
  50.3069325 117.8370964  44.0248412  48.8225205 118.0008089  43.7766580
  46.4562829 120.0270316  29.3429243  46.7516270 119.1180994  29.2896296
  45.5550865 120.0058055  29.0210245  49.9857076 118.1026312  35.3256791
  49.2643662 118.7162280  35.1864264  50.7750332 118.6384077  35.2473437
  52.7883390 115.4380739  41.5997443  53.3117792 115.6843035  42.3623752
  52.5695723 116.2700774  41.1800580  48.1850671 117.7084414  29.4668568
  47.8563377 116.8281792  29.2843674  48.5390042 117.6532082  30.3544957
  51.2992494 117.9957383  29.8344045  51.6388567 118.5243305  29.1122654
  51.7464615 118.3337789  30.6102612  53.9935935 116.3794434  39.2847113
  53.6532755 115.5802247  39.6867793  53.2874941 116.6796145  38.7123947
  54.6452407 113.4643746  37.7374436  55.4678476 112.9904225  37.6153327
  54.8890470 114.2434230  38.2373123  53.2860641 116.4932005  28.0337338
  54.0069004 116.8713258  27.5301055  52.6625945 117.2120882  28.1372316
  57.4291764 117.1977154  28.9695671  57.6455379 118.0801792  28.6684499
  56.9485831 116.8063367  28.2401312  52.1690986 120.1562867  35.5466415
  52.0235566 120.4703170  36.4390697  51.6916189 120.7747767  34.9937314
  54.0287368 117.1465415  35.5947305  54.0148937 116.2506508  35.2579603
  54.7459797 117.1536079  36.2285591  55.8813499 117.5802755  37.6400432
  55.6231277 118.5019826  37.6384763  55.3498539 117.1833190  38.3300896
  53.4324264 116.0279795  30.8634875  53.5540176 115.0996442  31.0625762
  53.1426307 116.0418481  29.9513190  56.3015455 113.7134706  34.0001595
  56.3237152 113.7774039  33.0453574  56.7183514 112.8739214  34.1942101
  66.6799079 123.4489965  32.0380817  67.1230225 122.6997291  31.6399940
  65.8025589 123.4400102  31.6554549  52.9165344 117.5411793  45.0724807
  52.9653499 118.4173916  44.6902577  53.4587858 116.9989186  44.4996451
  63.5218065 124.9345382  41.6658673  63.5716070 124.7695390  42.6074196
  63.4131988 124.0672641  41.2756554  60.8121827 120.9176310  42.9817980
  61.7131690 120.7782775  42.6901978  60.8869801 121.0830765  43.9216157
  55.1464632 118.2943165  41.8271166  54.2767942 118.5876731  41.5553755
  55.3824113 118.8783610  42.5478430  66.2231944 124.9195204  34.4303265
  67.0578835 125.3585008  34.5940825  66.3591073 124.4433857  33.6111511
  63.2723450 122.4774939  40.3780753  63.7477571 122.6702585  39.5699604
  62.3489015 122.5334124  40.1324136  57.8503666 114.5122782  39.3436586
  58.3685610 115.2483809  39.0183075  57.4958799 114.8186775  40.1783346
  49.4302604 119.3727463  27.4597992  48.7371849 119.4471818  26.8038028
  49.1854356 118.6087807  27.9819509  58.1016260 110.9323065  34.8637483
  58.3818014 110.2646254  35.4897910  58.8866867 111.1252160  34.3512147
  61.9725119 119.3540699  38.6109058  62.9242542 119.4538796  38.6321282
  61.8028569 118.5618967  39.1207143  59.9939498 116.4396282  38.7968459
  59.3989430 116.7201295  38.1014948  59.7089195 116.9290183  39.5685200
  64.4513196 122.5746818  37.7251358  64.4189517 121.6362819  37.9111042
  65.0613820 122.6530855  36.9917183  56.2896527 121.4442871  23.7678562
  57.2355632 121.3149079  23.8366980  55.9110772 120.7057533  24.2447990
  64.6007685 119.3657862  37.7709641  64.0846734 118.5816318  37.5839570
  65.4847633 119.0376578  37.9356160  62.2618412 113.1098877  33.7305454
  62.0643233 112.8013965  34.6148786  62.8718117 113.8360516  33.8603384
  70.2689746 123.6362825  36.8657395  70.9993135 123.3748113  37.4265098
  69.6596692 122.8991547  36.9059463  68.3505043 121.7770688  37.4631846
  67.6238207 121.6426653  36.8548337  67.9352330 122.0847516  38.2688564
  54.4739444 119.3692848  23.7033447  53.5670900 119.0725960  23.7796161
  54.7515425 119.0722666  22.8367733  56.0901510 113.9129737  29.8577688
  55.2802239 113.5676822  30.2332934  56.7785927 113.6037281  30.4465300
  58.0192058 112.9907784  31.4801985  58.5723097 113.4103238  32.1392008
  58.2562145 112.0643532  31.5224941  54.0425158 118.9794858  47.2604749
  53.9421885 119.9289215  47.1916840  53.8246700 118.6513097  46.3880819
  53.2438229 116.2279783  23.8445426  54.1057393 116.5534681  24.1041244
  53.4288573 115.4411279  23.3318492  61.3970866 115.1008309  30.9880649
  60.8169535 115.7593113  30.6058702  61.1306798 114.2785654  30.5768067
  59.8474432 114.5013367  33.1901970  60.3474210 114.6129902  32.3816288
  60.4910040 114.1974420  33.8302778  53.9056428 122.4091997  46.0769811
  53.4223509 123.2092357  46.2833700  53.9917367 122.4199942  45.1237255
  60.1795744 117.2608400  30.0436998  59.2921599 117.5458050  29.8257192
  60.5949733 117.1002163  29.1964274  63.5310280 117.2854921  33.7591337
  64.3070670 117.7751373  34.0315954  62.8058414 117.7112975  34.2163206
  65.9682838 117.9982540  34.8165277  66.5627329 117.7578276  34.1058586
  66.0409422 117.2789670  35.4438814  60.1536767 122.7762936  30.2587288
  60.0971969 123.2331487  29.4194920  60.7065110 122.0153620  30.0810130
  63.9641573 118.5652668  31.0837407  63.7078507 118.1649303  31.9145615
  63.3394441 119.2796461  30.9587546  68.2753911 121.3048741  33.5908699
  67.7153469 121.3741930  34.3640261  67.6697414 121.1289725  32.8708195
  60.8871547 123.9667717  27.5539817  60.8320350 123.8011988  26.6128261
  60.2617602 124.6743750  27.7102007  45.6764062 119.2035781  41.3801239
  46.3222925 118.6934735  41.8688464  45.4681213 119.9404463  41.9544664
  54.1967672 113.4675826  27.1325135  54.1846342 114.4117666  27.2893406
  55.0891094 113.2845971  26.8384596  58.0119792 110.0618603  31.3871072
  57.2452187 109.5077089  31.5327754  58.4230497 110.1340471  32.2485224
  50.0161553 116.3503398  45.4776253  50.8793014 115.9940203  45.6879578
  49.4426963 116.0117293  46.1651658  69.4368177 127.2023097  38.3390763
  69.0932447 128.0924739  38.2629874  69.8047140 127.0124755  37.4760348
  71.2355843 126.4616656  33.4408501  71.5414720 125.6014020  33.1534416
  71.9608448 127.0534276  33.2407495  71.5057461 128.8910892  35.9392422
  70.5920541 129.1215118  36.1074629  71.9350562 128.9749336  36.7906454
  68.9410015 126.2614982  34.8637483  69.2211769 125.5938171  35.4897910
  69.7260622 126.4544078  34.3512147  73.1012166 128.4390795  33.7305454
  72.9036987 128.1305883  34.6148786  73.7111872 129.1652434  33.8603384
  68.8585813 128.3199702  31.4801985  69.4116852 128.7395155  32.1392008
  69.0955899 127.3935450  31.5224941  68.8513546 125.3910520  31.3871072
  68.0845942 124.8369007  31.5327754  69.2624251 125.4632389  32.2485224
   2.6781664  29.3326718  30.6637518   2.2345519  28.5463097  30.3458423
   3.3398878  29.5205869  29.9981409   4.7762903  29.6129518  28.6918920
   4.7581378  30.4338399  28.1999189   5.6982823  29.4883593  28.9169061
   5.6878743  26.2525356  31.0869638   5.5364250  26.0235908  30.1699721
   5.6783423  27.2095958  31.1000983   7.3970950  29.2844479  29.1646120
   7.3383496  28.6003699  28.4976703   7.7990468  30.0263469  28.7126746
   5.8822624  28.9859396  31.7409930   6.4262528  29.5989354  31.2464885
   5.3009469  29.5438975  32.2576943   9.2051418  28.4455450  31.0771251
   8.4146962  28.4279589  30.5375751   8.9684773  28.9843744  31.8320288
  10.8267490  27.7144858  28.6346001  10.5352299  28.0774839  29.4709462
  10.2139622  27.0011866  28.4559333   4.0048683  26.6319163  33.6038686
   4.8739842  26.8059815  33.2425321   3.5255434  27.4513580  33.4814416
  15.6641158  38.3407789  23.0083961  16.3019568  38.2214536  22.3047301
  15.5462001  39.2888633  23.0671913  12.4730865  38.2935217  22.9445486
  12.1349376  38.1776282  22.0566021  13.3420633  37.8926382  22.9246492
  12.9550648  39.4470069  28.9031691  12.9439288  39.0522867  28.0312195
  13.1171287  38.7136141  29.4965463   5.8782112  41.6421885  21.7726597
   6.6703404  41.3012710  21.3572896   6.1178762  41.7516860  22.6928750
   9.6757909  42.2307181  27.8510875   9.3847775  43.1352811  27.7357541
  10.3114893  42.2723708  28.5654945  10.6014116  39.6084029  24.4412235
  11.1977688  39.3840051  23.7269198  10.6589087  38.8668775  25.0437683
  20.6190854  36.0034476  20.9870148  21.3516026  35.4333693  21.2207977
  19.8630210  35.6156076  21.4276653  18.1416274  29.7156050  25.4464756
  17.8099599  30.5851461  25.2225971  17.5461888  29.3992334  26.1258787
  14.6347794  41.9168596  24.8460669  14.3348517  42.8193635  24.7376476
  14.2898853  41.6500779  25.6981822  18.0344938  34.4351136  22.5258106
  17.1261815  34.3666545  22.2316867  17.9832533  34.9123081  23.3539932
   9.6168574  48.6812916  17.8131637   9.5392603  49.6320741  17.8920117
   9.0130217  48.3358789  18.4706563  12.1085803  35.8540782  30.4693003
  11.3319137  36.4134702  30.4595868  12.7476366  36.3397565  30.9907874
  19.9006584  32.6367575  24.3035980  19.2580964  32.9300108  23.6575775
  19.3961513  32.5220495  25.1089177  10.3632176  38.6626235  30.0310970
  11.1046860  39.2011279  29.7545794   9.6569161  39.2892524  30.1882522
  15.8387515  40.8055376  28.6283132  16.2470871  40.3637786  27.8837764
  15.1164777  40.2308003  28.8817325  12.1918585  35.7427982  26.0016689
  13.0379781  36.1667396  26.1451338  12.1317223  35.0861607  26.6955252
  16.1616330  41.3656566  22.3835421  15.5325192  41.5302280  21.6811489
  15.7741992  41.7798176  23.1546385  20.0405562  42.3011004  19.7379785
  19.3556600  42.6809905  19.1876818  20.1249411  42.9106331  20.4711732
  15.3418031  33.4032351  27.6597863  15.0978963  34.1574411  27.1232138
  15.6177961  33.7817698  28.4945110  17.2956494  39.9470963  26.3375128
  17.5073389  40.5902723  25.6609509  17.2486242  39.1133280  25.8697058
  11.7144292  41.1030974  19.6485506  12.1782637  41.3818677  18.8590128
  11.4501090  40.2014419  19.4658597   8.6068373  40.6502456  22.5865269
   9.1769730  41.0789724  21.9482754   9.1976485  40.3685041  23.2849455
   9.0993539  35.8165883  30.8326280   8.4692200  36.4982164  31.0661677
   8.9929627  35.7048965  29.8879419  18.4102321  42.8242919  24.5097485
  19.2319765  42.4223106  24.2280167  18.4064724  42.7211153  25.4613601
  12.1758925  42.3726962  26.6658196  12.2403357  42.8347369  27.5016368
  11.4669849  41.7424327  26.7940506  26.5008315  39.1681667  20.8582457
  25.7472023  38.5989065  20.7026461  26.6355856  39.1344332  21.8053092
   8.3774282  30.1186649  33.1951531   7.9841228  29.5652848  33.8699176
   9.1940423  30.4297228  33.5858049   7.1531225  44.6736264  19.1887855
   7.3297853  45.5954228  19.0008838   7.9488058  44.3594683  19.6182234
  11.2942243  31.5344528  30.7871788  12.0351957  32.1351681  30.7076251
  11.5260166  30.7922166  30.2289831   6.4383581  36.7200896  29.0650018
   6.3237096  35.8186153  29.3657117   5.5828099  36.9664592  28.7134834
  13.5175419  44.6618636  30.6637518  13.0739273  43.8755014  30.3458423
  14.1792633  44.8497786  29.9981409   8.2762540  46.1914437  25.1898197
   8.8269965  46.0631501  24.4175191   7.4374016  46.4909326  24.8393090
  15.6156657  44.9421436  28.6918920  15.5975132  45.7630317  28.1999189
  16.5376577  44.8175511  28.9169061  12.0729711  42.4565565  29.5342428
  12.6058048  41.6953853  29.3041736  11.5443792  42.1639217  30.2766582
  18.4175270  39.7800578  22.1628286  17.7598944  40.4699840  22.2508415
  19.2215669  40.1697010  22.5062273  17.2280729  38.1344951  20.2132228
  17.7412610  38.7674943  20.7153938  17.8781953  37.5346146  19.8475588
  13.7061560  35.6094406  22.4590569  12.7884121  35.8309353  22.3012257
  14.1221703  35.6840717  21.6002276  17.9942525  43.1150952  18.3411371
  17.5404852  42.2741862  18.3976561  17.3636492  43.7512351  18.6786151
  16.4375464  44.9527449  19.2761189  16.7298439  45.5132506  18.5573554
  16.9474085  45.2456010  20.0314348  11.4009089  45.7307800  20.3654642
  11.3585268  45.9568646  19.4363174  12.3171788  45.4971175  20.5140443
  14.8474723  36.1991868  27.2635271  15.2024111  36.4263341  28.1229737
  15.4946854  36.5310244  26.6412527  20.5772460  39.3210304  17.9684600
  20.4390359  39.5111900  17.0405789  20.2208679  40.0829686  18.4252651
  20.6041840  41.3886831  22.9795872  21.0378346  41.2962120  23.8278926
  21.3173420  41.3644331  22.3415888   9.5174890  42.6070829  20.1616605
  10.3115489  42.1121149  19.9599180   8.8066582  42.0788692  19.7984310
  14.3369735  44.9888925  24.5128972  14.3906757  45.5579861  25.2806688
  13.4684516  45.1590810  24.1483010   7.2168128  34.6906481  25.9953424
   7.8891181  34.4823843  25.3466073   6.3897914  34.4928567  25.5558656
  21.4657389  41.4310531  25.5128757  21.6593279  42.3356342  25.7588032
  21.3658007  40.9717950  26.3467342  13.1193700  31.3168422  28.0119085
  12.4721615  32.0158371  27.9183561  13.8894715  31.7504566  28.3795333
  16.5272498  41.5817274  31.0869638  16.3758004  41.3527826  30.1699721
  16.5177177  42.5387875  31.1000983  13.2957834  39.1549187  26.0715904
  14.2249894  39.3060346  25.8984872  12.8748864  39.2433208  25.2164551
  12.0946166  43.1799851  23.8414442  11.9557252  42.8118636  24.7140380
  11.3060762  43.6947491  23.6698400  12.6894318  48.2808948  15.1839978
  12.8646074  47.8096991  15.9985601  12.0027106  48.9074714  15.4121239
  13.6451381  42.5581454  21.2303280  13.3101214  42.5182224  22.1260930
  13.1455327  41.8926170  20.7573690   7.6195625  37.9649084  26.7555861
   7.4815423  37.2329323  27.3567400   8.5300549  37.8757984  26.4740049
  10.2477926  37.6769043  26.2439540  10.9577544  37.0362235  26.2026159
  10.2047234  37.9281938  27.1665721  18.2364705  44.6136397  29.1646120
  18.1777251  43.9295617  28.4976703  18.6384223  45.3555387  28.7126746
   8.9606860  34.6634261  28.0635180   8.4244217  34.2125000  28.7156776
   8.3723568  34.7980170  27.3205644   7.2555403  51.4298310  21.9579839
   7.4952002  52.0616835  22.6358857   6.4124600  51.0786350  22.2445198
  18.2382112  42.5775980  27.3960099  17.3508891  42.2401902  27.5186498
  18.8080663  41.8459012  27.6328865  11.7683265  47.2377433  24.3621343
  11.6953437  48.0432404  24.8740647  11.3260658  47.4369399  23.5369364
  11.5573045  46.4749203  17.8724164  10.7740567  47.0170883  17.9662389
  12.2565790  46.9923183  18.2718405  22.7199452  37.9884198  22.1576661
  22.7089329  38.8708913  21.7870594  21.8516832  37.6355749  21.9631198
  14.2281949  47.1364267  26.5179501  14.9409921  47.7711732  26.4455403
  13.7371977  47.2328133  25.7019503  15.9499476  41.0415520  18.0896793
  15.0155754  41.1616982  17.9201497  16.1276144  40.1387986  17.8256803
  19.3372027  36.8832839  18.6246827  19.8032479  37.7160830  18.5507130
  19.7879528  36.4177820  19.3292085   9.2793862  44.8858710  27.3385072
   9.9803322  45.5195193  27.4914466   8.8088977  45.2273442  26.5780711
  17.0795148  37.4403318  25.1637622  16.4266598  37.6879225  24.5090075
  17.4575528  36.6267456  24.8300100  14.0402322  47.4763011  19.2665793
  14.2224717  46.6584667  19.7293545  14.8635308  47.6930703  18.8290683
  14.3744488  46.4031196  16.5280841  14.9032254  45.8923651  15.9151003
  14.6372707  46.0873726  17.3926374  13.1282721  38.1823129  31.6503659
  12.4523358  38.0817258  32.3206035  13.9510355  38.0262343  32.1139657
   4.8761580  44.4195065  24.2716175   5.4615017  43.6738753  24.4044079
   4.6786419  44.7299022  25.1552839   7.7300236  47.4546313  19.2878617
   7.0610611  47.9392440  18.8042657   7.5913105  47.7015533  20.2021996
  11.8705504  49.4890056  25.8861275  12.4223812  49.6521678  26.6510361
  12.2111698  50.0794494  25.2141300   6.3222270  33.9088339  30.1356194
   6.9494309  33.5265416  30.7493719   5.4650189  33.6902541  30.5011887
  16.7216378  44.3151314  31.7409930  17.2656282  44.9281272  31.2464885
  16.1403223  44.8730892  32.2576943  15.0073891  47.4372032  22.8724958
  14.8825031  46.6361772  22.3635903  15.6652983  47.9318225  22.3838928
  17.0708800  45.2381052  24.5004508  16.1239135  45.1186403  24.4282834
  17.4191573  44.3503550  24.5830769   9.4308373  31.1275191  28.3242750
   9.9542775  31.3737487  29.0869059   9.2120706  31.9595226  27.9045887
  14.0755233  45.0333768  20.7008860  13.9280196  44.1050476  20.8816430
  14.9008727  45.0553859  20.2165935  17.6789355  45.8562327  21.7873733
  18.6035902  45.6505188  21.6498184  17.5104658  45.6078728  22.6963074
  10.6360918  32.0688886  26.0092420  10.2957739  31.2696699  26.4113100
   9.9299924  32.3690597  25.4369253  12.5238482  33.2697207  24.3645739
  12.2656260  34.1914278  24.3630069  11.9923523  32.8727642  25.0546203
  17.4684671  46.3747994  17.1435824  17.6421549  45.8094417  16.3909677
  17.9613562  47.1748889  16.9615314   3.2861631  38.3862663  25.2099383
   2.7415099  39.1622471  25.3419657   4.1640981  38.7333468  25.0518504
  23.3224062  39.1384417  18.7626124  23.7655208  38.3891742  18.3645247
  22.4450573  39.1294554  18.3799856  18.4559844  45.6914759  14.2432722
  19.1510748  46.3121451  14.4620037  18.7982994  44.8410110  14.5185100
   4.0727653  37.5132560  28.1029540   3.3309389  37.6615195  28.6894170
   3.7520397  37.7740825  27.2396289  20.3551267  43.1414464  15.7720053
  20.8802591  43.4801737  15.0469373  20.2673619  42.2061480  15.5883188
  12.0171315  47.0548538  27.9009930  12.3258442  46.8097685  28.7732629
  12.8146797  47.2595176  27.4128800  12.0391928  49.2086448  20.1315306
  11.5996918  48.7162826  20.8248163  12.7900044  48.6659415  19.8907382
   4.5184267  45.3997988  20.1339934   5.3442286  45.1001760  19.7538578
   4.1678318  44.6305611  20.5829723   9.4865800  44.7524457  22.2037608
   8.8645809  44.0895162  21.9039836  10.1570667  44.7785588  21.5211256
   9.5590327  33.2306245  31.7970114   9.6078483  34.1068367  31.4147884
  10.1012841  32.6883638  31.2241757  20.0445173  43.7747368  31.0771251
  19.2540717  43.7571507  30.5375751  19.8078527  44.3135662  31.8320288
  20.1643048  40.6239834  28.3903980  20.2141053  40.4589842  29.3319502
  20.0556971  39.7567093  28.0001860  17.4546810  36.6070762  29.7063286
  18.3556673  36.4677227  29.4147284  17.5294785  36.7725217  30.6461464
  11.7889616  33.9837617  28.5516473  10.9192925  34.2771183  28.2799061
  12.0249096  34.5678062  29.2723736  21.6661245  43.0436776  28.6346001
  21.3746053  43.4066756  29.4709462  21.0533376  42.3303784  28.4559333
  22.8656927  40.6089656  21.1548571  23.7003818  41.0479460  21.3186132
  23.0016056  40.1328309  20.3356817  19.9148433  38.1669390  27.1026059
  20.3902555  38.3597037  26.2944911  18.9913998  38.2228576  26.8569443
  14.4928649  30.2017234  26.0681893  15.0110593  30.9378261  25.7428382
  14.1383782  30.5081227  26.9028652  18.6150102  35.0435150  25.3354365
  19.5667525  35.1433248  25.3566589  18.4453552  34.2513419  25.8452449
  16.6364481  32.1290734  25.5213766  16.0414414  32.4095746  24.8260254
  16.3514178  32.6184635  26.2930507  21.0938180  38.2641270  24.4496664
  21.0614500  37.3257271  24.6356348  21.7038803  38.3425307  23.7162489
  21.2432668  35.0552314  24.4954948  20.7271717  34.2710770  24.3084876
  22.1272617  34.7271030  24.6601467  26.9114730  39.3257277  23.5902701
  27.6418118  39.0642565  24.1510405  26.3021675  38.5885999  23.6304769
  24.9930027  37.4665140  24.1877152  24.2663190  37.3321105  23.5793644
  24.5777314  37.7741968  24.9933870  12.8160203  41.1855069  31.9524525
  13.7363213  41.3633668  32.1464572  12.7809786  40.2411115  31.8004225
   5.8122276  39.0956104  24.5947307   6.0308285  40.0273212  24.6135340
   6.2248050  38.7364078  25.3802110  10.6850141  34.6689310  33.9850056
  10.5846868  35.6183667  33.9162147  10.4671683  34.3407549  33.1126126
  10.5481411  38.0986449  32.8015117  10.0648493  38.8986809  33.0079006
  10.6342350  38.1094393  31.8482561   6.4754749  41.9890983  24.8383551
   7.4298002  41.9574926  24.7713483   6.2767272  41.5281607  25.6533777
   7.0654131  40.5592099  27.4054349   7.8847020  41.0536178  27.4289186
   7.3390938  39.6424067  27.3771916  20.1735263  32.9749373  20.4836643
  20.9495653  33.4645825  20.7561260  19.4483397  33.4007427  20.9408513
  22.6107822  33.6876992  21.5410584  23.2052312  33.4472728  20.8303892
  22.6834405  32.9684122  22.1684120   4.8304977  47.5310603  21.8553749
   4.6959445  46.7711004  21.2891747   4.4137040  48.2551503  21.3882538
  24.9178894  36.9943193  20.3154005  24.3578452  37.0636382  21.0885567
  24.3122398  36.8184177  19.5953501   7.9874103  48.4279920  22.0672192
   7.8706487  49.3725352  21.9650882   7.1666549  48.1253481  22.4557991
   2.3189045  34.8930233  28.1046546   2.9647909  34.3829187  28.5933771
   2.1106196  35.6298915  28.6789971  14.8442437  41.9611081  33.6038686
  15.7133597  42.1351733  33.2425321  14.3649189  42.7805497  33.4814416
   9.0128617  49.0808182  25.2828120   9.9155864  49.1131792  25.5994615
   8.7865987  48.1508633  25.2974456  10.7682219  47.8339168  21.9438199
   9.8177850  47.8341030  21.8302571  11.0714706  47.0871903  21.4274233
   6.6586536  32.0397850  32.2021560   7.5217997  31.6834655  32.4124885
   6.0851947  31.7011745  32.8896964  26.5034913  53.6699707  23.0083961
  27.1413323  53.5506454  22.3047301  26.3855756  54.6180551  23.0671913
  23.3124619  53.6227135  22.9445486  22.9743131  53.5068199  22.0566021
  24.1814387  53.2218300  22.9246492  19.1711435  55.4762611  18.9342377
  18.6076300  55.3852548  18.1658664  19.0563830  54.6562516  19.4144869
  23.7944402  54.7761986  28.9031691  23.7833043  54.3814785  28.0312195
  23.9565042  54.0428059  29.4965463  16.7175867  56.9713803  21.7726597
  17.5097159  56.6304627  21.3572896  16.9572517  57.0808778  22.6928750
  24.7510994  59.1433579  14.2456842  24.0998973  59.7287659  13.8590855
  25.5455356  59.6739774  14.3051879  18.6766621  56.2322716  14.6443976
  19.4497497  55.6851703  14.5056852  19.0292020  57.0966965  14.8558437
  20.5151663  57.5599098  27.8510875  20.2241529  58.4644729  27.7357541
  21.1508648  57.6015626  28.5654945  21.4407870  54.9375947  24.4412235
  22.0371442  54.7131969  23.7269198  21.4982842  54.1960692  25.0437683
  21.0132899  52.3915382  12.2762426  21.2658419  51.8696903  11.5145889
  20.0757458  52.2281528  12.3789109  26.0576181  51.3951160  20.0837169
  26.8439271  50.9770584  19.7327586  26.3214886  52.2997253  20.2518817
  26.2286259  56.8324011  14.7825826  25.5932092  56.9058637  15.4946730
  25.8983665  57.4217610  14.1044905  31.4584608  51.3326394  20.9870148
  32.1909780  50.7625610  21.2207977  30.7023964  50.9447994  21.4276653
  20.7329187  54.2943488  14.4786801  20.6165445  53.6188391  15.1467885
  20.8431447  53.8075862  13.6618954  23.0760728  53.7553635  18.1833490
  22.7118935  53.2284256  18.8946411  23.9327844  53.3652104  18.0099975
  28.9810029  45.0447968  25.4464756  28.6493354  45.9143379  25.2225971
  28.3855642  44.7284252  26.1258787  22.7166215  48.7843535  13.1794838
  22.8840618  49.6523771  13.5465310  22.5263384  48.9470817  12.2556128
  25.4741548  57.2460514  24.8460669  25.1742271  58.1485553  24.7376476
  25.1292608  56.9792697  25.6981822  18.9254030  53.6974311  20.8797373
  18.0004526  53.5650525  21.0875065  19.1738443  54.4768530  21.3767316
  28.8738692  49.7643054  22.5258106  27.9655569  49.6958462  22.2316867
  28.8226288  50.2414999  23.3539932  22.6955436  51.2401192  14.1641505
  22.5755061  51.6858243  15.0026986  22.0008024  51.5886510  13.6055043
  16.2862841  53.3407584  21.7141162  16.4155222  53.5942063  22.6280574
  15.6060292  53.9335292  21.3945817  20.4562328  64.0104834  17.8131637
  20.3786358  64.9612659  17.8920117  19.8523972  63.6650707  18.4706563
  22.9479558  51.1832700  30.4693003  22.1712892  51.7426620  30.4595868
  23.5870121  51.6689482  30.9907874  30.7400339  47.9659492  24.3035980
  30.0974719  48.2592025  23.6575775  30.2355267  47.8512413  25.1089177
  28.3940502  51.7122666  14.9921839  29.3058358  51.9450052  14.8169537
  27.8850149  52.2959710  14.4296918  21.2025930  53.9918153  30.0310970
  21.9440615  54.5303197  29.7545794  20.4962916  54.6184442  30.1882522
  26.6781270  56.1347293  28.6283132  27.0864626  55.6929704  27.8837764
  25.9558531  55.5599921  28.8817325  23.0312340  51.0719900  26.0016689
  23.8773535  51.4959314  26.1451338  22.9710978  50.4153524  26.6955252
  27.0010085  56.6948484  22.3835421  26.3718947  56.8594198  21.6811489
  26.6135747  57.1090094  23.1546385  30.8799316  57.6302922  19.7379785
  30.1950355  58.0101823  19.1876818  30.9643166  58.2398248  20.4711732
  26.1811785  48.7324268  27.6597863  25.9372717  49.4866329  27.1232138
  26.4571716  49.1109616  28.4945110  28.1350248  55.2762881  26.3375128
  28.3467143  55.9194641  25.6609509  28.0879996  54.4425197  25.8697058
  25.7376477  47.8880701  23.2411700  24.8760956  48.1861955  23.5328438
  25.7638912  48.1051100  22.3092733  22.5538046  56.4322892  19.6485506
  23.0176392  56.7110595  18.8590128  22.2894844  55.5306337  19.4658597
  19.4462127  55.9794374  22.5865269  20.0163485  56.4081642  21.9482754
  20.0370239  55.6976958  23.2849455  21.4906932  52.5546044  16.4575071
  22.1930976  53.0067088  16.9248997  21.1587561  51.9129863  17.0854964
  19.9387294  51.1457801  30.8326280  19.3085955  51.8274082  31.0661677
  19.8323382  51.0340883  29.8879419  15.2332266  50.8129597  21.7592205
  14.4431320  51.0687126  21.2832315  15.7243514  51.6277935  21.8644245
  29.2496076  58.1534836  24.5097485  30.0713520  57.7515024  24.2280167
  29.2458479  58.0503070  25.4613601  17.1847012  51.1774176  18.7175681
  16.3878175  51.2892871  19.2359177  16.9572604  51.5160829  17.8516572
  23.0152679  57.7018880  26.6658196  23.0797112  58.1639287  27.5016368
  22.3063603  57.0716244  26.7940506  13.5169969  51.0660088  24.1907195
  13.7678008  51.9507097  24.4564771  14.0529518  50.8864689  23.4182287
  37.3402069  54.4973585  20.8582457  36.5865777  53.9280983  20.7026461
  37.4749610  54.4636249  21.8053092  22.7300697  59.3686987  16.5337176
  22.5946372  60.2138523  16.9622024  23.2710510  59.5706265  15.7703110
  19.2168037  45.4478567  33.1951531  18.8234982  44.8944765  33.8699176
  20.0334177  45.7589145  33.5858049  16.1830094  56.8862425  17.1065101
  16.6954615  57.6805675  17.2570666  16.8352807  56.1888716  17.0398703
  17.9924979  60.0028181  19.1887855  18.1691607  60.9246146  19.0008838
  18.7881813  59.6886601  19.6182234  22.1335998  46.8636446  30.7871788
  22.8745711  47.4643599  30.7076251  22.3653921  46.1214084  30.2289831
  17.2777336  52.0492813  29.0650018  17.1630851  51.1478070  29.3657117
  16.4221853  52.2956510  28.7134834  24.3569173  59.9910554  30.6637518
  23.9133028  59.2046932  30.3458423  25.0186387  60.1789704  29.9981409
  19.1156295  61.5206355  25.1898197  19.6663720  61.3923418  24.4175191
  18.2767771  61.8201244  24.8393090  26.4550411  60.2713353  28.6918920
  26.4368887  61.0922235  28.1999189  27.3770332  60.1467429  28.9169061
  22.9123466  57.7857483  29.5342428  23.4451802  57.0245771  29.3041736
  22.3837547  57.4931135  30.2766582  26.0793161  42.8917549  25.0636070
  25.7357430  43.7819191  24.9875180  26.4472123  42.7019207  24.2005655
  14.1479011  55.2151079  17.8824672  14.9854233  55.6248088  17.6658380
  14.3257279  54.2750522  17.8524866  26.0443443  52.8826160  13.5708505
  25.5290067  53.6530765  13.8096892  25.7720752  52.2091296  14.1941566
  23.6290554  47.7275861  18.6293743  22.7732151  47.3382711  18.4499382
  24.0417506  47.8067822  17.7693529  25.1589701  45.2622204  23.0285303
  24.6554497  45.2252339  22.2153108  25.4520308  46.1714947  23.0881960
  21.4032587  45.3460934  22.0351485  22.2685584  45.1503742  21.6757374
  21.4710096  45.1171286  22.9620841  31.0177717  55.6358515  15.5061678
  30.2407160  55.2969674  15.0616840  31.6969198  55.6411138  14.8316643
  25.8329747  50.7553252  15.3968286  25.5279882  51.0699401  16.2478429
  26.7860189  50.8334672  15.4395619  24.2776178  56.9143475  17.0461240
  23.7497540  56.1796235  16.7334477  23.7763681  57.6918152  16.8001208
  29.2569024  55.1092496  22.1628286  28.5992699  55.7991757  22.2508415
  30.0609424  55.4988928  22.5062273  19.0094906  47.5763142  19.4067852
  19.5838658  47.3538323  18.6741044  19.5965888  47.6451836  20.1596453
  28.0674483  53.4636869  20.2132228  28.5806365  54.0966860  20.7153938
  28.7175707  52.8638064  19.8475588  19.3364493  49.6067603  13.4263737
  18.5001805  49.9442289  13.7473012  19.1969263  49.4716583  12.4890874
  21.3117574  44.4504391  18.1342921  20.6581986  44.1353408  17.5099536
  21.2698048  43.8280131  18.8602744  22.4228779  54.7323686  10.0496213
  21.5155840  54.5012939  10.2487362  22.9199811  53.9361305  10.2370195
  25.3296857  63.4421193  12.9692899  24.6558556  63.7452890  13.5777857
  25.7162679  64.2450273  12.6198356  24.5455314  50.9386324  22.4590569
  23.6277875  51.1601271  22.3012257  24.9615458  51.0132635  21.6002276
  25.3290362  52.3377740  17.5893249  26.0762181  52.8499137  17.2800371
  25.5981951  52.0161793  18.4497642  23.6017012  54.8336281  14.5720203
  22.6928231  54.5495313  14.6692673  23.6312096  55.2535359  13.7123510
  28.8336279  58.4442870  18.3411371  28.3798606  57.6033780  18.3976561
  28.2030246  59.0804268  18.6786151  27.7769199  49.3734856  19.5712038
  27.0391956  48.8612242  19.9022281  28.0295972  48.9335238  18.7595315
  27.2769219  60.2819367  19.2761189  27.5692193  60.8424424  18.5573554
  27.7867839  60.5747928  20.0314348  27.8780826  42.1511108  20.1653807
  28.1839703  41.2908472  19.8779722  28.6033431  42.7428728  19.9652801
  14.1705182  52.5541795  18.5535405  13.9729582  51.9611155  17.8286472
  13.6151846  52.2494005  19.2711344  22.1501906  52.4464901  20.6729998
  22.2050516  51.4938738  20.5972475  21.3393108  52.6024340  21.1571297
  23.2993100  56.3745024  11.9108282  22.8612530  55.6580883  11.4513919
  24.0403541  56.6021139  11.3493373  20.0894266  51.0641961  18.4320377
  19.2762131  51.3636131  18.8385569  20.5853260  50.6697650  19.1494860
  22.2402844  61.0599718  20.3654642  22.1979023  61.2860564  19.4363174
  23.1565543  60.8263092  20.5140443  25.6868478  51.5283785  27.2635271
  26.0417865  51.7555259  28.1229737  26.3340609  51.8602162  26.6412527
  31.4166215  54.6502221  17.9684600  31.2784113  54.8403817  17.0405789
  31.0602433  55.4121604  18.4252651  19.5808341  48.6360316  24.0481612
  20.2207720  48.4949076  23.3504576  18.7485871  48.3494830  23.6720214
  31.4435594  56.7178748  22.9795872  31.8772101  56.6254037  23.8278926
  32.1567175  56.6936249  22.3415888  20.3568645  57.9362747  20.1616605
  21.1509243  57.4413067  19.9599180  19.6460337  57.4080610  19.7984310
  25.1763489  60.3180842  24.5128972  25.2300511  60.8871779  25.2806688
  24.3078270  60.4882727  24.1483010  16.6651408  52.0805829  16.2376357
  15.7348996  52.0190284  16.4546320  16.7608880  51.5581781  15.4412999
  16.5836957  48.6060641  18.8254599  16.8443774  49.5205975  18.7163760
  17.4054129  48.1385084  18.9751212  18.0561882  50.0198399  25.9953424
  18.7284936  49.8115761  25.3466073  17.2291669  49.8220485  25.5558656
  32.3051144  56.7602449  25.5128757  32.4987034  57.6648259  25.7588032
  32.2051762  56.3009868  26.3467342  23.9587454  46.6460340  28.0119085
  23.3115370  47.3450289  27.9183561  24.7288470  47.0796483  28.3795333
  27.3666252  56.9109192  31.0869638  27.2151759  56.6819743  30.1699721
  27.3570932  57.8679793  31.1000983  24.1351589  54.4841104  26.0715904
  25.0643649  54.6352264  25.8984872  23.7142619  54.5725125  25.2164551
  22.9339921  58.5091769  23.8414442  22.7951006  58.1410553  24.7140380
  22.1454517  59.0239408  23.6698400  23.5288073  63.6100865  15.1839978
  23.7039828  63.1388909  15.9985601  22.8420861  64.2366632  15.4121239
  24.4845136  57.8873372  21.2303280  24.1494968  57.8474142  22.1260930
  23.9849081  57.2218087  20.7573690  18.4589380  53.2941002  26.7555861
  18.3209178  52.5621240  27.3567400  19.3694303  53.2049902  26.4740049
  27.4204327  55.2329406  11.5040339  26.8033498  54.5076234  11.4073392
  26.9520816  55.9938766  11.1607414  21.0871680  53.0060961  26.2439540
  21.7971299  52.3654153  26.2026159  21.0440989  53.2573856  27.1665721
  29.0758459  59.9428314  29.1646120  29.0171005  59.2587534  28.4976703
  29.4777977  60.6847304  28.7126746  19.8000614  49.9926179  28.0635180
  19.2637971  49.5416917  28.7156776  19.2117323  50.1272088  27.3205644
  18.0949158  66.7590228  21.9579839  18.3345756  67.3908752  22.6358857
  17.2518354  66.4078268  22.2445198  29.0775866  57.9067898  27.3960099
  28.1902645  57.5693820  27.5186498  29.6474417  57.1750929  27.6328865
  10.7305013  54.2391990  20.7203151  11.4176053  53.9253720  20.1324166
  10.5753142  55.1433355  20.4470402  15.5339736  49.1282186  25.1488174
  15.4497924  48.5207856  24.4138584  14.7122442  49.6191205  25.1497671
  22.6077020  62.5669351  24.3621343  22.5347191  63.3724322  24.8740647
  22.1654413  62.7661316  23.5369364  22.3966799  61.8041121  17.8724164
  21.6134321  62.3462801  17.9662389  23.0959545  62.3215100  18.2718405
  25.7063449  47.6135750  20.5158369  26.2032149  46.8605712  20.1959440
  24.9350431  47.6500067  19.9501579  33.5593207  53.3176116  22.1576661
  33.5483083  54.2000831  21.7870594  32.6910586  52.9647666  21.9631198
  25.0675703  62.4656185  26.5179501  25.7803675  63.1003649  26.4455403
  24.5765732  62.5620051  25.7019503  26.7893230  56.3707437  18.0896793
  25.8549509  56.4908900  17.9201497  26.9669899  55.4679904  17.8256803
  22.2898418  49.7553133  20.2430054  21.9196206  49.2024173  20.9310960
  22.7857511  49.1511266  19.6905054  30.1765781  52.2124757  18.6246827
  30.6426234  53.0452748  18.5507130  30.6273282  51.7469738  19.3292085
  20.1187617  60.2150628  27.3385072  20.8197076  60.8487111  27.4914466
  19.6482732  60.5565360  26.5780711  28.2442013  58.5568578  15.6232979
  28.5201857  58.4425172  16.5326853  27.3746511  58.1586063  15.5845152
  28.1482444  44.5805343  22.6637728  27.2345524  44.8109570  22.8319935
  28.5775546  44.6643788  23.5151761  27.9188903  52.7695235  25.1637622
  27.2660353  53.0171143  24.5090075  28.2969283  51.9559374  24.8300100
  24.8796077  62.8054929  19.2665793  25.0618471  61.9876585  19.7293545
  25.7029063  63.0222621  18.8290683  25.2138242  61.7323114  16.5280841
  25.7426009  61.2215568  15.9151003  25.4766462  61.4165644  17.3926374
  23.9676476  53.5115047  31.6503659  23.2917113  53.4109176  32.3206035
  24.7904110  53.3554260  32.1139657  15.7155335  59.7486983  24.2716175
  16.3008772  59.0030671  24.4044079  15.5180173  60.0590940  25.1552839
  18.5693990  62.7838230  19.2878617  17.9004365  63.2684358  18.8042657
  18.4306860  63.0307451  20.2021996  10.3072990  52.3192583  22.9920618
  10.3457089  51.7856174  23.7857736   9.8013282  51.7927789  22.3731595
  22.7099259  64.8181974  25.8861275  23.2617567  64.9813595  26.6510361
  23.0505452  65.4086412  25.2141300  17.6863752  47.1657124  26.4883160
  17.7505078  48.0271955  26.0760558  17.6230872  46.5531125  25.7555519
  17.1616024  49.2380256  30.1356194  17.7888063  48.8557334  30.7493719
  16.3043943  49.0194458  30.5011887  27.5610133  59.6443231  31.7409930
  28.1050037  60.2573190  31.2464885  26.9796978  60.2022810  32.2576943
  13.9381567  51.0456685  16.0674549  14.2335008  50.1367364  16.0141603
  13.0369603  51.0244425  15.7455552  25.8467646  62.7663949  22.8724958
  25.7218785  61.9653689  22.3635903  26.5046737  63.2610143  22.3838928
  17.4675814  49.1212682  22.0502098  16.7462400  49.7348650  21.9109571
  18.2569070  49.6570447  21.9718744  27.9102554  60.5672970  24.5004508
  26.9632890  60.4478321  24.4282834  28.2585327  59.6795468  24.5830769
  20.2702128  46.4567108  28.3242750  20.7936529  46.7029405  29.0869059
  20.0514461  47.2887143  27.9045887  15.6669409  48.7270783  16.1913874
  15.3382115  47.8468162  16.0088980  16.0208779  48.6718452  17.0790264
  24.9148988  60.3625686  20.7008860  24.7673950  59.4342393  20.8816430
  25.7402481  60.3845777  20.2165935  18.7811232  49.0143753  16.5589352
  19.1207304  49.5429674  15.8367960  19.2283352  49.3524159  17.3347919
  28.5183109  61.1854245  21.7873733  29.4429657  60.9797106  21.6498184
  28.3498413  60.9370646  22.6963074  21.4754673  47.3980804  26.0092420
  21.1351493  46.5988617  26.4113100  20.7693679  47.6982514  25.4369253
  22.1271145  44.4830116  24.4619743  22.9497214  44.0090594  24.3398633
  22.3709208  45.2620600  24.9618429  20.7679379  47.5118374  14.7582645
  21.4887742  47.8899627  14.2546362  20.1444683  48.2307251  14.8617623
  24.9110502  48.2163523  15.6940977  25.1274116  49.0988161  15.3929805
  24.4304569  47.8249737  14.9646619  19.6509723  51.1749237  22.2711722
  19.5054304  51.4889540  23.1636003  19.1734927  51.7934137  21.7182620
  21.5106106  48.1651785  22.3192611  21.4967675  47.2692878  21.9824909
  22.2278534  48.1722448  22.9530897  23.3632237  48.5989125  24.3645739
  23.1050015  49.5206196  24.3630069  22.8317277  48.2019559  25.0546203
  28.3078426  61.7039912  17.1435824  28.4815303  61.1386334  16.3909677
  28.8007317  62.5040807  16.9615314  14.1255385  53.7154581  25.2099383
  13.5808854  54.4914389  25.3419657  15.0034735  54.0625386  25.0518504
  20.9143002  47.0466165  17.5880181  21.0358913  46.1182811  17.7871069
  20.6245044  47.0604851  16.6758497  23.7834192  44.7321075  20.7246901
  23.8055889  44.7960408  19.7698881  24.2002252  43.8925584  20.9187407
  34.1617817  54.4676335  18.7626124  34.6048963  53.7183660  18.3645247
  33.2844327  54.4586471  18.3799856  29.2953598  61.0206676  14.2432722
  29.9904503  61.6413369  14.4620037  29.6376748  60.1702028  14.5185100
  14.9121407  52.8424477  28.1029540  14.1703143  52.9907113  28.6894170
  14.5914152  53.1032743  27.2396289  31.1945021  58.4706382  15.7720053
  31.7196345  58.8093655  15.0469373  31.1067374  57.5353397  15.5883188
  22.8565070  62.3840456  27.9009930  23.1652196  62.1389602  28.7732629
  23.6540552  62.5887094  27.4128800  22.8785682  64.5378365  20.1315306
  22.4390672  64.0454744  20.8248163  23.6293799  63.9951333  19.8907382
  15.3578021  60.7289906  20.1339934  16.1836041  60.4293678  19.7538578
  15.0072073  59.9597528  20.5829723  20.3259554  60.0816374  22.2037608
  19.7039563  59.4187079  21.9039836  20.9964421  60.1077506  21.5211256
  13.5586626  58.6476233  21.0928868  12.7218534  58.2198407  20.9112869
  13.5310271  58.8408676  22.0299659  20.3984082  48.5598162  31.7970114
  20.4472237  49.4360285  31.4147884  20.9406596  48.0175555  31.2241757
  30.8838927  59.1039286  31.0771251  30.0934471  59.0863424  30.5375751
  30.6472282  59.6427579  31.8320288  31.0036802  55.9531752  28.3903980
  31.0534807  55.7881759  29.3319502  30.8950726  55.0859011  28.0001860
  19.8873061  58.6320298  15.6796069  20.0361181  59.3155762  15.0262741
  20.6939505  58.6125388  16.1945524  28.2940565  51.9362680  29.7063286
  29.1950428  51.7969145  29.4147284  28.3688539  52.1017135  30.6461464
  22.6283370  49.3129535  28.5516473  21.7586680  49.6063101  28.2799061
  22.8642850  49.8969980  29.2723736  32.5054999  58.3728693  28.6346001
  32.2139808  58.7358674  29.4709462  31.8927130  57.6595702  28.4559333
  33.7050682  55.9381573  21.1548571  34.5397573  56.3771377  21.3186132
  33.8409810  55.4620226  20.3356817  30.7542187  53.4961308  27.1026059
  31.2296309  53.6888954  26.2944911  29.8307753  53.5520494  26.8569443
  17.6425694  54.6585475  16.6857137  17.3971736  53.7547805  16.8837348
  17.8121609  54.6602626  15.7436615  25.3322404  45.5309152  26.0681893
  25.8504348  46.2670179  25.7428382  24.9777537  45.8373145  26.9028652
  16.9121342  50.3913833  14.1843299  16.2190587  50.4658188  13.5283335
  16.6673093  49.6274176  14.7064816  25.5834998  41.9509434  21.5882790
  25.8636752  41.2832623  22.2143216  26.3685605  42.1438530  21.0757454
  23.3868467  61.1268428  13.1507816  22.8142434  61.7458615  12.6978288
  23.9601260  61.6767790  13.6847738  29.4543856  50.3727068  25.3354365
  30.4061279  50.4725166  25.3566589  29.2847307  49.5805337  25.8452449
  27.4758236  47.4582651  25.5213766  26.8808168  47.7387664  24.8260254
  27.1907933  47.9476552  26.2930507  26.6065726  61.4105578  14.2816398
  27.5396400  61.3451140  14.4849274  26.5188939  62.2461845  13.8230931
  29.2353743  60.7271449  11.2420346  29.1567375  60.3931312  12.1356104
  30.0563410  61.2193216  11.2411818  31.9331934  53.5933188  24.4496664
  31.9008254  52.6549189  24.6356348  32.5432558  53.6717225  23.7162489
  23.7715265  52.4629241  10.4923868  24.7174370  52.3335449  10.5612287
  23.3929510  51.7243903  10.9693297  32.0826423  50.3844231  24.4954948
  31.5665471  49.6002688  24.3084876  32.9666371  50.0562948  24.6601467
  29.7437150  44.1285247  20.4550760  29.5461971  43.8200335  21.3394092
  30.3536855  44.8546886  20.5848690  37.7508484  54.6549195  23.5902701
  38.4811873  54.3934483  24.1510405  37.1415430  53.9177917  23.6304769
  35.8323781  52.7957057  24.1877152  35.1056945  52.6613022  23.5793644
  35.4171068  53.1033886  24.9933870  23.6553958  56.5146987  31.9524525
  24.5756967  56.6925586  32.1464572  23.6203541  55.5703032  31.8004225
  21.9558182  50.3879217  10.4278754  21.0489638  50.0912330  10.5041467
  22.2334163  50.0909035   9.5613040  12.8736123  51.7085581  20.8777800
  12.5538907  50.8550889  20.5852174  12.3269551  51.9234159  21.6335767
  16.6516030  54.4248022  24.5947307  16.8702040  55.3565129  24.6135340
  17.0641804  54.0655996  25.3802110  23.5720248  44.9316107  16.5822995
  22.7620976  44.5863192  16.9578241  24.2604665  44.6223651  17.1710607
  25.5010796  44.0094154  18.2047292  26.0541835  44.4289607  18.8637315
  25.7380883  43.0829902  18.2470248  21.5243895  49.9981227  33.9850056
  21.4240622  50.9475584  33.9162147  21.3065438  49.6699466  33.1126126
  12.7424383  55.3288492  22.8470922  12.0487854  54.9142445  22.3340876
  13.4897374  55.3709029  22.2504341  28.8789603  46.1194679  17.7125956
  28.2988272  46.7779483  17.3304008  28.6125536  45.2972023  17.3013373
  27.3293170  45.5199737  19.9147276  27.8292948  45.6316271  19.1061595
  27.9728778  45.2160789  20.5548085  21.3875166  53.4278366  32.8015117
  20.9042247  54.2278726  33.0079006  21.4736105  53.4386311  31.8482561
  14.6561125  55.2606746  20.7236937  14.6331813  55.3594433  19.7718820
  14.9661762  56.1071897  21.0454103  17.3148503  57.3182901  24.8383551
  18.2691757  57.2866843  24.7713483  17.1161027  56.8573525  25.6533777
  17.9047885  55.8884017  27.4054349  18.7240774  56.3828096  27.4289186
  18.1784693  54.9715985  27.3771916  27.6614481  48.2794769  16.7682304
  26.7740336  48.5644420  16.5502499  28.0768470  48.1188533  15.9209581
  31.0129018  48.3041290  20.4836643  31.7889408  48.7937743  20.7561260
  30.2877152  48.7299344  20.9408513  33.4501576  49.0168909  21.5410584
  34.0446067  48.7764645  20.8303892  33.5228160  48.2976040  22.1684120
  15.6698732  62.8602520  21.8553749  15.5353200  62.1002921  21.2891747
  15.2530794  63.5843420  21.3882538  26.8057695  58.0439444  10.8630324
  27.5093545  58.2489446  11.4787980  26.0820344  58.6116206  11.1279408
  27.6355505  53.7949305  16.9832594  27.5790707  54.2517857  16.1440227
  28.1883848  53.0339990  16.8055437  31.4460311  49.5839037  17.8082714
  31.1897245  49.1835673  18.6390922  30.8213179  50.2982831  17.6832853
  35.7572649  52.3235110  20.3154005  35.1972207  52.3928300  21.0885567
  35.1516152  52.1476095  19.5953501  18.8267858  63.7571837  22.0672192
  18.7100242  64.7017270  21.9650882  18.0060304  63.4545399  22.4557991
  28.7144392  58.4821973  12.9128784  29.5489996  58.0503172  12.7306259
  28.5528735  58.3103987  13.8405679  28.3690284  54.9854086  14.2785124
  28.3139088  54.8198358  13.3373568  27.7436340  55.6930119  14.4347313
  13.1582799  50.2222151  28.1046546  13.8041663  49.7121105  28.5933771
  12.9499951  50.9590832  28.6789971  25.6836192  57.2902998  33.6038686
  26.5527351  57.4643651  33.2425321  25.2042943  58.1097415  33.4814416
  21.6786410  44.4862195  13.8570442  21.6665080  45.4304035  14.0138713
  22.5709832  44.3032341  13.5629903  19.8522372  64.4100099  25.2828120
  20.7549619  64.4423710  25.5994615  19.6259742  63.4800550  25.2974456
  21.6075974  63.1631086  21.9438199  20.6571605  63.1632947  21.8302571
  21.9108460  62.4163820  21.4274233  25.4938529  41.0804972  18.1116379
  24.7270925  40.5263459  18.2573061  25.9049234  41.1526841  18.9730530
  17.4980290  47.3689768  32.2021560  18.3611752  47.0126573  32.4124885
  16.9245701  47.0303663  32.8896964  37.3428667  68.9991624  23.0083961
  37.9807077  68.8798372  22.3047301  37.2249510  69.9472468  23.0671913
  34.1518374  68.9519052  22.9445486  33.8136885  68.8360117  22.0566021
  35.0208142  68.5510217  22.9246492  30.0105189  70.8054529  18.9342377
  29.4470054  70.7144466  18.1658664  29.8957584  69.9854433  19.4144869
  34.6338157  70.1053904  28.9031691  34.6226797  69.7106702  28.0312195
  34.7958796  69.3719977  29.4965463  27.5569621  72.3005720  21.7726597
  28.3490913  71.9596545  21.3572896  27.7966271  72.4100695  22.6928750
  35.5904748  74.4725496  14.2456842  34.9392728  75.0579577  13.8590855
  36.3849111  75.0031691  14.3051879  29.5160375  71.5614634  14.6443976
  30.2891251  71.0143621  14.5056852  29.8685774  72.4258883  14.8558437
  31.3545418  72.8891016  27.8510875  31.0635284  73.7936647  27.7357541
  31.9902402  72.9307544  28.5654945  32.2801625  70.2667864  24.4412235
  32.8765197  70.0423887  23.7269198  32.3376596  69.5252610  25.0437683
  31.8526653  67.7207300  12.2762426  32.1052174  67.1988821  11.5145889
  30.9151212  67.5573445  12.3789109  36.8969936  66.7243078  20.0837169
  37.6833025  66.3062501  19.7327586  37.1608640  67.6289170  20.2518817
  37.0680013  72.1615928  14.7825826  36.4325846  72.2350555  15.4946730
  36.7377420  72.7509527  14.1044905  42.2978363  66.6618311  20.9870148
  43.0303535  66.0917528  21.2207977  41.5417719  66.2739912  21.4276653
  31.5722942  69.6235406  14.4786801  31.4559200  68.9480309  15.1467885
  31.6825202  69.1367780  13.6618954  33.9154483  69.0845553  18.1833490
  33.5512690  68.5576174  18.8946411  34.7721599  68.6944022  18.0099975
  39.8203783  60.3739885  25.4464756  39.4887108  61.2435296  25.2225971
  39.2249397  60.0576169  26.1258787  33.5559970  64.1135452  13.1794838
  33.7234372  64.9815689  13.5465310  33.3657139  64.2762734  12.2556128
  36.3135303  72.5752431  24.8460669  36.0136026  73.4777470  24.7376476
  35.9686362  72.3084615  25.6981822  29.7647784  69.0266228  20.8797373
  28.8398281  68.8942442  21.0875065  30.0132198  69.8060447  21.3767316
  39.7132447  65.0934972  22.5258106  38.8049324  65.0250380  22.2316867
  39.6620042  65.5706917  23.3539932  33.5349191  66.5693110  14.1641505
  33.4148816  67.0150161  15.0026986  32.8401779  66.9178428  13.6055043
  27.1256595  68.6699502  21.7141162  27.2548977  68.9233981  22.6280574
  26.4454047  69.2627210  21.3945817  31.2956083  79.3396752  17.8131637
  31.2180112  80.2904577  17.8920117  30.6917726  78.9942624  18.4706563
  33.7873312  66.5124617  30.4693003  33.0106646  67.0718537  30.4595868
  34.4263875  66.9981400  30.9907874  41.5794093  63.2951410  24.3035980
  40.9368473  63.5883943  23.6575775  41.0749022  63.1804330  25.1089177
  39.2334257  67.0414583  14.9921839  40.1452113  67.2741970  14.8169537
  38.7243904  67.6251627  14.4296918  32.0419685  69.3210071  30.0310970
  32.7834369  69.8595115  29.7545794  31.3356670  69.9476359  30.1882522
  37.5175024  71.4639211  28.6283132  37.9258380  71.0221622  27.8837764
  36.7952286  70.8891839  28.8817325  33.8706094  66.4011818  26.0016689
  34.7167290  66.8251231  26.1451338  33.8104732  65.7445442  26.6955252
  37.8403839  72.0240402  22.3835421  37.2112701  72.1886116  21.6811489
  37.4529501  72.4382011  23.1546385  41.7193071  72.9594839  19.7379785
  41.0344109  73.3393741  19.1876818  41.8036920  73.5690166  20.4711732
  37.0205540  64.0616186  27.6597863  36.7766472  64.8158247  27.1232138
  37.2965470  64.4401534  28.4945110  38.9744002  70.6054799  26.3375128
  39.1860898  71.2486558  25.6609509  38.9273751  69.7717115  25.8697058
  36.5770231  63.2172619  23.2411700  35.7154710  63.5153873  23.5328438
  36.6032666  63.4343018  22.3092733  33.3931801  71.7614810  19.6485506
  33.8570146  72.0402513  18.8590128  33.1288599  70.8598254  19.4658597
  30.2855882  71.3086291  22.5865269  30.8557239  71.7373560  21.9482754
  30.8763994  71.0268876  23.2849455  32.3300687  67.8837962  16.4575071
  33.0324730  68.3359006  16.9248997  31.9981315  67.2421781  17.0854964
  30.7781048  66.4749719  30.8326280  30.1479709  67.1566000  31.0661677
  30.6717136  66.3632800  29.8879419  26.0726021  66.1421515  21.7592205
  25.2825075  66.3979043  21.2832315  26.5637268  66.9569853  21.8644245
  40.0889830  73.4826754  24.5097485  40.9107274  73.0806941  24.2280167
  40.0852233  73.3794988  25.4613601  28.0240766  66.5066094  18.7175681
  27.2271930  66.6184788  19.2359177  27.7966358  66.8452746  17.8516572
  33.8546434  73.0310797  26.6658196  33.9190866  73.4931204  27.5016368
  33.1457358  72.4008162  26.7940506  24.3563724  66.3952005  24.1907195
  24.6071762  67.2799015  24.4564771  24.8923272  66.2156607  23.4182287
  48.1795823  69.8265502  20.8582457  47.4259532  69.2572900  20.7026461
  48.3143365  69.7928167  21.8053092  33.5694452  74.6978905  16.5337176
  33.4340126  75.5430440  16.9622024  34.1104264  74.8998182  15.7703110
  30.0561791  60.7770485  33.1951531  29.6628737  60.2236683  33.8699176
  30.8727932  61.0881063  33.5858049  27.0223849  72.2154343  17.1065101
  27.5348370  73.0097593  17.2570666  27.6746562  71.5180633  17.0398703
  28.8318734  75.3320099  19.1887855  29.0085362  76.2538064  19.0008838
  29.6275567  75.0178518  19.6182234  32.9729752  62.1928364  30.7871788
  33.7139466  62.7935517  30.7076251  33.2047675  61.4506001  30.2289831
  28.1171090  67.3784731  29.0650018  28.0024605  66.4769988  29.3657117
  27.2615608  67.6248428  28.7134834  35.1962928  75.3202471  30.6637518
  34.7526782  74.5338850  30.3458423  35.8580142  75.5081622  29.9981409
  29.9550049  76.8498273  25.1898197  30.5057474  76.7215336  24.4175191
  29.1161525  77.1493162  24.8393090  37.2944166  75.6005271  28.6918920
  37.2762641  76.4214152  28.1999189  38.2164086  75.4759346  28.9169061
  33.7517220  73.1149401  29.5342428  34.2845557  72.3537689  29.3041736
  33.2231301  72.8223052  30.2766582  36.9186915  58.2209467  25.0636070
  36.5751185  59.1111108  24.9875180  37.2865878  58.0311124  24.2005655
  24.9872766  70.5442997  17.8824672  25.8247988  70.9540005  17.6658380
  25.1651033  69.6042439  17.8524866  36.8837198  68.2118078  13.5708505
  36.3683821  68.9822682  13.8096892  36.6114506  67.5383214  14.1941566
  34.4684309  63.0567778  18.6293743  33.6125905  62.6674629  18.4499382
  34.8811261  63.1359739  17.7693529  35.9983455  60.5914122  23.0285303
  35.4948251  60.5544257  22.2153108  36.2914062  61.5006864  23.0881960
  32.2426341  60.6752851  22.0351485  33.1079338  60.4795660  21.6757374
  32.3103850  60.4463203  22.9620841  41.8571472  70.9650432  15.5061678
  41.0800915  70.6261592  15.0616840  42.5362953  70.9703056  14.8316643
  36.6723501  66.0845170  15.3968286  36.3673637  66.3991319  16.2478429
  37.6253943  66.1626590  15.4395619  35.1169933  72.2435393  17.0461240
  34.5891294  71.5088153  16.7334477  34.6157436  73.0210069  16.8001208
  40.0962779  70.4384414  22.1628286  39.4386453  71.1283675  22.2508415
  40.9003178  70.8280846  22.5062273  29.8488660  62.9055059  19.4067852
  30.4232412  62.6830241  18.6741044  30.4359643  62.9743754  20.1596453
  38.9068238  68.7928786  20.2132228  39.4200119  69.4258778  20.7153938
  39.5569462  68.1929982  19.8475588  30.1758248  64.9359520  13.4263737
  29.3395560  65.2734207  13.7473012  30.0363017  64.8008500  12.4890874
  32.1511328  59.7796308  18.1342921  31.4975741  59.4645325  17.5099536
  32.1091802  59.1572049  18.8602744  33.2622533  70.0615603  10.0496213
  32.3549595  69.8304857  10.2487362  33.7593565  69.2653223  10.2370195
  36.1690612  78.7713111  12.9692899  35.4952311  79.0744807  13.5777857
  36.5556434  79.5742191  12.6198356  35.3849069  66.2678242  22.4590569
  34.4671630  66.4893189  22.3012257  35.8009212  66.3424552  21.6002276
  36.1684116  67.6669658  17.5893249  36.9155935  68.1791055  17.2800371
  36.4375706  67.3453710  18.4497642  34.4410766  70.1628198  14.5720203
  33.5321986  69.8787231  14.6692673  34.4705850  70.5827277  13.7123510
  39.6730034  73.7734788  18.3411371  39.2192361  72.9325698  18.3976561
  39.0424001  74.4096186  18.6786151  38.6162953  64.7026774  19.5712038
  37.8785710  64.1904160  19.9022281  38.8689727  64.2627155  18.7595315
  38.1162973  75.6111284  19.2761189  38.4085947  76.1716342  18.5573554
  38.6261594  75.9039845  20.0314348  38.7174581  57.4803026  20.1653807
  39.0233458  56.6200389  19.8779722  39.4427186  58.0720646  19.9652801
  25.0098937  67.8833712  18.5535405  24.8123337  67.2903073  17.8286472
  24.4545601  67.5785923  19.2711344  32.9895661  67.7756819  20.6729998
  33.0444270  66.8230655  20.5972475  32.1786863  67.9316258  21.1571297
  34.1386854  71.7036942  11.9108282  33.7006284  70.9872801  11.4513919
  34.8797295  71.9313057  11.3493373  30.9288020  66.3933879  18.4320377
  30.1155886  66.6928049  18.8385569  31.4247015  65.9989567  19.1494860
  33.0796598  76.3891636  20.3654642  33.0372777  76.6152482  19.4363174
  33.9959297  76.1555010  20.5140443  36.5262232  66.8575703  27.2635271
  36.8811620  67.0847176  28.1229737  37.1734363  67.1894080  26.6412527
  42.2559969  69.9794139  17.9684600  42.1177868  70.1695735  17.0405789
  41.8996188  70.7413522  18.4252651  30.4202095  63.9652234  24.0481612
  31.0601475  63.8240993  23.3504576  29.5879626  63.6786748  23.6720214
  42.2829349  72.0470666  22.9795872  42.7165855  71.9545955  23.8278926
  42.9960929  72.0228166  22.3415888  31.1962399  73.2654665  20.1616605
  31.9902998  72.7704985  19.9599180  30.4854091  72.7372528  19.7984310
  36.0157244  75.6472760  24.5128972  36.0694266  76.2163696  25.2806688
  35.1472025  75.8174645  24.1483010  27.5045163  67.4097746  16.2376357
  26.5742751  67.3482202  16.4546320  27.6002635  66.8873699  15.4412999
  27.4230712  63.9352559  18.8254599  27.6837529  64.8497892  18.7163760
  28.2447884  63.4677002  18.9751212  28.8955637  65.3490316  25.9953424
  29.5678690  65.1407678  25.3466073  28.0685423  65.1512402  25.5558656
  43.1444898  72.0894367  25.5128757  43.3380788  72.9940177  25.7588032
  43.0445516  71.6301786  26.3467342  34.7981209  61.9752257  28.0119085
  34.1509124  62.6742207  27.9183561  35.5682224  62.4088401  28.3795333
  38.2060007  72.2401109  31.0869638  38.0545513  72.0111661  30.1699721
  38.1964686  73.1971711  31.1000983  34.9745343  69.8133022  26.0715904
  35.9037403  69.9644182  25.8984872  34.5536373  69.9017043  25.2164551
  33.7733675  73.8383687  23.8414442  33.6344761  73.4702471  24.7140380
  32.9848271  74.3531326  23.6698400  34.3681827  78.9392783  15.1839978
  34.5433583  78.4680826  15.9985601  33.6814615  79.5658549  15.4121239
  35.3238890  73.2165289  21.2303280  34.9888723  73.1766059  22.1260930
  34.8242836  72.5510005  20.7573690  29.2983134  68.6232919  26.7555861
  29.1602932  67.8913158  27.3567400  30.2088058  68.5341819  26.4740049
  38.2598082  70.5621324  11.5040339  37.6427253  69.8368152  11.4073392
  37.7914570  71.3230684  11.1607414  31.9265435  68.3352879  26.2439540
  32.6365053  67.6946071  26.2026159  31.8834743  68.5865773  27.1665721
  39.9152214  75.2720232  29.1646120  39.8564760  74.5879452  28.4976703
  40.3171732  76.0139222  28.7126746  30.6394369  65.3218096  28.0635180
  30.1031726  64.8708835  28.7156776  30.0511077  65.4564005  27.3205644
  28.9342912  82.0882146  21.9579839  29.1739511  82.7200670  22.6358857
  28.0912109  81.7370186  22.2445198  30.0496628  64.7806748  10.6261644
  29.1726094  64.6595549  10.2623890  30.5254381  63.9892826  10.3740532
  39.9169621  73.2359816  27.3960099  39.0296400  72.8985738  27.5186498
  40.4868172  72.5042847  27.6328865  21.5698768  69.5683908  20.7203151
  22.2569808  69.2545638  20.1324166  21.4146897  70.4725272  20.4470402
  26.3733490  64.4574104  25.1488174  26.2891679  63.8499774  24.4138584
  25.5516196  64.9483122  25.1497671  33.4470774  77.8961268  24.3621343
  33.3740946  78.7016240  24.8740647  33.0048167  78.0953234  23.5369364
  33.2360554  77.1333038  17.8724164  32.4528076  77.6754718  17.9662389
  33.9353299  77.6507018  18.2718405  36.5457204  62.9427668  20.5158369
  37.0425903  62.1897630  20.1959440  35.7744185  62.9791984  19.9501579
  44.3986961  68.6468033  22.1576661  44.3876838  69.5292749  21.7870594
  43.5304341  68.2939584  21.9631198  35.9069458  77.7948102  26.5179501
  36.6197430  78.4295567  26.4455403  35.4159486  77.8911968  25.7019503
  37.6286985  71.6999355  18.0896793  36.6943263  71.8200817  17.9201497
  37.8063653  70.7971822  17.8256803  33.1292173  65.0845051  20.2430054
  32.7589960  64.5316091  20.9310960  33.6251265  64.4803184  19.6905054
  41.0159536  67.5416674  18.6246827  41.4819988  68.3744666  18.5507130
  41.4667036  67.0761656  19.3292085  30.9581371  75.5442546  27.3385072
  31.6590831  76.1779029  27.4914466  30.4876486  75.8857277  26.5780711
  39.0835767  73.8860495  15.6232979  39.3595611  73.7717090  16.5326853
  38.2140266  73.4877980  15.5845152  38.9876199  59.9097261  22.6637728
  38.0739279  60.1401488  22.8319935  39.4169300  59.9935705  23.5151761
  38.7582657  68.0987153  25.1637622  38.1054107  68.3463061  24.5090075
  39.1363037  67.2851291  24.8300100  35.7189831  78.1346846  19.2665793
  35.9012226  77.3168502  19.7293545  36.5422817  78.3514539  18.8290683
  36.0531997  77.0615031  16.5280841  36.5819763  76.5507486  15.9151003
  36.3160216  76.7457562  17.3926374  34.8070230  68.8406964  31.6503659
  34.1310867  68.7401094  32.3206035  35.6297864  68.6846178  32.1139657
  26.5549089  75.0778901  24.2716175  27.1402526  74.3322589  24.4044079
  26.3573928  75.3882857  25.1552839  29.4087745  78.1130148  19.2878617
  28.7398120  78.5976276  18.8042657  29.2700614  78.3599369  20.2021996
  21.1466744  67.6484501  22.9920618  21.1850844  67.1148092  23.7857736
  20.6407037  67.1219706  22.3731595  33.5493013  80.1473892  25.8861275
  34.1011321  80.3105513  26.6510361  33.8899207  80.7378329  25.2141300
  28.5257506  62.4949041  26.4883160  28.5898833  63.3563872  26.0760558
  28.4624627  61.8823043  25.7555519  28.0009779  64.5672174  30.1356194
  28.6281818  64.1849251  30.7493719  27.1437698  64.3486376  30.5011887
  38.4003887  74.9735149  31.7409930  38.9443791  75.5865107  31.2464885
  37.8190732  75.5314728  32.2576943  24.7775322  66.3748603  16.0674549
  25.0728763  65.4659282  16.0141603  23.8763357  66.3536343  15.7455552
  36.6861400  78.0955867  22.8724958  36.5612540  77.2945607  22.3635903
  37.3440492  78.5902061  22.3838928  28.3069569  64.4504600  22.0502098
  27.5856154  65.0640567  21.9109571  29.0962824  64.9862364  21.9718744
  38.7496309  75.8964887  24.5004508  37.8026644  75.7770238  24.4282834
  39.0979082  75.0087385  24.5830769  31.1095882  61.7859026  28.3242750
  31.6330284  62.0321323  29.0869059  30.8908215  62.6179061  27.9045887
  26.5063163  64.0562701  16.1913874  26.1775869  63.1760080  16.0088980
  26.8602534  64.0010369  17.0790264  35.7542742  75.6917603  20.7008860
  35.6067705  74.7634311  20.8816430  36.5796236  75.7137694  20.2165935
  29.6204986  64.3435671  16.5589352  29.9601059  64.8721592  15.8367960
  30.0677107  64.6816077  17.3347919  39.3576864  76.5146162  21.7873733
  40.2823411  76.3089024  21.6498184  39.1892167  76.2662563  22.6963074
  32.3148427  62.7272721  26.0092420  31.9745248  61.9280534  26.4113100
  31.6087433  63.0274432  25.4369253  32.9664899  59.8122034  24.4619743
  33.7890968  59.3382512  24.3398633  33.2102963  60.5912517  24.9618429
  31.6073134  62.8410292  14.7582645  32.3281496  63.2191545  14.2546362
  30.9838438  63.5599169  14.8617623  35.7504256  63.5455441  15.6940977
  35.9667871  64.4280079  15.3929805  35.2698324  63.1541655  14.9646619
  30.4903478  66.5041154  22.2711722  30.3448059  66.8181457  23.1636003
  30.0128681  67.1226055  21.7182620  32.3499861  63.4943702  22.3192611
  32.3361429  62.5984796  21.9824909  33.0672289  63.5014366  22.9530897
  34.2025991  63.9281043  24.3645739  33.9443769  64.8498113  24.3630069
  33.6711032  63.5311477  25.0546203  39.1472180  77.0331830  17.1435824
  39.3209058  76.4678252  16.3909677  39.6401071  77.8332725  16.9615314
  24.9649140  69.0446499  25.2099383  24.4202608  69.8206307  25.3419657
  25.8428490  69.3917303  25.0518504  31.7536757  62.3758083  17.5880181
  31.8752668  61.4474729  17.7871069  31.4638799  62.3896769  16.6758497
  34.6227947  60.0612993  20.7246901  34.6449644  60.1252326  19.7698881
  35.0396006  59.2217502  20.9187407  45.0011571  69.7968253  18.7626124
  45.4442717  69.0475578  18.3645247  44.1238082  69.7878389  18.3799856
  40.1347353  76.3498594  14.2432722  40.8298257  76.9705287  14.4620037
  40.4770503  75.4993945  14.5185100  25.7515162  68.1716395  28.1029540
  25.0096898  68.3199030  28.6894170  25.4307906  68.4324661  27.2396289
  42.0338776  73.7998300  15.7720053  42.5590100  74.1385572  15.0469373
  41.9461128  72.8645315  15.5883188  33.6958824  77.7132373  27.9009930
  34.0045951  77.4681520  28.7732629  34.4934306  77.9179012  27.4128800
  33.7179436  79.8670283  20.1315306  33.2784427  79.3746662  20.8248163
  34.4687553  79.3243251  19.8907382  26.1971775  76.0581824  20.1339934
  27.0229795  75.7585596  19.7538578  25.8465827  75.2889446  20.5829723
  31.1653309  75.4108292  22.2037608  30.5433318  74.7478997  21.9039836
  31.8358176  75.4369424  21.5211256  24.3980381  73.9768150  21.0928868
  23.5612289  73.5490325  20.9112869  24.3704026  74.1700594  22.0299659
  31.2377836  63.8890080  31.7970114  31.2865992  64.7652203  31.4147884
  31.7800350  63.3467473  31.2241757  41.7232682  74.4331203  31.0771251
  40.9328226  74.4155342  30.5375751  41.4866036  74.9719497  31.8320288
  41.8430557  71.2823670  28.3903980  41.8928562  71.1173677  29.3319502
  41.7344480  70.4150929  28.0001860  30.7266816  73.9612215  15.6796069
  30.8754936  74.6447680  15.0262741  31.5333259  73.9417305  16.1945524
  39.1334319  67.2654598  29.7063286  40.0344182  67.1261062  29.4147284
  39.2082294  67.4309052  30.6461464  33.4677125  64.6421452  28.5516473
  32.5980434  64.9355018  28.2799061  33.7036605  65.2261897  29.2723736
  43.3448754  73.7020611  28.6346001  43.0533562  74.0650592  29.4709462
  42.7320885  72.9887619  28.4559333  44.5444436  71.2673491  21.1548571
  45.3791327  71.7063295  21.3186132  44.6803565  70.7912144  20.3356817
  41.5935942  68.8253226  27.1026059  42.0690064  69.0180872  26.2944911
  40.6701507  68.8812412  26.8569443  28.4819449  69.9877393  16.6857137
  28.2365490  69.0839723  16.8837348  28.6515363  69.9894543  15.7436615
  36.1716158  60.8601069  26.0681893  36.6898102  61.5962096  25.7428382
  35.8171291  61.1665063  26.9028652  27.7515096  65.7205751  14.1843299
  27.0584341  65.7950105  13.5283335  27.5066848  64.9566094  14.7064816
  36.4228753  57.2801352  21.5882790  36.7030506  56.6124541  22.2143216
  37.2079360  57.4730447  21.0757454  34.2262221  76.4560346  13.1507816
  33.6536188  77.0750533  12.6978288  34.7995015  77.0059707  13.6847738
  40.2937611  65.7018986  25.3354365  41.2455034  65.8017084  25.3566589
  40.1241061  64.9097254  25.8452449  38.3151990  62.7874569  25.5213766
  37.7201923  63.0679582  24.8260254  38.0301687  63.2768470  26.2930507
  37.4459481  76.7397496  14.2816398  38.3790154  76.6743058  14.4849274
  37.3582694  77.5753763  13.8230931  40.0747498  76.0563366  11.2420346
  39.9961129  75.7223230  12.1356104  40.8957164  76.5485134  11.2411818
  42.7725689  68.9225106  24.4496664  42.7402009  67.9841106  24.6356348
  43.3826312  69.0009142  23.7162489  34.6109020  67.7921159  10.4923868
  35.5568124  67.6627367  10.5612287  34.2323265  67.0535820  10.9693297
  42.9220177  65.7136149  24.4954948  42.4059226  64.9294606  24.3084876
  43.8060126  65.3854866  24.6601467  40.5830904  59.4577165  20.4550760
  40.3855725  59.1492253  21.3394092  41.1930610  60.1838803  20.5848690
  48.5902239  69.9841112  23.5902701  49.3205627  69.7226400  24.1510405
  47.9809184  69.2469834  23.6304769  46.6717536  68.1248975  24.1877152
  45.9450699  67.9904940  23.5793644  46.2564823  68.4325804  24.9933870
  34.4947712  71.8438905  31.9524525  35.4150722  72.0217504  32.1464572
  34.4597295  70.8994950  31.8004225  32.7951937  65.7171135  10.4278754
  31.8883392  65.4204248  10.5041467  33.0727918  65.4200953   9.5613040
  23.7129877  67.0377498  20.8777800  23.3932661  66.1842806  20.5852174
  23.1663305  67.2526076  21.6335767  27.4909785  69.7539939  24.5947307
  27.7095794  70.6857047  24.6135340  27.9035558  69.3947914  25.3802110
  34.4114002  60.2608025  16.5822995  33.6014731  59.9155110  16.9578241
  35.0998419  59.9515568  17.1710607  36.3404551  59.3386071  18.2047292
  36.8935589  59.7581525  18.8637315  36.5774637  58.4121820  18.2470248
  32.3637650  65.3273145  33.9850056  32.2634377  66.2767502  33.9162147
  32.1459192  64.9991384  33.1126126  31.5650721  62.5758070  10.5690733
  32.4269885  62.9012968  10.8286550  31.7501066  61.7889566  10.0563799
  23.5818137  70.6580410  22.8470922  22.8881609  70.2434363  22.3340876
  24.3291128  70.7000946  22.2504341  39.7183358  61.4486597  17.7125956
  39.1382027  62.1071401  17.3304008  39.4519291  60.6263941  17.3013373
  38.1686924  60.8491654  19.9147276  38.6686703  60.9608189  19.1061595
  38.8122532  60.5452707  20.5548085  32.2268920  68.7570284  32.8015117
  31.7436002  69.5570644  33.0079006  32.3129859  68.7678229  31.8482561
  25.4954880  70.5898664  20.7236937  25.4725568  70.6886351  19.7718820
  25.8055516  71.4363814  21.0454103  28.1542258  72.6474819  24.8383551
  29.1085511  72.6158761  24.7713483  27.9554781  72.1865442  25.6533777
  28.7441640  71.2175935  27.4054349  29.5634529  71.7120013  27.4289186
  29.0178447  70.3007903  27.3771916  38.5008236  63.6086687  16.7682304
  37.6134091  63.8936338  16.5502499  38.9162225  63.4480450  15.9209581
  41.8522772  63.6333208  20.4836643  42.6283162  64.1229660  20.7561260
  41.1270906  64.0591262  20.9408513  44.2895331  64.3460827  21.5410584
  44.8839821  64.1056563  20.8303892  44.3621914  63.6267958  22.1684120
  26.5092486  78.1894438  21.8553749  26.3746954  77.4294839  21.2891747
  26.0924549  78.9135338  21.3882538  37.6451449  73.3731362  10.8630324
  38.3487299  73.5781364  11.4787980  36.9214098  73.9408124  11.1279408
  38.4749260  69.1241223  16.9832594  38.4184461  69.5809774  16.1440227
  39.0277602  68.3631907  16.8055437  42.2854066  64.9130955  17.8082714
  42.0291000  64.5127590  18.6390922  41.6606934  65.6274749  17.6832853
  46.5966403  67.6527028  20.3154005  46.0365961  67.7220217  21.0885567
  45.9909907  67.4768013  19.5953501  29.6661612  79.0863755  22.0672192
  29.5493996  80.0309188  21.9650882  28.8454058  78.7837317  22.4557991
  39.5538147  73.8113891  12.9128784  40.3883751  73.3795089  12.7306259
  39.3922490  73.6395905  13.8405679  39.2084039  70.3146004  14.2785124
  39.1532843  70.1490276  13.3373568  38.5830094  71.0222037  14.4347313
  23.9976554  65.5514069  28.1046546  24.6435418  65.0413022  28.5933771
  23.7893705  66.2882750  28.6789971  36.5229946  72.6194916  33.6038686
  37.3921106  72.7935568  33.2425321  36.0436698  73.4389333  33.4814416
  32.5180164  59.8154113  13.8570442  32.5058834  60.7595953  14.0138713
  33.4103586  59.6324259  13.5629903  30.6916126  79.7392017  25.2828120
  31.5943373  79.7715627  25.5994615  30.4653496  78.8092468  25.2974456
  32.4469728  78.4923004  21.9438199  31.4965359  78.4924865  21.8302571
  32.7502214  77.7455738  21.4274233  36.3332284  56.4096890  18.1116379
  35.5664680  55.8555376  18.2573061  36.7442989  56.4818759  18.9730530
  28.3374045  62.6981686  32.2021560  29.2005506  62.3418490  32.4124885
  27.7639456  62.3595580  32.8896964  48.1822422  84.3283542  23.0083961
  48.8200832  84.2090289  22.3047301  48.0643265  85.2764386  23.0671913
  44.9912128  84.2810970  22.9445486  44.6530640  84.1652035  22.0566021
  45.8601896  83.8802135  22.9246492  40.8498944  86.1346446  18.9342377
  40.2863809  86.0436383  18.1658664  40.7351339  85.3146351  19.4144869
  45.4731911  85.4345822  28.9031691  45.4620552  85.0398620  28.0312195
  45.6352551  84.7011894  29.4965463  38.3963376  87.6297638  21.7726597
  39.1884668  87.2888463  21.3572896  38.6360026  87.7392613  22.6928750
  46.4298503  89.8017414  14.2456842  45.7786482  90.3871495  13.8590855
  47.2242865  90.3323609  14.3051879  40.3554130  86.8906551  14.6443976
  41.1285006  86.3435538  14.5056852  40.7079529  87.7550801  14.8558437
  42.1939172  88.2182934  27.8510875  41.9029038  89.1228564  27.7357541
  42.8296157  88.2599461  28.5654945  43.1195379  85.5959782  24.4412235
  43.7158951  85.3715804  23.7269198  43.1770351  84.8544528  25.0437683
  42.6920407  83.0499217  12.2762426  42.9445928  82.5280739  11.5145889
  41.7544967  82.8865363  12.3789109  47.7363690  82.0534996  20.0837169
  48.5226780  81.6354419  19.7327586  48.0002395  82.9581088  20.2518817
  47.9073768  87.4907846  14.7825826  47.2719601  87.5642473  15.4946730
  47.5771174  88.0801445  14.1044905  53.1372117  81.9910229  20.9870148
  53.8697289  81.4209446  21.2207977  52.3811473  81.6031829  21.4276653
  42.4116696  84.9527323  14.4786801  42.2952954  84.2772227  15.1467885
  42.5218956  84.4659697  13.6618954  44.7548237  84.4137470  18.1833490
  44.3906444  83.8868091  18.8946411  45.6115353  84.0235940  18.0099975
  50.6597538  75.7031803  25.4464756  50.3280863  76.5727214  25.2225971
  50.0643151  75.3868087  26.1258787  44.3953724  79.4427370  13.1794838
  44.5628126  80.3107607  13.5465310  44.2050893  79.6054652  12.2556128
  47.1529057  87.9044349  24.8460669  46.8529780  88.8069388  24.7376476
  46.8080117  87.6376532  25.6981822  40.6041539  84.3558146  20.8797373
  39.6792035  84.2234360  21.0875065  40.8525952  85.1352365  21.3767316
  50.5526201  80.4226889  22.5258106  49.6443078  80.3542298  22.2316867
  50.5013797  80.8998834  23.3539932  44.3742945  81.8985028  14.1641505
  44.2542570  82.3442078  15.0026986  43.6795533  82.2470345  13.6055043
  37.9650350  83.9991419  21.7141162  38.0942731  84.2525898  22.6280574
  37.2847801  84.5919127  21.3945817  42.1349837  94.6688669  17.8131637
  42.0573867  95.6196495  17.8920117  41.5311481  94.3234542  18.4706563
  44.6267067  81.8416535  30.4693003  43.8500401  82.4010455  30.4595868
  45.2657630  82.3273318  30.9907874  52.4187848  78.6243328  24.3035980
  51.7762228  78.9175861  23.6575775  51.9142776  78.5096248  25.1089177
  50.0728011  82.3706501  14.9921839  50.9845867  82.6033888  14.8169537
  49.5637658  82.9543545  14.4296918  42.8813439  84.6501988  30.0310970
  43.6228124  85.1887032  29.7545794  42.1750425  85.2768277  30.1882522
  48.3568779  86.7931129  28.6283132  48.7652135  86.3513539  27.8837764
  47.6346040  86.2183756  28.8817325  44.7099849  81.7303735  26.0016689
  45.5561044  82.1543149  26.1451338  44.6498487  81.0737360  26.6955252
  48.6797593  87.3532319  22.3835421  48.0506456  87.5178033  21.6811489
  48.2923256  87.7673929  23.1546385  52.5586825  88.2886757  19.7379785
  51.8737864  88.6685659  19.1876818  52.6430675  88.8982084  20.4711732
  47.8599294  79.3908104  27.6597863  47.6160226  80.1450164  27.1232138
  48.1359225  79.7693451  28.4945110  49.8137757  85.9346716  26.3375128
  50.0254652  86.5778476  25.6609509  49.7667505  85.1009033  25.8697058
  47.4163986  78.5464537  23.2411700  46.5548465  78.8445790  23.5328438
  47.4426421  78.7634936  22.3092733  44.2325555  87.0906727  19.6485506
  44.6963901  87.3694430  18.8590128  43.9682353  86.1890172  19.4658597
  41.1249636  86.6378209  22.5865269  41.6950993  87.0665477  21.9482754
  41.7157748  86.3560794  23.2849455  43.1694441  83.2129880  16.4575071
  43.8718485  83.6650923  16.9248997  42.8375070  82.5713699  17.0854964
  41.6174803  81.8041636  30.8326280  40.9873464  82.4857917  31.0661677
  41.5110891  81.6924718  29.8879419  36.9119775  81.4713432  21.7592205
  36.1218829  81.7270961  21.2832315  37.4031023  82.2861770  21.8644245
  50.9283585  88.8118672  24.5097485  51.7501029  88.4098859  24.2280167
  50.9245988  88.7086906  25.4613601  38.8634521  81.8358012  18.7175681
  38.0665684  81.9476706  19.2359177  38.6360113  82.1744664  17.8516572
  44.6940188  88.3602715  26.6658196  44.7584621  88.8223122  27.5016368
  43.9851112  87.7300080  26.7940506  35.1957478  81.7243923  24.1907195
  35.4465517  82.6090933  24.4564771  35.7317027  81.5448524  23.4182287
  59.0189578  85.1557420  20.8582457  58.2653286  84.5864818  20.7026461
  59.1537119  85.1220085  21.8053092  44.4088206  90.0270822  16.5337176
  44.2733881  90.8722358  16.9622024  44.9498019  90.2290100  15.7703110
  40.8955546  76.1062402  33.1951531  40.5022491  75.5528601  33.8699176
  41.7121686  76.4172981  33.5858049  37.8617603  87.5446260  17.1065101
  38.3742124  88.3389511  17.2570666  38.5140316  86.8472551  17.0398703
  39.6712488  90.6612017  19.1887855  39.8479116  91.5829981  19.0008838
  40.4669322  90.3470436  19.6182234  43.8123507  77.5220281  30.7871788
  44.5533220  78.1227434  30.7076251  44.0441429  76.7797919  30.2289831
  38.9564845  82.7076649  29.0650018  38.8418360  81.8061906  29.3657117
  38.1009362  82.9540345  28.7134834  46.0356682  90.6494389  30.6637518
  45.5920537  89.8630767  30.3458423  46.6973896  90.8373539  29.9981409
  40.7943804  92.1790190  25.1898197  41.3451229  92.0507254  24.4175191
  39.9555279  92.4785080  24.8393090  48.1337920  90.9297189  28.6918920
  48.1156396  91.7506070  28.1999189  49.0557841  90.8051264  28.9169061
  44.5910975  88.4441318  29.5342428  45.1239311  87.6829606  29.3041736
  44.0625056  88.1514970  30.2766582  47.7580670  73.5501384  25.0636070
  47.4144939  74.4403026  24.9875180  48.1259632  73.3603042  24.2005655
  35.8266520  85.8734915  17.8824672  36.6641742  86.2831923  17.6658380
  36.0044788  84.9334357  17.8524866  47.7230952  83.5409995  13.5708505
  47.2077576  84.3114600  13.8096892  47.4508261  82.8675132  14.1941566
  45.3078063  78.3859696  18.6293743  44.4519660  77.9966547  18.4499382
  45.7205015  78.4651657  17.7693529  46.8377210  75.9206039  23.0285303
  46.3342006  75.8836175  22.2153108  47.1307817  76.8298782  23.0881960
  43.0820096  76.0044769  22.0351485  43.9473093  75.8087578  21.6757374
  43.1497605  75.7755121  22.9620841  52.6965226  86.2942350  15.5061678
  51.9194669  85.9553510  15.0616840  53.3756707  86.2994973  14.8316643
  47.5117255  81.4137087  15.3968286  47.2067391  81.7283237  16.2478429
  48.4647698  81.4918507  15.4395619  45.9563687  87.5727311  17.0461240
  45.4285049  86.8380070  16.7334477  45.4551190  88.3501987  16.8001208
  50.9356533  85.7676331  22.1628286  50.2780208  86.4575593  22.2508415
  51.7396933  86.1572763  22.5062273  40.6882415  78.2346977  19.4067852
  41.2626167  78.0122159  18.6741044  41.2753397  78.3035672  20.1596453
  49.7461992  84.1220704  20.2132228  50.2593874  84.7550696  20.7153938
  50.3963216  83.5221899  19.8475588  41.0152002  80.2651438  13.4263737
  40.1789314  80.6026125  13.7473012  40.8756772  80.1300418  12.4890874
  42.9905083  75.1088226  18.1342921  42.3369495  74.7937243  17.5099536
  42.9485557  74.4863966  18.8602744  44.1016288  85.3907521  10.0496213
  43.1943349  85.1596775  10.2487362  44.5987320  84.5945140  10.2370195
  47.0084366  94.1005028  12.9692899  46.3346065  94.4036725  13.5777857
  47.3950188  94.9034109  12.6198356  46.2242823  81.5970160  22.4590569
  45.3065384  81.8185107  22.3012257  46.6402967  81.6716470  21.6002276
  47.0077871  82.9961575  17.5893249  47.7549690  83.5082972  17.2800371
  47.2769460  82.6745628  18.4497642  45.2804521  85.4920116  14.5720203
  44.3715740  85.2079149  14.6692673  45.3099605  85.9119194  13.7123510
  50.5123788  89.1026705  18.3411371  50.0586115  88.2617615  18.3976561
  49.8817755  89.7388104  18.6786151  49.4556708  80.0318691  19.5712038
  48.7179465  79.5196078  19.9022281  49.7083481  79.5919073  18.7595315
  48.9556728  90.9403202  19.2761189  49.2479702  91.5008259  18.5573554
  49.4655348  91.2331763  20.0314348  49.5568335  72.8094943  20.1653807
  49.8627212  71.9492307  19.8779722  50.2820940  73.4012564  19.9652801
  35.8492691  83.2125630  18.5535405  35.6517091  82.6194991  17.8286472
  35.2939355  82.9077840  19.2711344  43.8289415  83.1048737  20.6729998
  43.8838025  82.1522573  20.5972475  43.0180617  83.2608176  21.1571297
  44.9780609  87.0328860  11.9108282  44.5400039  86.3164719  11.4513919
  45.7191050  87.2604974  11.3493373  41.7681775  81.7225796  18.4320377
  40.9549640  82.0219967  18.8385569  42.2640769  81.3281485  19.1494860
  43.9190353  91.7183553  20.3654642  43.8766532  91.9444400  19.4363174
  44.8353052  91.4846928  20.5140443  47.3655987  82.1867621  27.2635271
  47.7205374  82.4139094  28.1229737  48.0128118  82.5185998  26.6412527
  53.0953724  85.3086057  17.9684600  52.9571622  85.4987653  17.0405789
  52.7389942  86.0705439  18.4252651  41.2595850  79.2944152  24.0481612
  41.8995229  79.1532911  23.3504576  40.4273380  79.0078665  23.6720214
  53.1223103  87.3762584  22.9795872  53.5559610  87.2837873  23.8278926
  53.8354684  87.3520084  22.3415888  42.0356154  88.5946582  20.1616605
  42.8296752  88.0996902  19.9599180  41.3247846  88.0664445  19.7984310
  46.8550998  90.9764678  24.5128972  46.9088020  91.5455614  25.2806688
  45.9865779  91.1466563  24.1483010  38.3438917  82.7389664  16.2376357
  37.4136505  82.6774119  16.4546320  38.4396389  82.2165617  15.4412999
  38.2624466  79.2644477  18.8254599  38.5231283  80.1789810  18.7163760
  39.0841638  78.7968919  18.9751212  39.7349391  80.6782234  25.9953424
  40.4072445  80.4699596  25.3466073  38.9079178  80.4804320  25.5558656
  53.9838653  87.4186284  25.5128757  54.1774543  88.3232095  25.7588032
  53.8839271  86.9593703  26.3467342  45.6374963  77.3044175  28.0119085
  44.9902878  78.0034125  27.9183561  46.4075979  77.7380319  28.3795333
  49.0453761  87.5693027  31.0869638  48.8939268  87.3403579  30.1699721
  49.0358441  88.5263628  31.1000983  45.8139098  85.1424940  26.0715904
  46.7431158  85.2936099  25.8984872  45.3930128  85.2308961  25.2164551
  44.6127430  89.1675604  23.8414442  44.4738515  88.7994389  24.7140380
  43.8242026  89.6823244  23.6698400  45.2075582  94.2684701  15.1839978
  45.3827337  93.7972744  15.9985601  44.5208370  94.8950467  15.4121239
  46.1632645  88.5457207  21.2303280  45.8282477  88.5057977  22.1260930
  45.6636590  87.8801923  20.7573690  40.1376889  83.9524837  26.7555861
  39.9996687  83.2205076  27.3567400  41.0481812  83.8633737  26.4740049
  49.0991836  85.8913241  11.5040339  48.4821007  85.1660069  11.4073392
  48.6308325  86.6522602  11.1607414  42.7659189  83.6644796  26.2439540
  43.4758808  83.0237988  26.2026159  42.7228498  83.9157691  27.1665721
  50.7545968  90.6012150  29.1646120  50.6958514  89.9171370  28.4976703
  51.1565486  91.3431140  28.7126746  41.4788123  80.6510014  28.0635180
  40.9425480  80.2000753  28.7156776  40.8904832  80.7855923  27.3205644
  39.7736667  97.4174063  21.9579839  40.0133265  98.0492588  22.6358857
  38.9305863  97.0662103  22.2445198  40.8890382  80.1098666  10.6261644
  40.0119849  79.9887466  10.2623890  41.3648135  79.3184744  10.3740532
  50.7563375  88.5651734  27.3960099  49.8690154  88.2277655  27.5186498
  51.3261926  87.8334765  27.6328865  32.4092522  84.8975825  20.7203151
  33.0963562  84.5837555  20.1324166  32.2540651  85.8017190  20.4470402
  37.2127245  79.7866022  25.1488174  37.1285433  79.1791691  24.4138584
  36.3909951  80.2775040  25.1497671  44.2864529  93.2253186  24.3621343
  44.2134700  94.0308157  24.8740647  43.8441922  93.4245152  23.5369364
  44.0754308  92.4624956  17.8724164  43.2921830  93.0046636  17.9662389
  44.7747053  92.9798936  18.2718405  47.3850958  78.2719585  20.5158369
  47.8819658  77.5189548  20.1959440  46.6137940  78.3083902  19.9501579
  55.2380716  83.9759951  22.1576661  55.2270592  84.8584666  21.7870594
  54.3698095  83.6231502  21.9631198  46.7463212  93.1240020  26.5179501
  47.4591184  93.7587485  26.4455403  46.2553241  93.2203886  25.7019503
  48.4680739  87.0291273  18.0896793  47.5337018  87.1492735  17.9201497
  48.6457408  86.1263739  17.8256803  43.9685927  80.4136968  20.2430054
  43.5983715  79.8608009  20.9310960  44.4645020  79.8095102  19.6905054
  51.8553290  82.8708592  18.6246827  52.3213743  83.7036583  18.5507130
  52.3060791  82.4053573  19.3292085  41.7975126  90.8734463  27.3385072
  42.4984585  91.5070946  27.4914466  41.3270241  91.2149195  26.5780711
  49.9229522  89.2152413  15.6232979  50.1989365  89.1009008  16.5326853
  49.0534020  88.8169898  15.5845152  49.8269953  75.2389179  22.6637728
  48.9133033  75.4693406  22.8319935  50.2563055  75.3227623  23.5151761
  49.5976412  83.4279071  25.1637622  48.9447862  83.6754978  24.5090075
  49.9756792  82.6143209  24.8300100  46.5583586  93.4638764  19.2665793
  46.7405980  92.6460420  19.7293545  47.3816572  93.6806456  18.8290683
  46.8925751  92.3906949  16.5280841  47.4213518  91.8799404  15.9151003
  47.1553971  92.0749479  17.3926374  45.6463985  84.1698882  31.6503659
  44.9704622  84.0693011  32.3206035  46.4691619  84.0138096  32.1139657
  37.3942844  90.4070818  24.2716175  37.9796281  89.6614506  24.4044079
  37.1967682  90.7174775  25.1552839  40.2481499  93.4422066  19.2878617
  39.5791874  93.9268193  18.8042657  40.1094369  93.6891286  20.2021996
  31.9860499  82.9776419  22.9920618  32.0244598  82.4440009  23.7857736
  31.4800791  82.4511624  22.3731595  44.3886768  95.4765809  25.8861275
  44.9405076  95.6397431  26.6510361  44.7292961  96.0670247  25.2141300
  39.3651261  77.8240959  26.4883160  39.4292587  78.6855790  26.0760558
  39.3018381  77.2114961  25.7555519  38.8403533  79.8964092  30.1356194
  39.4675572  79.5141169  30.7493719  37.9831452  79.6778294  30.5011887
  49.2397642  90.3027067  31.7409930  49.7837546  90.9157025  31.2464885
  48.6584487  90.8606645  32.2576943  35.6169076  81.7040521  16.0674549
  35.9122517  80.7951199  16.0141603  34.7157112  81.6828260  15.7455552
  47.5255155  93.4247785  22.8724958  47.4006294  92.6237525  22.3635903
  48.1834246  93.9193978  22.3838928  39.1463323  79.7796517  22.0502098
  38.4249909  80.3932485  21.9109571  39.9356579  80.3154282  21.9718744
  49.5890063  91.2256805  24.5004508  48.6420399  91.1062156  24.4282834
  49.9372836  90.3379303  24.5830769  41.9489637  77.1150944  28.3242750
  42.4724038  77.3613240  29.0869059  41.7301970  77.9470979  27.9045887
  37.3456918  79.3854618  16.1913874  37.0169624  78.5051997  16.0088980
  37.6996288  79.3302287  17.0790264  46.5936497  91.0209521  20.7008860
  46.4461459  90.0926229  20.8816430  47.4189990  91.0429612  20.2165935
  40.4598741  79.6727588  16.5589352  40.7994813  80.2013509  15.8367960
  40.9070861  80.0107994  17.3347919  50.1970618  91.8438080  21.7873733
  51.1217166  91.6380941  21.6498184  50.0285922  91.5954481  22.6963074
  43.1542182  78.0564639  26.0092420  42.8139002  77.2572452  26.4113100
  42.4481188  78.3566350  25.4369253  43.8058654  75.1413951  24.4619743
  44.6284723  74.6674430  24.3398633  44.0496717  75.9204435  24.9618429
  42.4466888  78.1702210  14.7582645  43.1675251  78.5483463  14.2546362
  41.8232192  78.8891087  14.8617623  46.5898011  78.8747359  15.6940977
  46.8061625  79.7571997  15.3929805  46.1092078  78.4833572  14.9646619
  41.3297232  81.8333072  22.2711722  41.1841813  82.1473375  23.1636003
  40.8522436  82.4517972  21.7182620  43.1893615  78.8235620  22.3192611
  43.1755184  77.9276713  21.9824909  43.9066043  78.8306284  22.9530897
  45.0419746  79.2572960  24.3645739  44.7837524  80.1790031  24.3630069
  44.5104786  78.8603395  25.0546203  49.9865935  92.3623747  17.1435824
  50.1602812  91.7970170  16.3909677  50.4794826  93.1624642  16.9615314
  35.8042894  84.3738416  25.2099383  35.2596363  85.1498224  25.3419657
  36.6822244  84.7209221  25.0518504  42.5930511  77.7050000  17.5880181
  42.7146422  76.7766646  17.7871069  42.3032553  77.7188686  16.6758497
  45.4621701  75.3904911  20.7246901  45.4843398  75.4544244  19.7698881
  45.8789760  74.5509419  20.9187407  55.8405326  85.1260170  18.7626124
  56.2836472  84.3767495  18.3645247  54.9631836  85.1170307  18.3799856
  50.9741107  91.6790512  14.2432722  51.6692012  92.2997204  14.4620037
  51.3164257  90.8285863  14.5185100  36.5908916  83.5008313  28.1029540
  35.8490652  83.6490948  28.6894170  36.2701661  83.7616578  27.2396289
  52.8732530  89.1290217  15.7720053  53.3983854  89.4677490  15.0469373
  52.7854883  88.1937233  15.5883188  44.5352579  93.0424291  27.9009930
  44.8439705  92.7973438  28.7732629  45.3328061  93.2470929  27.4128800
  44.5573191  95.1962201  20.1315306  44.1178181  94.7038579  20.8248163
  45.3081308  94.6535168  19.8907382  37.0365530  91.3873741  20.1339934
  37.8623550  91.0877513  19.7538578  36.6859582  90.6181364  20.5829723
  42.0047063  90.7400210  22.2037608  41.3827072  90.0770915  21.9039836
  42.6751930  90.7661342  21.5211256  35.2374135  89.3060068  21.0928868
  34.4006043  88.8782242  20.9112869  35.2097780  89.4992511  22.0299659
  42.0771591  79.2181998  31.7970114  42.1259746  80.0944120  31.4147884
  42.6194105  78.6759391  31.2241757  52.5626436  89.7623121  31.0771251
  51.7721980  89.7447260  30.5375751  52.3259791  90.3011415  31.8320288
  52.6824311  86.6115587  28.3903980  52.7322316  86.4465595  29.3319502
  52.5738235  85.7442846  28.0001860  41.5660570  89.2904133  15.6796069
  41.7148690  89.9739597  15.0262741  42.3727014  89.2709223  16.1945524
  49.9728074  82.5946515  29.7063286  50.8737937  82.4552980  29.4147284
  50.0476048  82.7600970  30.6461464  44.3070879  79.9713370  28.5516473
  43.4374188  80.2646936  28.2799061  44.5430359  80.5553815  29.2723736
  54.1842508  89.0312529  28.6346001  53.8927316  89.3942509  29.4709462
  53.5714639  88.3179537  28.4559333  55.3838190  86.5965409  21.1548571
  56.2185082  87.0355213  21.3186132  55.5197319  86.1204062  20.3356817
  52.4329696  84.1545143  27.1026059  52.9083818  84.3472790  26.2944911
  51.5095262  84.2104329  26.8569443  39.3213203  85.3169311  16.6857137
  39.0759245  84.4131641  16.8837348  39.4909118  85.3186461  15.7436615
  47.0109913  76.1892987  26.0681893  47.5291857  76.9254014  25.7428382
  46.6565046  76.4956980  26.9028652  38.5908851  81.0497668  14.1843299
  37.8978096  81.1242023  13.5283335  38.3460602  80.2858012  14.7064816
  47.2622507  72.6093270  21.5882790  47.5424261  71.9416459  22.2143216
  48.0473114  72.8022365  21.0757454  45.0655976  91.7852263  13.1507816
  44.4929943  92.4042451  12.6978288  45.6388769  92.3351625  13.6847738
  51.1331365  81.0310904  25.3354365  52.0848788  81.1309001  25.3566589
  50.9634816  80.2389172  25.8452449  49.1545745  78.1166487  25.5213766
  48.5595677  78.3971499  24.8260254  48.8695442  78.6060388  26.2930507
  48.2853235  92.0689414  14.2816398  49.2183909  92.0034975  14.4849274
  48.1976448  92.9045680  13.8230931  50.9141252  91.3855284  11.2420346
  50.8354884  91.0515147  12.1356104  51.7350919  91.8777052  11.2411818
  53.6119443  84.2517023  24.4496664  53.5795763  83.3133024  24.6356348
  54.2220067  84.3301060  23.7162489  45.4502774  83.1213076  10.4923868
  46.3961879  82.9919284  10.5612287  45.0717019  82.3827738  10.9693297
  53.7613932  81.0428067  24.4954948  53.2452980  80.2586523  24.3084876
  54.6453880  80.7146783  24.6601467  51.4224659  74.7869082  20.4550760
  51.2249480  74.4784170  21.3394092  52.0324364  75.5130721  20.5848690
  59.4295993  85.3133030  23.5902701  60.1599382  85.0518318  24.1510405
  58.8202939  84.5761752  23.6304769  57.5111290  83.4540893  24.1877152
  56.7844454  83.3196858  23.5793644  57.0958577  83.7617721  24.9933870
  45.3341467  87.1730822  31.9524525  46.2544476  87.3509421  32.1464572
  45.2991050  86.2286868  31.8004225  43.6345691  81.0463053  10.4278754
  42.7277147  80.7496165  10.5041467  43.9121672  80.7492871   9.5613040
  34.5523632  82.3669416  20.8777800  34.2326416  81.5134724  20.5852174
  34.0057060  82.5817994  21.6335767  38.3303539  85.0831857  24.5947307
  38.5489549  86.0148965  24.6135340  38.7429313  84.7239831  25.3802110
  45.2507757  75.5899942  16.5822995  44.4408485  75.2447027  16.9578241
  45.9392174  75.2807486  17.1710607  47.1798305  74.6677989  18.2047292
  47.7329344  75.0873443  18.8637315  47.4168392  73.7413737  18.2470248
  43.2031404  80.6565063  33.9850056  43.1028131  81.6059420  33.9162147
  42.9852947  80.3283302  33.1126126  42.4044476  77.9049988  10.5690733
  43.2663640  78.2304886  10.8286550  42.5894820  77.1181484  10.0563799
  34.4211892  85.9872327  22.8470922  33.7275363  85.5726280  22.3340876
  35.1684883  86.0292864  22.2504341  50.5577112  76.7778514  17.7125956
  49.9775781  77.4363318  17.3304008  50.2913045  75.9555859  17.3013373
  49.0080679  76.1783572  19.9147276  49.5080457  76.2900106  19.1061595
  49.6516287  75.8744625  20.5548085  43.0662675  84.0862202  32.8015117
  42.5829756  84.8862562  33.0079006  43.1523614  84.0970146  31.8482561
  36.3348634  85.9190581  20.7236937  36.3119322  86.0178269  19.7718820
  36.6449271  86.7655732  21.0454103  38.9936012  87.9766736  24.8383551
  39.9479266  87.9450679  24.7713483  38.7948536  87.5157360  25.6533777
  39.5835394  86.5467852  27.4054349  40.4028283  87.0411931  27.4289186
  39.8572202  85.6299820  27.3771916  49.3401990  78.9378605  16.7682304
  48.4527845  79.2228255  16.5502499  49.7555979  78.7772368  15.9209581
  52.6916526  78.9625126  20.4836643  53.4676917  79.4521578  20.7561260
  51.9664661  79.3883180  20.9408513  55.1289085  79.6752745  21.5410584
  55.7233576  79.4348481  20.8303892  55.2015669  78.9559875  22.1684120
  37.3486241  93.5186356  21.8553749  37.2140709  92.7586757  21.2891747
  36.9318303  94.2427256  21.3882538  48.4845204  88.7023279  10.8630324
  49.1881054  88.9073282  11.4787980  47.7607853  89.2700041  11.1279408
  49.3143014  84.4533141  16.9832594  49.2578215  84.9101692  16.1440227
  49.8671357  83.6923825  16.8055437  53.1247820  80.2422872  17.8082714
  52.8684754  79.8419508  18.6390922  52.5000688  80.9566666  17.6832853
  57.4360158  82.9818946  20.3154005  56.8759716  83.0512135  21.0885567
  56.8303661  82.8059930  19.5953501  40.5055367  94.4155673  22.0672192
  40.3887751  95.3601105  21.9650882  39.6847813  94.1129234  22.4557991
  50.3931901  89.1405808  12.9128784  51.2277505  88.7087007  12.7306259
  50.2316244  88.9687822  13.8405679  50.0477793  85.6437922  14.2785124
  49.9926597  85.4782193  13.3373568  49.4223849  86.3513955  14.4347313
  34.8370308  80.8805986  28.1046546  35.4829172  80.3704940  28.5933771
  34.6287460  81.6174668  28.6789971  47.3623701  87.9486834  33.6038686
  48.2314860  88.1227486  33.2425321  46.8830452  88.7681250  33.4814416
  43.3573919  75.1446031  13.8570442  43.3452589  76.0887871  14.0138713
  44.2497341  74.9616176  13.5629903  41.5309881  95.0683935  25.2828120
  42.4337128  95.1007545  25.5994615  41.3047251  94.1384386  25.2974456
  43.2863483  93.8214921  21.9438199  42.3359114  93.8216783  21.8302571
  43.5895969  93.0747656  21.4274233  47.1726038  71.7388807  18.1116379
  46.4058434  71.1847294  18.2573061  47.5836743  71.8110676  18.9730530
  39.1767799  78.0273603  32.2021560  40.0399261  77.6710408  32.4124885
  38.6033210  77.6887498  32.8896964  59.0216176  99.6575460  23.0083961
  59.6594586  99.5382207  22.3047301  58.9037019 100.6056304  23.0671913
  55.8305883  99.6102888  22.9445486  55.4924394  99.4943952  22.0566021
  56.6995651  99.2094053  22.9246492  51.6892698 101.4638364  18.9342377
  51.1257563 101.3728301  18.1658664  51.5745093 100.6438269  19.4144869
  56.3125666 100.7637739  28.9031691  56.3014306 100.3690538  28.0312195
  56.4746305 100.0303812  29.4965463  49.2357130 102.9589556  21.7726597
  50.0278422 102.6180380  21.3572896  49.4753780 103.0684531  22.6928750
  57.2692257 105.1309332  14.2456842  56.6180237 105.7163412  13.8590855
  58.0636620 105.6615527  14.3051879  51.1947884 102.2198469  14.6443976
  51.9678760 101.6727456  14.5056852  51.5473283 103.0842718  14.8558437
  53.0332927 103.5474851  27.8510875  52.7422793 104.4520482  27.7357541
  53.6689911 103.5891379  28.5654945  53.9589134 100.9251700  24.4412235
  54.5552706 100.7007722  23.7269198  54.0164105 100.1836445  25.0437683
  53.5314162  98.3791135  12.2762426  53.7839683  97.8572656  11.5145889
  52.5938721  98.2157281  12.3789109  58.5757445  97.3826913  20.0837169
  59.3620534  96.9646337  19.7327586  58.8396149  98.2873006  20.2518817
  58.7467522 102.8199764  14.7825826  58.1113355 102.8934390  15.4946730
  58.4164929 103.4093363  14.1044905  63.9765872  97.3202147  20.9870148
  64.7091044  96.7501363  21.2207977  63.2205228  96.9323747  21.4276653
  53.2510451 100.2819241  14.4786801  53.1346709  99.6064144  15.1467885
  53.3612711  99.7951615  13.6618954  55.5941992  99.7429388  18.1833490
  55.2300199  99.2160009  18.8946411  56.4509108  99.3527857  18.0099975
  61.4991292  91.0323721  25.4464756  61.1674617  91.9019132  25.2225971
  60.9036906  90.7160005  26.1258787  55.2347479  94.7719288  13.1794838
  55.4021881  95.6399524  13.5465310  55.0444648  94.9346570  12.2556128
  57.9922812 103.2336267  24.8460669  57.6923535 104.1361306  24.7376476
  57.6473871 102.9668450  25.6981822  51.4435293  99.6850064  20.8797373
  50.5185790  99.5526278  21.0875065  51.6919706 100.4644283  21.3767316
  61.3919956  95.7518807  22.5258106  60.4836833  95.6834215  22.2316867
  61.3407551  96.2290752  23.3539932  55.2136700  97.2276945  14.1641505
  55.0936325  97.6733996  15.0026986  54.5189288  97.5762263  13.6055043
  48.8044104  99.3283337  21.7141162  48.9336485  99.5817816  22.6280574
  48.1241556  99.9211045  21.3945817  52.9743592 109.9980587  17.8131637
  52.8967621 110.9488412  17.8920117  52.3705235 109.6526460  18.4706563
  55.4660821  97.1708453  30.4693003  54.6894155  97.7302373  30.4595868
  56.1051384  97.6565236  30.9907874  63.2581602  93.9535245  24.3035980
  62.6155982  94.2467778  23.6575775  62.7536531  93.8388166  25.1089177
  60.9121766  97.6998419  14.9921839  61.8239622  97.9325805  14.8169537
  60.4031413  98.2835463  14.4296918  53.7207194  99.9793906  30.0310970
  54.4621878 100.5178950  29.7545794  53.0144179 100.6060195  30.1882522
  59.1962533 102.1223046  28.6283132  59.6045889 101.6805457  27.8837764
  58.4739795 101.5475674  28.8817325  55.5493603  97.0595653  26.0016689
  56.3954799  97.4835067  26.1451338  55.4892241  96.4029277  26.6955252
  59.5191348 102.6824237  22.3835421  58.8900210 102.8469951  21.6811489
  59.1317010 103.0965847  23.1546385  63.3980580 103.6178675  19.7379785
  62.7131618 103.9977576  19.1876818  63.4824429 104.2274001  20.4711732
  58.6993049  94.7200021  27.6597863  58.4553981  95.4742082  27.1232138
  58.9752979  95.0985369  28.4945110  60.6531511 101.2638634  26.3375128
  60.8648407 101.9070394  25.6609509  60.6061260 100.4300950  25.8697058
  58.2557740  93.8756455  23.2411700  57.3942219  94.1737708  23.5328438
  58.2820175  94.0926853  22.3092733  55.0719310 102.4198645  19.6485506
  55.5357655 102.6986348  18.8590128  54.8076108 101.5182090  19.4658597
  51.9643391 101.9670127  22.5865269  52.5344748 102.3957395  21.9482754
  52.5551503 101.6852711  23.2849455  54.0088196  98.5421797  16.4575071
  54.7112239  98.9942841  16.9248997  53.6768824  97.9005616  17.0854964
  52.4568557  97.1333554  30.8326280  51.8267218  97.8149835  31.0661677
  52.3504645  97.0216636  29.8879419  47.7513530  96.8005350  21.7592205
  46.9612584  97.0562879  21.2832315  48.2424777  97.6153688  21.8644245
  61.7677339 104.1410589  24.5097485  62.5894783 103.7390777  24.2280167
  61.7639742 104.0378823  25.4613601  49.7028275  97.1649929  18.7175681
  48.9059439  97.2768624  19.2359177  49.4753867  97.5036582  17.8516572
  55.5333943 103.6894633  26.6658196  55.5978375 104.1515040  27.5016368
  54.8244867 103.0591997  26.7940506  46.0351233  97.0535841  24.1907195
  46.2859271  97.9382850  24.4564771  46.5710781  96.8740442  23.4182287
  69.8583332 100.4849338  20.8582457  69.1047041  99.9156736  20.7026461
  69.9930874 100.4512002  21.8053092  55.2481961 105.3562740  16.5337176
  55.1127635 106.2014276  16.9622024  55.7891773 105.5582018  15.7703110
  51.7349300  91.4354320  33.1951531  51.3416246  90.8820518  33.8699176
  52.5515440  91.7464898  33.5858049  48.7011358 102.8738178  17.1065101
  49.2135878 103.6681428  17.2570666  49.3534071 102.1764469  17.0398703
  50.5106243 105.9903934  19.1887855  50.6872871 106.9121899  19.0008838
  51.3063076 105.6762354  19.6182234  54.6517261  92.8512199  30.7871788
  55.3926975  93.4519352  30.7076251  54.8835184  92.1089837  30.2289831
  49.7958599  98.0368566  29.0650018  49.6812114  97.1353823  29.3657117
  48.9403117  98.2832263  28.7134834  56.8750437 105.9786307  30.6637518
  56.4314291 105.1922685  30.3458423  57.5367650 106.1665457  29.9981409
  51.6337558 107.5082108  25.1898197  52.1844983 107.3799172  24.4175191
  50.7949034 107.8076997  24.8393090  58.9731675 106.2589107  28.6918920
  58.9550150 107.0797988  28.1999189  59.8951595 106.1343182  28.9169061
  55.4304729 103.7733236  29.5342428  55.9633066 103.0121524  29.3041736
  54.9018810 103.4806888  30.2766582  58.5974424  88.8793302  25.0636070
  58.2538693  89.7694944  24.9875180  58.9653387  88.6894960  24.2005655
  46.6660275 101.2026832  17.8824672  47.5035497 101.6123841  17.6658380
  46.8438542 100.2626275  17.8524866  58.5624707  98.8701913  13.5708505
  58.0471330  99.6406518  13.8096892  58.2902015  98.1967049  14.1941566
  56.1471818  93.7151614  18.6293743  55.2913414  93.3258464  18.4499382
  56.5598770  93.7943575  17.7693529  57.6770964  91.2497957  23.0285303
  57.1735760  91.2128092  22.2153108  57.9701571  92.1590700  23.0881960
  53.9213850  91.3336687  22.0351485  54.7866847  91.1379496  21.6757374
  53.9891359  91.1047039  22.9620841  63.5358981 101.6234268  15.5061678
  62.7588424 101.2845427  15.0616840  64.2150462 101.6286891  14.8316643
  58.3511010  96.7429005  15.3968286  58.0461146  97.0575154  16.2478429
  59.3041452  96.8210425  15.4395619  56.7957442 102.9019228  17.0461240
  56.2678803 102.1671988  16.7334477  56.2944945 103.6793905  16.8001208
  61.7750288 101.0968249  22.1628286  61.1173962 101.7867510  22.2508415
  62.5790687 101.4864681  22.5062273  51.5276169  93.5638895  19.4067852
  52.1019921  93.3414076  18.6741044  52.1147152  93.6327589  20.1596453
  60.5855747  99.4512622  20.2132228  61.0987628 100.0842613  20.7153938
  61.2356971  98.8513817  19.8475588  51.8545757  95.5943356  13.4263737
  51.0183069  95.9318042  13.7473012  51.7150526  95.4592336  12.4890874
  53.8298837  90.4380144  18.1342921  53.1763249  90.1229161  17.5099536
  53.7879311  89.8155884  18.8602744  54.9410042 100.7199439  10.0496213
  54.0337104 100.4888692  10.2487362  55.4381074  99.9237058  10.2370195
  57.0636578  96.9262077  22.4590569  56.1459139  97.1477024  22.3012257
  57.4796721  97.0008388  21.6002276  57.8471625  98.3253493  17.5893249
  58.5943444  98.8374890  17.2800371  58.1163215  98.0037546  18.4497642
  56.1198275 100.8212034  14.5720203  55.2109495 100.5371066  14.6692673
  56.1493359 101.2411112  13.7123510  61.3517543 104.4318623  18.3411371
  60.8979870 103.5909533  18.3976561  60.7211510 105.0680021  18.6786151
  60.2950462  95.3610609  19.5712038  59.5573219  94.8487995  19.9022281
  60.5477236  94.9210991  18.7595315  59.7950482 106.2695120  19.2761189
  60.0873456 106.8300177  18.5573554  60.3049103 106.5623681  20.0314348
  60.3962090  88.1386861  20.1653807  60.7020967  87.2784225  19.8779722
  61.1214695  88.7304481  19.9652801  46.6886446  98.5417548  18.5535405
  46.4910846  97.9486908  17.8286472  46.1333110  98.2369758  19.2711344
  54.6683169  98.4340654  20.6729998  54.7231779  97.4814491  20.5972475
  53.8574372  98.5900093  21.1571297  55.8174363 102.3620777  11.9108282
  55.3793793 101.6456636  11.4513919  56.5584804 102.5896892  11.3493373
  52.6075529  97.0517714  18.4320377  51.7943395  97.3511884  18.8385569
  53.1034524  96.6573403  19.1494860  54.7584107 107.0475471  20.3654642
  54.7160286 107.2736317  19.4363174  55.6746806 106.8138845  20.5140443
  58.2049741  97.5159538  27.2635271  58.5599129  97.7431012  28.1229737
  58.8521872  97.8477915  26.6412527  63.9347478 100.6377974  17.9684600
  63.7965377 100.8279570  17.0405789  63.5783697 101.3997357  18.4252651
  52.0989604  94.6236069  24.0481612  52.7388983  94.4824829  23.3504576
  51.2667135  94.3370583  23.6720214  63.9616858 102.7054501  22.9795872
  64.3953364 102.6129790  23.8278926  64.6748438 102.6812002  22.3415888
  52.8749908 103.9238500  20.1616605  53.6690507 103.4288820  19.9599180
  52.1641600 103.3956363  19.7984310  57.6944753 106.3056595  24.5128972
  57.7481775 106.8747532  25.2806688  56.8259534 106.4758480  24.1483010
  49.1832672  98.0681582  16.2376357  48.2530260  98.0066037  16.4546320
  49.2790144  97.5457534  15.4412999  49.1018221  94.5936394  18.8254599
  49.3625038  95.5081728  18.7163760  49.9235393  94.1260837  18.9751212
  50.5743146  96.0074152  25.9953424  51.2466199  95.7991514  25.3466073
  49.7472932  95.8096238  25.5558656  64.8232407 102.7478202  25.5128757
  65.0168297 103.6524012  25.7588032  64.7233025 102.2885621  26.3467342
  56.4768718  92.6336093  28.0119085  55.8296633  93.3326042  27.9183561
  57.2469733  93.0672236  28.3795333  59.8847516 102.8984945  31.0869638
  59.7333022 102.6695496  30.1699721  59.8752195 103.8555546  31.1000983
  56.6532852 100.4716857  26.0715904  57.5824912 100.6228017  25.8984872
  56.2323882 100.5600878  25.2164551  55.4521184 104.4967522  23.8414442
  55.3132270 104.1286306  24.7140380  54.6635780 105.0115161  23.6698400
  56.0469336 109.5976618  15.1839978  56.2221092 109.1264662  15.9985601
  55.3602124 110.2242385  15.4121239  57.0026399 103.8749125  21.2303280
  56.6676232 103.8349895  22.1260930  56.5030345 103.2093840  20.7573690
  50.9770643  99.2816755  26.7555861  50.8390441  98.5496993  27.3567400
  51.8875567  99.1925655  26.4740049  59.9385591 101.2205159  11.5040339
  59.3214761 100.4951987  11.4073392  59.4702079 101.9814519  11.1607414
  53.6052944  98.9936714  26.2439540  54.3152562  98.3529906  26.2026159
  53.5622252  99.2449609  27.1665721  61.5939723 105.9304067  29.1646120
  61.5352269 105.2463287  28.4976703  61.9959241 106.6723057  28.7126746
  52.3181878  95.9801932  28.0635180  51.7819235  95.5292670  28.7156776
  51.7298586  96.1147841  27.3205644  50.6130421 112.7465981  21.9579839
  50.8527020 113.3784505  22.6358857  49.7699618 112.3954021  22.2445198
  51.7284137  95.4390583  10.6261644  50.8513603  95.3179384  10.2623890
  52.2041890  94.6476662  10.3740532  61.5957130 103.8943651  27.3960099
  60.7083909 103.5569573  27.5186498  62.1655681 103.1626682  27.6328865
  43.2486277 100.2267743  20.7203151  43.9357317  99.9129473  20.1324166
  43.0934406 101.1309108  20.4470402  48.0520999  95.1157940  25.1488174
  47.9679188  94.5083609  24.4138584  47.2303705  95.6066958  25.1497671
  55.1258283 108.5545104  24.3621343  55.0528455 109.3600075  24.8740647
  54.6835676 108.7537069  23.5369364  54.9148063 107.7916874  17.8724164
  54.1315585 108.3338554  17.9662389  55.6140808 108.3090853  18.2718405
  58.2244713  93.6011503  20.5158369  58.7213412  92.8481465  20.1959440
  57.4531694  93.6375820  19.9501579  66.0774470  99.3051869  22.1576661
  66.0664347 100.1876584  21.7870594  65.2091850  98.9523419  21.9631198
  57.5856967 108.4531938  26.5179501  58.2984939 109.0879402  26.4455403
  57.0946995 108.5495804  25.7019503  59.3074494 102.3583190  18.0896793
  58.3730772 102.4784653  17.9201497  59.4851162 101.4555657  17.8256803
  54.8079682  95.7428886  20.2430054  54.4377469  95.1899926  20.9310960
  55.3038774  95.1387020  19.6905054  62.6947045  98.2000510  18.6246827
  63.1607497  99.0328501  18.5507130  63.1454545  97.7345491  19.3292085
  52.6368880 106.2026381  27.3385072  53.3378340 106.8362864  27.4914466
  52.1663995 106.5441113  26.5780711  60.7623276 104.5444331  15.6232979
  61.0383120 104.4300925  16.5326853  59.8927775 104.1461816  15.5845152
  60.6663708  90.5681097  22.6637728  59.7526788  90.7985323  22.8319935
  61.0956809  90.6519541  23.5151761  60.4370166  98.7570988  25.1637622
  59.7841616  99.0046896  24.5090075  60.8150546  97.9435127  24.8300100
  57.3977340 108.7930682  19.2665793  57.5799735 107.9752338  19.7293545
  58.2210326 109.0098374  18.8290683  57.7319506 107.7198867  16.5280841
  58.2607272 107.2091321  15.9151003  57.9947725 107.4041397  17.3926374
  56.4857739  99.4990800  31.6503659  55.8098376  99.3984929  32.3206035
  57.3085373  99.3430013  32.1139657  48.2336598 105.7362736  24.2716175
  48.8190035 104.9906424  24.4044079  48.0361437 106.0466693  25.1552839
  51.0875254 108.7713983  19.2878617  50.4185629 109.2560111  18.8042657
  50.9488123 109.0183204  20.2021996  42.8254253  98.3068336  22.9920618
  42.8638353  97.7731927  23.7857736  42.3194546  97.7803542  22.3731595
  55.2280522 110.8057727  25.8861275  55.7798830 110.9689349  26.6510361
  55.5686716 111.3962165  25.2141300  50.2045015  93.1532877  26.4883160
  50.2686342  94.0147708  26.0760558  50.1412136  92.5406878  25.7555519
  49.6797288  95.2256009  30.1356194  50.3069327  94.8433087  30.7493719
  48.8225207  95.0070211  30.5011887  60.0791396 105.6318985  31.7409930
  60.6231300 106.2448943  31.2464885  59.4978241 106.1898563  32.2576943
  46.4562831  97.0332438  16.0674549  46.7516272  96.1243117  16.0141603
  45.5550866  97.0120178  15.7455552  58.3648909 108.7539703  22.8724958
  58.2400049 107.9529442  22.3635903  59.0228000 109.2485896  22.3838928
  49.9857078  95.1088435  22.0502098  49.2643663  95.7224403  21.9109571
  50.7750333  95.6446200  21.9718744  60.4283818 106.5548723  24.5004508
  59.4814153 106.4354074  24.4282834  60.7766591 105.6671221  24.5830769
  52.7883391  92.4442862  28.3242750  53.3117793  92.6905158  29.0869059
  52.5695724  93.2762896  27.9045887  48.1850672  94.7146536  16.1913874
  47.8563378  93.8343915  16.0088980  48.5390043  94.6594205  17.0790264
  57.4330251 106.3501439  20.7008860  57.2855213 105.4218146  20.8816430
  58.2583745 106.3721530  20.2165935  51.2992495  95.0019506  16.5589352
  51.6388568  95.5305427  15.8367960  51.7464616  95.3399912  17.3347919
  61.0364373 107.1729998  21.7873733  61.9610920 106.9672859  21.6498184
  60.8679676 106.9246399  22.6963074  53.9935936  93.3856557  26.0092420
  53.6532757  92.5864370  26.4113100  53.2874942  93.6858267  25.4369253
  54.6452408  90.4705869  24.4619743  55.4678477  89.9966347  24.3398633
  54.8890472  91.2496353  24.9618429  53.2860643  93.4994128  14.7582645
  54.0069005  93.8775380  14.2546362  52.6625947  94.2183004  14.8617623
  57.4291765  94.2039276  15.6940977  57.6455380  95.0863914  15.3929805
  56.9485833  93.8125490  14.9646619  52.1690987  97.1624990  22.2711722
  52.0235567  97.4765293  23.1636003  51.6916190  97.7809890  21.7182620
  54.0287370  94.1527538  22.3192611  54.0148938  93.2568631  21.9824909
  54.7459798  94.1598201  22.9530897  55.8813500  94.5864878  24.3645739
  55.6231278  95.5081949  24.3630069  55.3498541  94.1895312  25.0546203
  60.8259689 107.6915665  17.1435824  60.9996567 107.1262087  16.3909677
  61.3188580 108.4916560  16.9615314  46.6436649  99.7030334  25.2099383
  46.0990117 100.4790142  25.3419657  47.5215999 100.0501139  25.0518504
  53.4324266  93.0341918  17.5880181  53.5540177  92.1058564  17.7871069
  53.1426308  93.0480604  16.6758497  56.3015456  90.7196828  20.7246901
  56.3237153  90.7836161  19.7698881  56.7183515  89.8801337  20.9187407
  66.6799080 100.4552088  18.7626124  67.1230226  99.7059413  18.3645247
  65.8025591 100.4462224  18.3799856  61.8134862 107.0082429  14.2432722
  62.5085766 107.6289122  14.4620037  62.1558012 106.1577781  14.5185100
  47.4302671  98.8300230  28.1029540  46.6884407  98.9782866  28.6894170
  47.1095415  99.0908496  27.2396289  63.7126285 104.4582135  15.7720053
  64.2377609 104.7969408  15.0469373  63.6248637 103.5229150  15.5883188
  55.3746333 108.3716209  27.9009930  55.6833460 108.1265355  28.7732629
  56.1721815 108.5762847  27.4128800  55.3966945 110.5254118  20.1315306
  54.9571936 110.0330497  20.8248163  56.1475062 109.9827086  19.8907382
  47.8759284 106.7165659  20.1339934  48.7017304 106.4169431  19.7538578
  47.5253336 105.9473282  20.5829723  52.8440818 106.0692127  22.2037608
  52.2220827 105.4062832  21.9039836  53.5145685 106.0953259  21.5211256
  46.0767890 104.6351986  21.0928868  45.2399798 104.2074160  20.9112869
  46.0491535 104.8284429  22.0299659  52.9165345  94.5473915  31.7970114
  52.9653501  95.4236038  31.4147884  53.4587859  94.0051308  31.2241757
  63.4020191 105.0915039  31.0771251  62.6115735 105.0739177  30.5375751
  63.1653545 105.6303332  31.8320288  63.5218066 101.9407505  28.3903980
  63.5716071 101.7757512  29.3319502  63.4131989 101.0734764  28.0001860
  52.4054325 104.6196051  15.6796069  52.5542445 105.3031515  15.0262741
  53.2120768 104.6001141  16.1945524  60.8121828  97.9238433  29.7063286
  61.7131691  97.7844898  29.4147284  60.8869803  98.0892888  30.6461464
  55.1464634  95.3005288  28.5516473  54.2767943  95.5938854  28.2799061
  55.3824114  95.8845733  29.2723736  65.0236263 104.3604446  28.6346001
  64.7321071 104.7234427  29.4709462  64.4108394 103.6471455  28.4559333
  66.2231945 101.9257326  21.1548571  67.0578836 102.3647130  21.3186132
  66.3591074 101.4495979  20.3356817  63.2723451  99.4837061  27.1026059
  63.7477573  99.6764707  26.2944911  62.3489016  99.5396247  26.8569443
  50.1606958 100.6461228  16.6857137  49.9152999  99.7423558  16.8837348
  50.3302872 100.6478379  15.7436615  57.8503667  91.5184905  26.0681893
  58.3685611  92.2545932  25.7428382  57.4958800  91.8248898  26.9028652
  49.4302605  96.3789586  14.1843299  48.7371850  96.4533941  13.5283335
  49.1854357  95.6149929  14.7064816  58.1016262  87.9385187  21.5882790
  58.3818015  87.2708376  22.2143216  58.8866868  88.1314283  21.0757454
  55.9049730 107.1144181  13.1507816  55.3323697 107.7334368  12.6978288
  56.4782524 107.6643543  13.6847738  61.9725120  96.3602821  25.3354365
  62.9242543  96.4600919  25.3566589  61.8028570  95.5681090  25.8452449
  59.9939499  93.4458404  25.5213766  59.3989431  93.7263417  24.8260254
  59.7089196  93.9352305  26.2930507  59.1246990 107.3981331  14.2816398
  60.0577663 107.3326893  14.4849274  59.0370203 108.2337598  13.8230931
  64.4513198  99.5808941  24.4496664  64.4189518  98.6424942  24.6356348
  65.0613821  99.6592978  23.7162489  56.2896529  98.4504994  10.4923868
  57.2355633  98.3211202  10.5612287  55.9110774  97.7119656  10.9693297
  64.6007686  96.3719984  24.4954948  64.0846735  95.5878441  24.3084876
  65.4847635  96.0438701  24.6601467  62.2618413  90.1161000  20.4550760
  62.0643234  89.8076088  21.3394092  62.8718119  90.8422639  20.5848690
  70.2689748 100.6424948  23.5902701  70.9993136 100.3810236  24.1510405
  69.6596693  99.9053670  23.6304769  68.3505045  98.7832810  24.1877152
  67.6238208  98.6488775  23.5793644  67.9352332  99.0909639  24.9933870
  56.1735221 102.5022740  31.9524525  57.0938231 102.6801339  32.1464572
  56.1384804 101.5578785  31.8004225  54.4739446  96.3754970  10.4278754
  53.5670901  96.0788083  10.5041467  54.7515427  96.0784788   9.5613040
  45.3917386  97.6961334  20.8777800  45.0720170  96.8426642  20.5852174
  44.8450814  97.9109912  21.6335767  49.1697294 100.4123775  24.5947307
  49.3883303 101.3440882  24.6135340  49.5823067 100.0531749  25.3802110
  56.0901511  90.9191860  16.5822995  55.2802240  90.5738945  16.9578241
  56.7785928  90.6099404  17.1710607  58.0192060  89.9969907  18.2047292
  58.5723098  90.4165360  18.8637315  58.2562146  89.0705655  18.2470248
  54.0425159  95.9856980  33.9850056  53.9421886  96.9351337  33.9162147
  53.8246701  95.6575219  33.1126126  53.2438230  93.2341905  10.5690733
  54.1057394  93.5596804  10.8286550  53.4288574  92.4473401  10.0563799
  45.2605646 101.3164245  22.8470922  44.5669118 100.9018198  22.3340876
  46.0078637 101.3584782  22.2504341  61.3970867  92.1070432  17.7125956
  60.8169536  92.7655236  17.3304008  61.1306800  91.2847777  17.3013373
  59.8474433  91.5075490  19.9147276  60.3474212  91.6192024  19.1061595
  60.4910041  91.2036542  20.5548085  53.9056429  99.4154119  32.8015117
  53.4223511 100.2154479  33.0079006  53.9917368  99.4262064  31.8482561
  47.1742389 101.2482499  20.7236937  47.1513077 101.3470186  19.7718820
  47.4843025 102.0947650  21.0454103  49.8329767 103.3058654  24.8383551
  50.7873020 103.2742596  24.7713483  49.6342290 102.8449278  25.6533777
  50.4229149 101.8759770  27.4054349  51.2422038 102.3703849  27.4289186
  50.6965956 100.9591738  27.3771916  60.1795745  94.2670522  16.7682304
  59.2921600  94.5520173  16.5502499  60.5949734  94.1064286  15.9209581
  63.5310281  94.2917043  20.4836643  64.3070671  94.7813496  20.7561260
  62.8058415  94.7175097  20.9408513  65.9682840  95.0044663  21.5410584
  66.5627330  94.7640398  20.8303892  66.0409423  94.2851793  22.1684120
  48.1879995 108.8478273  21.8553749  48.0534463 108.0878674  21.2891747
  47.7712058 109.5719173  21.3882538  59.3238958 104.0315197  10.8630324
  60.0274808 104.2365199  11.4787980  58.6001607 104.5991959  11.1279408
  60.1536769  99.7825058  16.9832594  60.0971970 100.2393610  16.1440227
  60.7065111  99.0215743  16.8055437  63.9641574  95.5714790  17.8082714
  63.7078509  95.1711426  18.6390922  63.3394443  96.2858584  17.6832853
  68.2753912  98.3110863  20.3154005  67.7153470  98.3804053  21.0885567
  67.6697416  98.1351848  19.5953501  51.3449121 109.7447590  22.0672192
  51.2281505 110.6893023  21.9650882  50.5241567 109.4421152  22.4557991
  61.2325656 104.4697726  12.9128784  62.0671260 104.0378925  12.7306259
  61.0709999 104.2979740  13.8405679  60.8871548 100.9729839  14.2785124
  60.8320352 100.8074111  13.3373568  60.2617603 101.6805872  14.4347313
  45.6764063  96.2097904  28.1046546  46.3222926  95.6996858  28.5933771
  45.4681214  96.9466586  28.6789971  58.2017455 103.2778751  33.6038686
  59.0708615 103.4519404  33.2425321  57.7224207 104.0973168  33.4814416
  54.1967673  90.4737948  13.8570442  54.1846343  91.4179788  14.0138713
  55.0891095  90.2908094  13.5629903  52.3703635 110.3975852  25.2828120
  53.2730882 110.4299463  25.5994615  52.1441005 109.4676303  25.2974456
  54.1257237 109.1506839  21.9438199  53.1752868 109.1508701  21.8302571
  54.4289723 108.4039573  21.4274233  58.0119793  87.0680725  18.1116379
  57.2452189  86.5139212  18.2573061  58.4230498  87.1402594  18.9730530
  50.0161554  93.3565521  32.2021560  50.8793015  93.0002326  32.4124885
  49.4426965  93.0179416  32.8896964  69.8609931 114.9867377  23.0083961
  70.4988341 114.8674125  22.3047301  69.7430774 115.9348221  23.0671913
  66.6699637 114.9394805  22.9445486  66.3318149 114.8235870  22.0566021
  67.5389405 114.5385970  22.9246492  67.1519420 116.0929657  28.9031691
  67.1408061 115.6982455  28.0312195  67.3140060 115.3595730  29.4965463
  60.0750885 118.2881473  21.7726597  60.8672177 117.9472298  21.3572896
  60.3147535 118.3976448  22.6928750  63.8726681 118.8766769  27.8510875
  63.5816547 119.7812400  27.7357541  64.5083666 118.9183297  28.5654945
  64.7982888 116.2543617  24.4412235  65.3946460 116.0299640  23.7269198
  64.8557860 115.5128363  25.0437683  69.4151199 112.7118831  20.0837169
  70.2014289 112.2938254  19.7327586  69.6789904 113.6164923  20.2518817
  72.3385047 106.3615638  25.4464756  72.0068372 107.2311049  25.2225971
  71.7430660 106.0451922  26.1258787  68.8316566 118.5628184  24.8460669
  68.5317289 119.4653223  24.7376476  68.4867626 118.2960368  25.6981822
  62.2829048 115.0141981  20.8797373  61.3579544 114.8818195  21.0875065
  62.5313461 115.7936201  21.3767316  72.2313710 111.0810725  22.5258106
  71.3230587 111.0126133  22.2316867  72.1801306 111.5582670  23.3539932
  59.6437859 114.6575255  21.7141162  59.7730240 114.9109734  22.6280574
  58.9635310 115.2502963  21.3945817  66.3054576 112.5000370  30.4693003
  65.5287910 113.0594290  30.4595868  66.9445139 112.9857153  30.9907874
  74.0975356 109.2827163  24.3035980  73.4549737 109.5759696  23.6575775
  73.5930285 109.1680083  25.1089177  64.5600948 115.3085824  30.0310970
  65.3015633 115.8470868  29.7545794  63.8537934 115.9352112  30.1882522
  70.0356288 117.4514964  28.6283132  70.4439644 117.0097375  27.8837764
  69.3133549 116.8767592  28.8817325  66.3887358 112.3887571  26.0016689
  67.2348553 112.8126984  26.1451338  66.3285996 111.7321195  26.6955252
  69.5386803 110.0491939  27.6597863  69.2947735 110.8034000  27.1232138
  69.8146734 110.4277287  28.4945110  71.4925266 116.5930552  26.3375128
  71.7042161 117.2362311  25.6609509  71.4455014 115.7592868  25.8697058
  69.0951495 109.2048372  23.2411700  68.2335974 109.5029626  23.5328438
  69.1213930 109.4218771  22.3092733  62.8037145 117.2962044  22.5865269
  63.3738502 117.7249313  21.9482754  63.3945257 117.0144629  23.2849455
  63.2962312 112.4625472  30.8326280  62.6660972 113.1441753  31.0661677
  63.1898400 112.3508553  29.8879419  58.5907284 112.1297268  21.7592205
  57.8006338 112.3854796  21.2832315  59.0818532 112.9445606  21.8644245
  60.5422030 112.4941847  18.7175681  59.7453193 112.6060541  19.2359177
  60.3147622 112.8328499  17.8516572  66.3727697 119.0186550  26.6658196
  66.4372130 119.4806957  27.5016368  65.6638621 118.3883915  26.7940506
  56.8744987 112.3827758  24.1907195  57.1253026 113.2674768  24.4564771
  57.4104536 112.2032360  23.4182287  62.5743055 106.7646238  33.1951531
  62.1810000 106.2112436  33.8699176  63.3909195 107.0756816  33.5858049
  65.4911016 108.1804117  30.7871788  66.2320729 108.7811270  30.7076251
  65.7228938 107.4381754  30.2289831  60.6352354 113.3660484  29.0650018
  60.5205869 112.4645741  29.3657117  59.7796871 113.6124181  28.7134834
  67.7144191 121.3078224  30.6637518  67.2708046 120.5214603  30.3458423
  68.3761405 121.4957375  29.9981409  62.4731313 122.8374026  25.1898197
  63.0238738 122.7091089  24.4175191  61.6342788 123.1368915  24.8393090
  69.8125429 121.5881024  28.6918920  69.7943905 122.4089905  28.1999189
  70.7345350 121.4635099  28.9169061  66.2698484 119.1025154  29.5342428
  66.8026820 118.3413442  29.3041736  65.7412565 118.8098805  30.2766582
  69.4368179 104.2085220  25.0636070  69.0932448 105.0986861  24.9875180
  69.8047141 104.0186877  24.2005655  57.5054029 116.5318750  17.8824672
  58.3429251 116.9415758  17.6658380  57.6832297 115.5918192  17.8524866
  66.9865572 109.0443532  18.6293743  66.1307169 108.6550382  18.4499382
  67.3992524 109.1235492  17.7693529  68.5164719 106.5789875  23.0285303
  68.0129515 106.5420010  22.2153108  68.8095326 107.4882617  23.0881960
  64.7607605 106.6628604  22.0351485  65.6260602 106.4671413  21.6757374
  64.8285114 106.4338956  22.9620841  62.3669924 108.8930812  19.4067852
  62.9413676 108.6705994  18.6741044  62.9540906 108.9619507  20.1596453
  64.6692592 105.7672061  18.1342921  64.0157004 105.4521078  17.5099536
  64.6273066 105.1447802  18.8602744  67.9030332 112.2553995  22.4590569
  66.9852893 112.4768942  22.3012257  68.3190476 112.3300305  21.6002276
  71.2355844 103.4678779  20.1653807  71.5414721 102.6076142  19.8779722
  71.9608449 104.0596399  19.9652801  57.5280200 113.8709465  18.5535405
  57.3304600 113.2778826  17.8286472  56.9726864 113.5661676  19.2711344
  65.5076924 113.7632572  20.6729998  65.5625534 112.8106408  20.5972475
  64.6968126 113.9192011  21.1571297  63.4469284 112.3809632  18.4320377
  62.6337149 112.6803802  18.8385569  63.9428278 111.9865320  19.1494860
  69.0443496 112.8451456  27.2635271  69.3992883 113.0722929  28.1229737
  69.6915627 113.1769833  26.6412527  62.9383359 109.9527987  24.0481612
  63.5782738 109.8116746  23.3504576  62.1060889 109.6662501  23.6720214
  68.5338507 121.6348513  24.5128972  68.5875529 122.2039449  25.2806688
  67.6653288 121.8050398  24.1483010  59.9411975 109.9228312  18.8254599
  60.2018792 110.8373645  18.7163760  60.7629147 109.4552755  18.9751212
  61.4136900 111.3366069  25.9953424  62.0859954 111.1283431  25.3466073
  60.5866687 111.1388155  25.5558656  67.3162472 107.9628010  28.0119085
  66.6690387 108.6617960  27.9183561  68.0863488 108.3964154  28.3795333
  70.7241270 118.2276862  31.0869638  70.5726777 117.9987414  30.1699721
  70.7145950 119.1847464  31.1000983  67.4926607 115.8008775  26.0715904
  68.4218667 115.9519935  25.8984872  67.0717637 115.8892796  25.2164551
  66.2914939 119.8259440  23.8414442  66.1526024 119.4578224  24.7140380
  65.5029535 120.3407079  23.6698400  61.8164398 114.6108672  26.7555861
  61.6784196 113.8788911  27.3567400  62.7269321 114.5217572  26.4740049
  64.4446698 114.3228632  26.2439540  65.1546317 113.6821824  26.2026159
  64.4016006 114.5741526  27.1665721  72.4333477 121.2595985  29.1646120
  72.3746023 120.5755205  28.4976703  72.8352995 122.0014975  28.7126746
  63.1575632 111.3093849  28.0635180  62.6212989 110.8584588  28.7156776
  62.5692341 111.4439758  27.3205644  72.4350884 119.2235569  27.3960099
  71.5477663 118.8861491  27.5186498  73.0049435 118.4918600  27.6328865
  54.0880031 115.5559661  20.7203151  54.7751071 115.2421391  20.1324166
  53.9328160 116.4601025  20.4470402  58.8914754 110.4449857  25.1488174
  58.8072942 109.8375527  24.4138584  58.0697460 110.9358875  25.1497671
  69.0638467 108.9303421  20.5158369  69.5607167 108.1773383  20.1959440
  68.2925449 108.9667737  19.9501579  68.4250721 123.7823855  26.5179501
  69.1378693 124.4171320  26.4455403  67.9340750 123.8787721  25.7019503
  65.6473436 111.0720804  20.2430054  65.2771224 110.5191844  20.9310960
  66.1432529 110.4678937  19.6905054  63.4762635 121.5318299  27.3385072
  64.1772094 122.1654782  27.4914466  63.0057750 121.8733030  26.5780711
  71.5057462 105.8973014  22.6637728  70.5920542 106.1277241  22.8319935
  71.9350564 105.9811458  23.5151761  71.2763921 114.0862906  25.1637622
  70.6235371 114.3338814  24.5090075  71.6544301 113.2727044  24.8300100
  67.3251494 114.8282717  31.6503659  66.6492131 114.7276847  32.3206035
  68.1479128 114.6721931  32.1139657  59.0730353 121.0654654  24.2716175
  59.6583790 120.3198342  24.4044079  58.8755191 121.3758610  25.1552839
  53.6648008 113.6360254  22.9920618  53.7032107 113.1023845  23.7857736
  53.1588300 113.1095459  22.3731595  61.0438770 108.4824794  26.4883160
  61.1080096 109.3439625  26.0760558  60.9805890 107.8698796  25.7555519
  60.5191042 110.5547927  30.1356194  61.1463081 110.1725004  30.7493719
  59.6618961 110.3362129  30.5011887  70.9185151 120.9610902  31.7409930
  71.4625055 121.5740860  31.2464885  70.3371996 121.5190481  32.2576943
  57.2956585 112.3624356  16.0674549  57.5910026 111.4535035  16.0141603
  56.3944621 112.3412096  15.7455552  60.8250832 110.4380353  22.0502098
  60.1037418 111.0516320  21.9109571  61.6144088 110.9738118  21.9718744
  63.6277146 107.7734779  28.3242750  64.1511547 108.0197076  29.0869059
  63.4089479 108.6054814  27.9045887  59.0244427 110.0438454  16.1913874
  58.6957133 109.1635833  16.0088980  59.3783797 109.9886122  17.0790264
  62.1386250 110.3311424  16.5589352  62.4782322 110.8597345  15.8367960
  62.5858370 110.6691830  17.3347919  64.8329691 108.7148474  26.0092420
  64.4926511 107.9156287  26.4113100  64.1268697 109.0150185  25.4369253
  65.4846162 105.7997787  24.4619743  66.3072232 105.3258265  24.3398633
  65.7284226 106.5788270  24.9618429  63.0084741 112.4916907  22.2711722
  62.8629322 112.8057210  23.1636003  62.5309945 113.1101808  21.7182620
  64.8681124 109.4819455  22.3192611  64.8542693 108.5860549  21.9824909
  65.5853552 109.4890119  22.9530897  66.7207255 109.9156796  24.3645739
  66.4625033 110.8373866  24.3630069  66.1892295 109.5187230  25.0546203
  57.4830403 115.0322252  25.2099383  56.9383871 115.8082060  25.3419657
  58.3609753 115.3793056  25.0518504  64.2718020 108.3633836  17.5880181
  64.3933931 107.4350482  17.7871069  63.9820062 108.3772522  16.6758497
  67.1409210 106.0488746  20.7246901  67.1630907 106.1128079  19.7698881
  67.5577269 105.2093255  20.9187407  58.2696425 114.1592148  28.1029540
  57.5278161 114.3074783  28.6894170  57.9489170 114.4200414  27.2396289
  66.2140088 123.7008126  27.9009930  66.5227214 123.4557273  28.7732629
  67.0115570 123.9054765  27.4128800  56.9161644 119.9643903  21.0928868
  56.0793552 119.5366078  20.9112869  56.8885289 120.1576347  22.0299659
  63.7559100 109.8765833  31.7970114  63.8047255 110.7527956  31.4147884
  64.2981614 109.3343226  31.2241757  74.2413945 120.4206956  31.0771251
  73.4509489 120.4031095  30.5375751  74.0047300 120.9595250  31.8320288
  74.3611820 117.2699423  28.3903980  74.4109825 117.1049430  29.3319502
  74.2525744 116.4026682  28.0001860  71.6515583 113.2530351  29.7063286
  72.5525445 113.1136816  29.4147284  71.7263557 113.4184805  30.6461464
  65.9858388 110.6297205  28.5516473  65.1161697 110.9230771  28.2799061
  66.2217868 111.2137650  29.2723736  75.8630017 119.6896364  28.6346001
  75.5714825 120.0526345  29.4709462  75.2502148 118.9763372  28.4559333
  74.1117205 114.8128979  27.1026059  74.5871327 115.0056625  26.2944911
  73.1882771 114.8688165  26.8569443  68.6897422 106.8476822  26.0681893
  69.2079366 107.5837849  25.7428382  68.3352555 107.1540816  26.9028652
  68.9410016 103.2677105  21.5882790  69.2211770 102.6000294  22.2143216
  69.7260623 103.4606200  21.0757454  72.8118874 111.6894739  25.3354365
  73.7636297 111.7892837  25.3566589  72.6422325 110.8973007  25.8452449
  70.8333254 108.7750322  25.5213766  70.2383186 109.0555335  24.8260254
  70.5482951 109.2644223  26.2930507  75.2906952 114.9100859  24.4496664
  75.2583272 113.9716859  24.6356348  75.9007576 114.9884895  23.7162489
  75.4401441 111.7011902  24.4954948  74.9240489 110.9170359  24.3084876
  76.3241389 111.3730619  24.6601467  73.1012168 105.4452918  20.4550760
  72.9036989 105.1368006  21.3394092  73.7111873 106.1714556  20.5848690
  67.0128976 117.8314658  31.9524525  67.9331985 118.0093257  32.1464572
  66.9778559 116.8870703  31.8004225  56.2311141 113.0253251  20.8777800
  55.9113925 112.1718560  20.5852174  55.6844569 113.2401829  21.6335767
  60.0091048 115.7415692  24.5947307  60.2277058 116.6732800  24.6135340
  60.4216822 115.3823667  25.3802110  66.9295266 106.2483778  16.5822995
  66.1195994 105.9030863  16.9578241  67.6179683 105.9391321  17.1710607
  68.8585814 105.3261824  18.2047292  69.4116853 105.7457278  18.8637315
  69.0955901 104.3997573  18.2470248  64.8818913 111.3148898  33.9850056
  64.7815640 112.2643255  33.9162147  64.6640455 110.9867137  33.1126126
  56.0999401 116.6456163  22.8470922  55.4062872 116.2310116  22.3340876
  56.8472392 116.6876699  22.2504341  70.6868188 106.8367407  19.9147276
  71.1867966 106.9483942  19.1061595  71.3303796 106.5328460  20.5548085
  64.7450184 114.7446037  32.8015117  64.2617265 115.5446397  33.0079006
  64.8311123 114.7553982  31.8482561  58.0136143 116.5774417  20.7236937
  57.9906831 116.6762104  19.7718820  58.3236780 117.4239567  21.0454103
  60.6723521 118.6350572  24.8383551  61.6266775 118.6034514  24.7713483
  60.4736045 118.1741195  25.6533777  61.2622903 117.2051688  27.4054349
  62.0815792 117.6995766  27.4289186  61.5359711 116.2883656  27.3771916
  74.3704035 109.6208961  20.4836643  75.1464426 110.1105413  20.7561260
  73.6452170 110.0467015  20.9408513  56.5157817 111.5389822  28.1046546
  57.1616681 111.0288776  28.5933771  56.3074968 112.2758503  28.6789971
  69.0411210 118.6070669  33.6038686  69.9102369 118.7811321  33.2425321
  68.5617961 119.4265086  33.4814416  63.2097390 125.7267770  25.2828120
  64.1124636 125.7591380  25.5994615  62.9834760 124.7968221  25.2974456
  68.8513547 102.3972643  18.1116379  68.0845943 101.8431130  18.2573061
  69.2624252 102.4694512  18.9730530  60.8555308 108.6857439  32.2021560
  61.7186770 108.3294243  32.4124885  60.2820719 108.3471333  32.8896964
  73.4136809 122.0938155  33.1951531  73.0203755 121.5404354  33.8699176
  74.2302949 122.4048734  33.5858049  76.3304770 123.5096034  30.7871788
  77.0714483 124.1103187  30.7076251  76.5622693 122.7673672  30.2289831
  71.3584797 125.8839845  30.1356194  71.9856836 125.5016922  30.7493719
  70.5012716 125.6654047  30.5011887  74.5952854 125.2057751  31.7970114
  74.6441010 126.0819873  31.4147884  75.1375368 124.6635144  31.2241757
  75.7212668 126.6440816  33.9850056  75.6209395 127.5935173  33.9162147
  75.5034210 126.3159055  33.1126126  67.3551572 126.8681739  28.1046546
  68.0010435 126.3580693  28.5933771  67.1468723 127.6050421  28.6789971
  71.6949063 124.0149356  32.2021560  72.5580524 123.6586161  32.4124885
  71.1214474 123.6763251  32.8896964  24.3569175  36.9972676  17.3882825
  23.9133029  36.2109055  17.0703729  25.0186388  37.1851827  16.7226716
  26.4550413  37.2775476  15.4164226  26.4368888  38.0984357  14.9244495
  27.3770333  37.1529551  15.6414367  27.3666254  33.9171314  17.8114944
  27.2151760  33.6881866  16.8945028  27.3570933  34.8741916  17.8246289
  29.0758460  36.9490437  15.8891426  29.0171006  36.2649657  15.2222009
  29.4777979  37.6909427  15.4372052  27.5610134  36.6505354  18.4655236
  28.1050038  37.2635312  17.9710191  26.9796979  37.2084932  18.9822250
  30.8838929  36.1101408  17.8016558  30.0934472  36.0925547  17.2621057
  30.6472283  36.6489702  18.5565594  32.5055000  35.3790816  15.3591308
  32.2139809  35.7420797  16.1954769  31.8927132  34.6657824  15.1804640
  25.6836193  34.2965121  20.3283993  26.5527352  34.4705773  19.9670628
  25.2042944  35.1159538  20.2059722  37.3428669  46.0053747   9.7329268
  37.9807079  45.8860494   9.0292608  37.2249511  46.9534591   9.7917220
  34.1518375  45.9581175   9.6690792  33.8136886  45.8422240   8.7811327
  35.0208143  45.5572340   9.6491798  34.6338158  47.1116027  15.6276998
  34.6226799  46.7168825  14.7557501  34.7958797  46.3782099  16.2210769
  27.5569623  49.3067843   8.4971904  28.3490914  48.9658668   8.0818203
  27.7966273  49.4162818   9.4174057  31.3545419  49.8953138  14.5756182
  31.0635285  50.7998769  14.4602848  31.9902403  49.9369666  15.2900251
  32.2801626  47.2729987  11.1657541  32.8765198  47.0486009  10.4514504
  32.3376597  46.5314732  11.7682989  42.2978364  43.6680434   7.7115454
  43.0303536  43.0979651   7.9453284  41.5417720  43.2802034   8.1521960
  39.8203785  37.3802008  12.1710063  39.4887109  38.2497419  11.9471278
  39.2249398  37.0638292  12.8504093  36.3135304  49.5814554  11.5705975
  36.0136027  50.4839593  11.4621783  35.9686364  49.3146737  12.4227128
  39.7132448  42.0997094   9.2503413  38.8049325  42.0312503   8.9562174
  39.6620044  42.5769039  10.0785238  31.2956084  56.3458874   4.5376943
  31.2180114  57.2966699   4.6165424  30.6917727  56.0004747   5.1951869
  33.7873314  43.5186740  17.1938310  33.0106648  44.0780660  17.1841175
  34.4263877  44.0043523  17.7153180  41.5794094  40.3013533  11.0281287
  40.9368475  40.5946066  10.3821081  41.0749023  40.1866453  11.8334483
  32.0419686  46.3272193  16.7556277  32.7834370  46.8657237  16.4791101
  31.3356671  46.9538482  16.9127829  37.5175026  48.4701334  15.3528439
  37.9258382  48.0283744  14.6083071  36.7952287  47.8953961  15.6062631
  33.8706096  43.4073940  12.7261996  34.7167291  43.8313354  12.8696645
  33.8104733  42.7507565  13.4200559  37.8403840  49.0302524   9.1080727
  37.2112703  49.1948238   8.4056795  37.4529502  49.4444134   9.8791691
  41.7193072  49.9656962   6.4625091  41.0344110  50.3455863   5.9122125
  41.8036921  50.5752289   7.1957039  37.0205541  41.0678309  14.3843169
  36.7766473  41.8220369  13.8477445  37.2965471  41.4463656  15.2190416
  38.9744004  47.6116921  13.0620435  39.1860899  48.2548681  12.3854816
  38.9273752  46.7779238  12.5942365  33.3931802  48.7676932   6.3730813
  33.8570148  49.0464635   5.5835435  33.1288600  47.8660377   6.1903903
  30.2855883  48.3148414   9.3110576  30.8557240  48.7435682   8.6728060
  30.8763995  48.0330999  10.0094761  30.7781050  43.4811841  17.5571587
  30.1479710  44.1628122  17.7906984  30.6717138  43.3694923  16.6124725
  40.0889832  50.4888877  11.2342792  40.9107275  50.0869064  10.9525474
  40.0852235  50.3857111  12.1858908  33.8546435  50.0372920  13.3903503
  33.9190868  50.4993327  14.2261674  33.1457359  49.4070285  13.5185812
  48.1795825  46.8327625   7.5827764  47.4259533  46.2635023   7.4271768
  48.3143366  46.7990290   8.5298398  30.0561792  37.7832607  19.9196838
  29.6628738  37.2298806  20.5944482  30.8727933  38.0943186  20.3103356
  28.8318735  52.3382222   5.9133161  29.0085363  53.2600186   5.7254145
  29.6275568  52.0240641   6.3427541  32.9729753  39.1990486  17.5117095
  33.7139467  39.7997639  17.4321557  33.2047676  38.4568124  16.9535137
  28.1171091  44.3846854  15.7895324  28.0024607  43.4832111  16.0902423
  27.2615609  44.6310550  15.4380141  35.1962929  52.3264594  17.3882825
  34.7526783  51.5400972  17.0703729  35.8580143  52.5143744  16.7226716
  29.9550050  53.8560395  11.9143503  30.5057475  53.7277459  11.1420497
  29.1161526  54.1555284  11.5638396  37.2944167  52.6067394  15.4164226
  37.2762643  53.4276275  14.9244495  38.2164087  52.4821469  15.6414367
  33.7517221  50.1211523  16.2587735  34.2845558  49.3599811  16.0287043
  33.2231303  49.8285175  17.0011889  40.0962780  47.4446536   8.8873593
  39.4386455  48.1345798   8.9753722  40.9003179  47.8342968   9.2307579
  38.9068239  45.7990909   6.9377535  39.4200121  46.4320901   7.4399244
  39.5569463  45.1992104   6.5720895  35.3849070  43.2740364   9.1835875
  34.4671631  43.4955311   9.0257563  35.8009213  43.3486675   8.3247583
  39.6730035  50.7796910   5.0656677  39.2192362  49.9387820   5.1221868
  39.0424002  51.4158309   5.4031457  38.1162974  52.6173407   6.0006495
  38.4085949  53.1778464   5.2818861  38.6261595  52.9101968   6.7559655
  33.0796600  53.3953758   7.0899949  33.0372778  53.6214604   6.1608481
  33.9959298  53.1617133   7.2385750  36.5262233  43.8637826  13.9880578
  36.8811621  44.0909299  14.8475044  37.1734365  44.1956202  13.3657833
  42.2559970  46.9856262   4.6929907  42.1177869  47.1757858   3.7651096
  41.8996189  47.7475644   5.1497958  42.2829350  49.0532789   9.7041178
  42.7165857  48.9608078  10.5524232  42.9960931  49.0290289   9.0661194
  31.1962400  50.2716787   6.8861911  31.9902999  49.7767107   6.6844486
  30.4854093  49.7434650   6.5229617  36.0157245  52.6534883  11.2374279
  36.0694267  53.2225819  12.0051995  35.1472026  52.8236768  10.8728316
  28.8955638  42.3552439  12.7198730  29.5678692  42.1469801  12.0711379
  28.0685425  42.1574525  12.2803963  43.1444899  49.0956489  12.2374064
  43.3380790  50.0002300  12.4833339  43.0445518  48.6363908  13.0712649
  34.7981210  38.9814380  14.7364391  34.1509125  39.6804329  14.6428868
  35.5682226  39.4150524  15.1040639  38.2060008  49.2463232  17.8114944
  38.0545515  49.0173784  16.8945028  38.1964688  50.2033833  17.8246289
  34.9745345  46.8195145  12.7961211  35.9037405  46.9706304  12.6230178
  34.5536375  46.9079165  11.9409857  33.7733676  50.8445809  10.5659748
  33.6344762  50.4764594  11.4385687  32.9848273  51.3593449  10.3943706
  34.3681828  55.9454906   1.9085285  34.5433584  55.4742949   2.7230908
  33.6814616  56.5720672   2.1366546  35.3238891  50.2227412   7.9548586
  34.9888724  50.1828182   8.8506236  34.8242837  49.5572128   7.4818996
  29.2983135  45.6295042  13.4801167  29.1602933  44.8975281  14.0812706
  30.2088059  45.5403942  13.1985355  31.9265436  45.3415001  12.9684847
  32.6365055  44.7008193  12.9271465  31.8834744  45.5927896  13.8911028
  39.9152215  52.2782355  15.8891426  39.8564761  51.5941575  15.2222009
  40.3171733  53.0201345  15.4372052  30.6394370  42.3280219  14.7880487
  30.1031727  41.8770958  15.4402083  30.0511079  42.4626128  14.0450951
  28.9342914  59.0944268   8.6825145  29.1739512  59.7262793   9.3604164
  28.0912110  58.7432308   8.9690504  39.9169622  50.2421938  14.1205406
  39.0296401  49.9047860  14.2431805  40.4868173  49.5104970  14.3574171
  33.4470775  54.9023391  11.0866649  33.3740947  55.7078362  11.5985954
  33.0048169  55.1015357  10.2614671  33.2360555  54.1395161   4.5969471
  32.4528077  54.6816841   4.6907695  33.9353300  54.6569140   4.9963712
  44.3986963  45.6530156   8.8821968  44.3876839  46.5354871   8.5115901
  43.5304342  45.3001707   8.6876505  35.9069459  54.8010225  13.2424808
  36.6197431  55.4357690  13.1700709  35.4159488  54.8974091  12.4264810
  37.6286986  48.7061478   4.8142099  36.6943265  48.8262940   4.6446804
  37.8063654  47.8033944   4.5502109  41.0159537  44.5478797   5.3492134
  41.4819989  45.3806788   5.2752436  41.4667038  44.0823778   6.0537392
  30.9581373  52.5504668  14.0630379  31.6590832  53.1841151  14.2159773
  30.4876488  52.8919400  13.3026018  38.7582658  45.1049276  11.8882929
  38.1054109  45.3525183  11.2335382  39.1363038  44.2913414  11.5545406
  35.7189832  55.1408969   5.9911099  35.9012227  54.3230625   6.4538852
  36.5422818  55.3576661   5.5535989  36.0531998  54.0677154   3.2526148
  36.5819764  53.5569609   2.6396310  36.3160217  53.7519684   4.1171681
  34.8070232  45.8469087  18.3748966  34.1310869  45.7463216  19.0451341
  35.6297865  45.6908301  18.8384963  26.5549091  52.0841023  10.9961481
  27.1402527  51.3384711  11.1289386  26.3573929  52.3944980  11.8798145
  29.4087746  55.1192271   6.0123924  28.7398121  55.6038398   5.5287964
  29.2700615  55.3661491   6.9267302  33.5493014  57.1536014  12.6106582
  34.1011322  57.3167636  13.3755667  33.8899208  57.7440452  11.9386607
  28.0009780  41.5734297  16.8601501  28.6281819  41.1911374  17.4739025
  27.1437699  41.3548499  17.2257194  38.4003889  51.9797272  18.4655236
  38.9443793  52.5927230  17.9710191  37.8190734  52.5376850  18.9822250
  36.6861402  55.1017990   9.5970264  36.5612541  54.3007730   9.0881210
  37.3440493  55.5964183   9.1084234  38.7496310  52.9027010  11.2249814
  37.8026646  52.7832361  11.1528141  39.0979083  52.0149508  11.3076076
  31.1095883  38.7921149  15.0488056  31.6330285  39.0383445  15.8114366
  30.8908217  39.6241184  14.6291194  35.7542743  52.6979726   7.4254167
  35.6067706  51.7696433   7.6061737  36.5796237  52.7199817   6.9411242
  39.3576865  53.5208285   8.5119039  40.2823413  53.3151146   8.3743490
  39.1892169  53.2724686   9.4208381  32.3148428  39.7334844  12.7337727
  31.9745249  38.9342657  13.1358407  31.6087435  40.0336555  12.1614560
  34.2025993  40.9343165  11.0891045  33.9443770  41.8560236  11.0875376
  33.6711033  40.5373600  11.7791509  39.1472181  54.0393952   3.8681131
  39.3209059  53.4740375   3.1154983  39.6401073  54.8394847   3.6860621
  24.9649141  46.0508621  11.9344690  24.4202609  46.8268429  12.0664964
  25.8428491  46.3979426  11.7763811  45.0011573  46.8030375   5.4871430
  45.4442719  46.0537700   5.0890554  44.1238083  46.7940512   5.1045162
  40.1347354  53.3560717   0.9678029  40.8298259  53.9767409   1.1865344
  40.4770504  52.5056068   1.2430407  25.7515163  45.1778518  14.8274846
  25.0096899  45.3261153  15.4139477  25.4307907  45.4386783  13.9641596
  42.0338777  50.8060422   2.4965360  42.5590101  51.1447695   1.7714680
  41.9461130  49.8707438   2.3128494  33.6958826  54.7194496  14.6255236
  34.0045952  54.4743643  15.4977936  34.4934308  54.9241134  14.1374107
  33.7179438  56.8732405   6.8560613  33.2784428  56.3808784   7.5493470
  34.4687555  56.3305373   6.6152688  26.1971777  53.0643946   6.8585241
  27.0229797  52.7647718   6.4783885  25.8465829  52.2951569   7.3075030
  31.1653310  52.4170415   8.9282915  30.5433319  51.7541120   8.6285143
  31.8358177  52.4431546   8.2456562  31.2377837  40.8952203  18.5215421
  31.2865993  41.7714325  18.1393190  31.7800352  40.3529596  17.9487064
  41.7232683  51.4393326  17.8016558  40.9328227  51.4217465  17.2621057
  41.4866038  51.9781620  18.5565594  41.8430558  48.2885792  15.1149286
  41.8928563  48.1235800  16.0564809  41.7344481  47.4213051  14.7247167
  39.1334321  44.2716720  16.4308593  40.0344183  44.1323185  16.1392591
  39.2082295  44.4371175  17.3706770  33.4677126  41.6483575  15.2761779
  32.5980435  41.9417141  15.0044368  33.7036606  42.2324020  15.9969043
  43.3448755  50.7082734  15.3591308  43.0533563  51.0712714  16.1954769
  42.7320886  49.9949742  15.1804640  44.5444437  48.2735614   7.8793878
  45.3791329  48.7125418   8.0431438  44.6803566  47.7974267   7.0602124
  41.5935943  45.8315348  13.8271366  42.0690065  46.0242995  13.0190217
  40.6701509  45.8874534  13.5814749  36.1716160  37.8663192  12.7927200
  36.6898104  38.6024219  12.4673688  35.8171292  38.1727185  13.6273959
  40.2937612  42.7081108  12.0599671  41.2455035  42.8079206  12.0811895
  40.1241063  41.9159377  12.5697756  38.3151992  39.7936692  12.2459072
  37.7201924  40.0741704  11.5505561  38.0301688  40.2830593  13.0175813
  42.7725690  45.9287228  11.1741971  42.7402010  44.9903229  11.3601655
  43.3826314  46.0071265  10.4407796  42.9220178  42.7198272  11.2200254
  42.4059227  41.9356728  11.0330183  43.8060127  42.3916988  11.3846774
  48.5902240  46.9903235  10.3148008  49.3205628  46.7288523  10.8755711
  47.9809185  46.2531957  10.3550076  46.6717537  45.1311098  10.9122459
  45.9450701  44.9967062  10.3038951  46.2564824  45.4387926  11.7179177
  34.4947713  48.8501027  18.6769832  35.4150723  49.0279626  18.8709879
  34.4597296  47.9057073  18.5249531  27.4909786  46.7602062  11.3192613
  27.7095796  47.6919170  11.3380647  27.9035560  46.4010036  12.1047417
  32.3637651  42.3335268  20.7095362  32.2634378  43.2829625  20.6407453
  32.1459193  42.0053507  19.8371432  32.2268921  45.7632406  19.5260424
  31.7436003  46.5632767  19.7324313  32.3129860  45.7740351  18.5727868
  28.1542259  49.6536941  11.5628858  29.1085512  49.6220884  11.4958789
  27.9554782  49.1927565  12.3779084  28.7441641  48.2238057  14.1299655
  29.5634530  48.7182136  14.1534493  29.0178449  47.3070025  14.1017223
  41.8522773  40.6395331   7.2081950  42.6283163  41.1291783   7.4806567
  41.1270907  41.0653385   7.6653820  44.2895332  41.3522950   8.2655891
  44.8839823  41.1118686   7.5549199  44.3621916  40.6330080   8.8929427
  26.5092488  55.1956561   8.5799055  26.3746956  54.4356962   8.0137054
  26.0924550  55.9197461   8.1127844  46.5966405  44.6589151   7.0399312
  46.0365963  44.7282340   7.8130874  45.9909908  44.4830135   6.3198808
  29.6661613  56.0925878   8.7917498  29.5493998  57.0371310   8.6896188
  28.8454060  55.7899439   9.1803297  23.9976555  42.5576191  14.8291852
  24.6435419  42.0475145  15.3179078  23.7893706  43.2944873  15.4035278
  36.5229947  49.6257039  20.3283993  37.3921107  49.7997691  19.9670628
  36.0436699  50.4451455  20.2059722  30.6916128  56.7454140  12.0073427
  31.5943374  56.7777750  12.3239922  30.4653498  55.8154591  12.0219762
  32.4469730  55.4985126   8.6683505  31.4965361  55.4986988   8.5547877
  32.7502216  54.7517861   8.1519540  28.3374046  39.7043808  18.9266867
  29.2005508  39.3480613  19.1370191  27.7639457  39.3657703  19.6142271
  48.1822423  61.3345665   9.7329268  48.8200833  61.2152412   9.0292608
  48.0643266  62.2826508   9.7917220  44.9912129  61.2873093   9.6690792
  44.6530641  61.1714157   8.7811327  45.8601898  60.8864258   9.6491798
  40.8498945  63.1408569   5.6587683  40.2863810  63.0498506   4.8903971
  40.7351340  62.3208474   6.1390176  45.4731912  62.4407944  15.6276998
  45.4620553  62.0460743  14.7557501  45.6352552  61.7074017  16.2210769
  38.3963377  64.6359761   8.4971904  39.1884669  64.2950585   8.0818203
  38.6360027  64.7454736   9.4174057  46.4298504  66.8079537   0.9702148
  45.7786484  67.3933617   0.5836162  47.2242867  67.3385732   1.0297186
  40.3554131  63.8968674   1.3689282  41.1285007  63.3497661   1.2302158
  40.7079530  64.7612923   1.5803744  42.1939173  65.2245056  14.5756182
  41.9029039  66.1290687  14.4602848  42.8296158  65.2661584  15.2900251
  43.1195380  62.6021905  11.1657541  43.7158953  62.3777927  10.4514504
  43.1770352  61.8606650  11.7682989  42.6920409  60.0561340  -0.9992268
  42.9445929  59.5342861  -1.7608805  41.7544968  59.8927485  -0.8965584
  47.7363692  59.0597118   6.8082476  48.5226781  58.6416542   6.4572893
  48.0002396  59.9643211   6.9764124  47.9073769  64.4969969   1.5071132
  47.2719602  64.5704595   2.2192037  47.5771175  65.0863568   0.8290212
  53.1372119  58.9972352   7.7115454  53.8697291  58.4271568   7.9453284
  52.3811474  58.6093952   8.1521960  42.4116697  61.9589446   1.2032107
  42.2952956  61.2834349   1.8713192  42.5218957  61.4721820   0.3864260
  44.7548238  61.4199593   4.9078797  44.3906446  60.8930214   5.6191718
  45.6115354  61.0298062   4.7345282  50.6597539  52.7093926  12.1710063
  50.3280864  53.5789337  11.9471278  50.0643152  52.3930210  12.8504093
  44.3953725  56.4489493  -0.0959855  44.5628128  57.3169729   0.2710616
  44.2050894  56.6116774  -1.0198566  47.1529059  64.9106472  11.5705975
  46.8529782  65.8131510  11.4621783  46.8080118  64.6438655  12.4227128
  40.6041540  61.3620269   7.6042680  39.6792037  61.2296483   7.8120372
  40.8525953  62.1414488   8.1012622  50.5526202  57.4289012   9.2503413
  49.6443080  57.3604420   8.9562174  50.5013798  57.9060957  10.0785238
  44.3742946  58.9047150   0.8886812  44.2542571  59.3504201   1.7272292
  43.6795535  59.2532468   0.3300350  37.9650351  61.0053542   8.4386469
  38.0942732  61.2588021   9.3525881  37.2847802  61.5981250   8.1191124
  42.1349838  71.6750792   4.5376943  42.0573868  72.6258617   4.6165424
  41.5311482  71.3296665   5.1951869  44.6267068  58.8478657  17.1938310
  43.8500402  59.4072578  17.1841175  45.2657631  59.3335440  17.7153180
  52.4187849  55.6305450  11.0281287  51.7762229  55.9237983  10.3821081
  51.9142777  55.5158371  11.8334483  50.0728012  59.3768623   1.7167146
  50.9845869  59.6096010   1.5414844  49.5637659  59.9605668   1.1542225
  42.8813440  61.6564111  16.7556277  43.6228125  62.1949155  16.4791101
  42.1750426  62.2830400  16.9127829  48.3568780  63.7993251  15.3528439
  48.7652136  63.3575662  14.6083071  47.6346042  63.2245879  15.6062631
  44.7099850  58.7365858  12.7261996  45.5561045  59.1605272  12.8696645
  44.6498488  58.0799482  13.4200559  48.6797595  64.3594442   9.1080727
  48.0506457  64.5240156   8.4056795  48.2923257  64.7736051   9.8791691
  52.5586827  65.2948880   6.4625091  51.8737865  65.6747781   5.9122125
  52.6430676  65.9044206   7.1957039  47.8599295  56.3970226  14.3843169
  47.6160227  57.1512287  13.8477445  48.1359226  56.7755574  15.2190416
  49.8137758  62.9408839  13.0620435  50.0254653  63.5840599  12.3854816
  49.7667506  62.1071155  12.5942365  47.4163987  55.5526659   9.9657007
  46.5548466  55.8507913  10.2573744  47.4426422  55.7697058   9.0338040
  44.2325557  64.0968850   6.3730813  44.6963902  64.3756553   5.5835435
  43.9682355  63.1952295   6.1903903  41.1249638  63.6440332   9.3110576
  41.6950995  64.0727600   8.6728060  41.7157750  63.3622916  10.0094761
  43.1694443  60.2192002   3.1820378  43.8718486  60.6713046   3.6494304
  42.8375071  59.5775821   3.8100271  41.6174804  58.8103759  17.5571587
  40.9873465  59.4920040  17.7906984  41.5110892  58.6986841  16.6124725
  36.9119777  58.4775555   8.4837511  36.1218831  58.7333084   8.0077622
  37.4031024  59.2923893   8.5889552  50.9283586  65.8180794  11.2342792
  51.7501030  65.4160981  10.9525474  50.9245989  65.7149028  12.1858908
  38.8634522  58.8420134   5.4420988  38.0665685  58.9538829   5.9604484
  38.6360114  59.1806786   4.5761878  44.6940190  65.3664837  13.3903503
  44.7584622  65.8285245  14.2261674  43.9851114  64.7362202  13.5185812
  35.1957480  58.7306045  10.9152502  35.4465518  59.6153055  11.1810078
  35.7317028  58.5510647  10.1427594  59.0189579  62.1619543   7.5827764
  58.2653288  61.5926941   7.4271768  59.1537120  62.1282207   8.5298398
  44.4088207  67.0332945   3.2582483  44.2733882  67.8784481   3.6867331
  44.9498020  67.2352223   2.4948417  40.8955547  53.1124525  19.9196838
  40.5022492  52.5590723  20.5944482  41.7121687  53.4235103  20.3103356
  37.8617605  64.5508383   3.8310408  38.3742125  65.3451633   3.9815973
  38.5140318  63.8534673   3.7644009  39.6712489  67.6674139   5.9133161
  39.8479118  68.5892104   5.7254145  40.4669323  67.3532559   6.3427541
  43.8123508  54.5282404  17.5117095  44.5533221  55.1289557  17.4321557
  44.0441431  53.7860042  16.9535137  38.9564846  59.7138771  15.7895324
  38.8418361  58.8124028  16.0902423  38.1009364  59.9602468  15.4380141
  46.0356684  67.6556511  17.3882825  45.5920538  66.8692890  17.0703729
  46.6973897  67.8435662  16.7226716  40.7943805  69.1852313  11.9143503
  41.3451230  69.0569376  11.1420497  39.9555281  69.4847202  11.5638396
  48.1337922  67.9359311  15.4164226  48.1156397  68.7568192  14.9244495
  49.0557842  67.8113387  15.6414367  44.5910976  65.4503441  16.2587735
  45.1239313  64.6891729  16.0287043  44.0625057  65.1577093  17.0011889
  47.7580671  50.5563507  11.7881376  47.4144940  51.4465149  11.7120487
  48.1259633  50.3665165  10.9250961  35.8266521  62.8797037   4.6069979
  36.6641743  63.2894046   4.3903686  36.0044789  61.9396479   4.5770172
  47.7230954  60.5472118   0.2953811  47.2077577  61.3176723   0.5342199
  47.4508262  59.8737254   0.9186873  45.3078065  55.3921819   5.3539050
  44.4519661  55.0028669   5.1744689  45.7205016  55.4713780   4.4938835
  46.8377211  52.9268162   9.7530610  46.3342007  52.8898297   8.9398415
  47.1307818  53.8360905   9.8127266  43.0820097  53.0106892   8.7596791
  43.9473094  52.8149700   8.4002681  43.1497606  52.7817244   9.6866148
  52.6965228  63.3004473   2.2306985  51.9194670  62.9615632   1.7862147
  53.3756709  63.3057096   1.5561950  47.5117257  58.4199210   2.1213593
  47.2067392  58.7345359   2.9723736  48.4647699  58.4980630   2.1640926
  45.9563689  64.5789433   3.7706547  45.4285050  63.8442193   3.4579784
  45.4551191  65.3564110   3.5246515  50.9356535  62.7738454   8.8873593
  50.2780209  63.4637715   8.9753722  51.7396934  63.1634886   9.2307579
  40.6882416  55.2409100   6.1313158  41.2626168  55.0184281   5.3986351
  41.2753399  55.3097794   6.8841759  49.7461993  61.1282827   6.9377535
  50.2593875  61.7612818   7.4399244  50.3963217  60.5284022   6.5720895
  41.0152003  57.2713561   0.1509043  40.1789316  57.6088247   0.4718318
  40.8756773  57.1362540  -0.7863820  42.9905084  52.1150349   4.8588228
  42.3369496  51.7999366   4.2344842  42.9485558  51.4926089   5.5848051
  44.1016289  62.3969644  -3.2258480  43.1943351  62.1658897  -3.0267331
  44.5987321  61.6007263  -3.0384499  47.0084368  71.1067151  -0.3061794
  46.3346066  71.4098848   0.3023164  47.3950190  71.9096231  -0.6556337
  46.2242824  58.6032282   9.1835875  45.3065386  58.8247229   9.0257563
  46.6402968  58.6778593   8.3247583  47.0077872  60.0023698   4.3138555
  47.7549691  60.5145095   4.0045678  47.2769462  59.6807751   5.1742949
  45.2804522  62.4982239   1.2965510  44.3715741  62.2141271   1.3937980
  45.3099606  62.9181317   0.4368817  50.5123790  66.1088828   5.0656677
  50.0586117  65.2679738   5.1221868  49.8817756  66.7450226   5.4031457
  49.4556709  57.0380814   6.2957345  48.7179466  56.5258200   6.6267587
  49.7083483  56.5981196   5.4840622  48.9556729  67.9465325   6.0006495
  49.2479703  68.5070382   5.2818861  49.4655349  68.2393886   6.7559655
  49.5568337  49.8157066   6.8899114  49.8627213  48.9554429   6.6025029
  50.2820941  50.4074686   6.6898108  35.8492693  60.2187753   5.2780712
  35.6517092  59.6257113   4.5531779  35.2939357  59.9139963   5.9956651
  43.8289416  60.1110859   7.3975305  43.8838026  59.1584696   7.3217782
  43.0180618  60.2670298   7.8816604  44.9780610  64.0390982  -1.3646412
  44.5400040  63.3226841  -1.8240774  45.7191051  64.2667097  -1.9261320
  41.7681776  58.7287919   5.1565684  40.9549642  59.0282089   5.5630876
  42.2640770  58.3343608   5.8740166  43.9190354  68.7245676   7.0899949
  43.8766533  68.9506522   6.1608481  44.8353053  68.4909050   7.2385750
  47.3655988  59.1929743  13.9880578  47.7205376  59.4201216  14.8475044
  48.0128119  59.5248120  13.3657833  53.0953725  62.3148179   4.6929907
  52.9571623  62.5049775   3.7651096  52.7389944  63.0767562   5.1497958
  41.2595851  56.3006274  10.7726919  41.8995230  56.1595033  10.0749882
  40.4273381  56.0140788  10.3965521  53.1223104  64.3824706   9.7041178
  53.5559611  64.2899995  10.5524232  53.8354685  64.3582207   9.0661194
  42.0356155  65.6008705   6.8861911  42.8296753  65.1059025   6.6844486
  41.3247847  65.0726568   6.5229617  46.8550999  67.9826800  11.2374279
  46.9088022  68.5517737  12.0051995  45.9865781  68.1528685  10.8728316
  38.3438918  59.7451787   2.9621664  37.4136506  59.6836242   3.1791626
  38.4396390  59.2227739   2.1658305  38.2624467  56.2706599   5.5499906
  38.5231285  57.1851933   5.4409066  39.0841640  55.8031042   5.6996519
  39.7349393  57.6844357  12.7198730  40.4072446  57.4761719  12.0711379
  38.9079179  57.4866443  12.2803963  53.9838654  64.4248407  12.2374064
  54.1774544  65.3294217  12.4833339  53.8839272  63.9655826  13.0712649
  45.6374965  54.3106297  14.7364391  44.9902880  55.0096247  14.6428868
  46.4075980  54.7442441  15.1040639  49.0453763  64.5755150  17.8114944
  48.8939269  64.3465701  16.8945028  49.0358442  65.5325751  17.8246289
  45.8139099  62.1487062  12.7961211  46.7431159  62.2998222  12.6230178
  45.3930129  62.2371083  11.9409857  44.6127431  66.1737727  10.5659748
  44.4738517  65.8056511  11.4385687  43.8242027  66.6885366  10.3943706
  45.2075583  71.2746823   1.9085285  45.3827338  70.8034866   2.7230908
  44.5208371  71.9012589   2.1366546  46.1632646  65.5519329   7.9548586
  45.8282479  65.5120099   8.8506236  45.6636592  64.8864045   7.4818996
  40.1376890  60.9586960  13.4801167  39.9996688  60.2267198  14.0812706
  41.0481813  60.8695860  13.1985355  49.0991838  62.8975364  -1.7714354
  48.4821008  62.1722192  -1.8681301  48.6308326  63.6584724  -2.1147280
  42.7659191  60.6706919  12.9684847  43.4758809  60.0300111  12.9271465
  42.7228499  60.9219814  13.8911028  50.7545969  67.6074272  15.8891426
  50.6958515  66.9233492  15.2222009  51.1565488  68.3493262  15.4372052
  41.4788125  57.6572137  14.7880487  40.9425482  57.2062875  15.4402083
  40.8904833  57.7918046  14.0450951  39.7736668  74.4236186   8.6825145
  40.0133266  75.0554710   9.3604164  38.9305865  74.0724226   8.9690504
  50.7563377  65.5713856  14.1205406  49.8690155  65.2339778  14.2431805
  51.3261928  64.8396887  14.3574171  32.4092524  61.9037948   7.4448457
  33.0963564  61.5899678   6.8569473  32.2540652  62.8079313   7.1715709
  37.2127246  56.7928144  11.8733481  37.1285435  56.1853814  11.1383891
  36.3909952  57.2837163  11.8742977  44.2864530  70.2315308  11.0866649
  44.2134701  71.0370280  11.5985954  43.8441923  70.4307274  10.2614671
  44.0754310  69.4687078   4.5969471  43.2921831  70.0108759   4.6907695
  44.7747055  69.9861058   4.9963712  47.3850960  55.2781708   7.2403676
  47.8819659  54.5251670   6.9204746  46.6137941  55.3146025   6.6746885
  55.2380717  60.9822073   8.8821968  55.2270593  61.8646789   8.5115901
  54.3698097  60.6293624   8.6876505  46.7463213  70.1302142  13.2424808
  47.4591186  70.7649607  13.1700709  46.2553242  70.2266008  12.4264810
  48.4680740  64.0353395   4.8142099  47.5337019  64.1554858   4.6446804
  48.6457409  63.1325862   4.5502109  43.9685928  57.4199091   6.9675361
  43.5983716  56.8670131   7.6556266  44.4645021  56.8157224   6.4150361
  51.8553292  59.8770714   5.3492134  52.3213744  60.7098706   5.2752436
  52.3060792  59.4115696   6.0537392  41.7975127  67.8796586  14.0630379
  42.4984587  68.5133069  14.2159773  41.3270242  68.2211318  13.3026018
  49.9229523  66.2214536   2.3478286  50.1989367  66.1071130   3.2572160
  49.0534022  65.8232021   2.3090459  49.8269954  52.2451301   9.3883035
  48.9133034  52.4755528   9.5565242  50.2563056  52.3289746  10.2397067
  49.5976413  60.4341193  11.8882929  48.9447863  60.6817101  11.2335382
  49.9756793  59.6205332  11.5545406  46.5583587  70.4700887   5.9911099
  46.7405981  69.6522543   6.4538852  47.3816573  70.6868579   5.5535989
  46.8925752  69.3969072   3.2526148  47.4213519  68.8861526   2.6396310
  47.1553972  69.0811602   4.1171681  45.6463986  61.1761004  18.3748966
  44.9704623  61.0755134  19.0451341  46.4691620  61.0200218  18.8384963
  37.3942845  67.4132941  10.9961481  37.9796282  66.6676629  11.1289386
  37.1967684  67.7236898  11.8798145  40.2481500  70.4484188   6.0123924
  39.5791876  70.9330316   5.5287964  40.1094370  70.6953409   6.9267302
  31.9860500  59.9838541   9.7165924  32.0244599  59.4502132  10.5103043
  31.4800793  59.4573747   9.0976902  44.3886769  72.4827932  12.6106582
  44.9405077  72.6459553  13.3755667  44.7292962  73.0732370  11.9386607
  39.3651262  54.8303082  13.2128467  39.4292589  55.6917913  12.8005864
  39.3018382  54.2177083  12.4800825  38.8403535  56.9026214  16.8601501
  39.4675573  56.5203292  17.4739025  37.9831453  56.6840416  17.2257194
  49.2397643  67.3089189  18.4655236  49.7837547  67.9219148  17.9710191
  48.6584488  67.8668768  18.9822250  35.6169077  58.7102643   2.7919856
  35.9122518  57.8013322   2.7386910  34.7157113  58.6890383   2.4700858
  47.5255156  70.4309907   9.5970264  47.4006296  69.6299647   9.0881210
  48.1834247  70.9256101   9.1084234  39.1463324  56.7858640   8.7747404
  38.4249910  57.3994608   8.6354878  39.9356580  57.3216405   8.6964050
  49.5890065  68.2318928  11.2249814  48.6420400  68.1124279  11.1528141
  49.9372838  67.3441426  11.3076076  41.9489638  54.1213066  15.0488056
  42.4724040  54.3675363  15.8114366  41.7301971  54.9533101  14.6291194
  37.3456919  56.3916741   2.9159181  37.0169625  55.5114120   2.7334287
  37.6996290  56.3364410   3.8035570  46.5936498  68.0271644   7.4254167
  46.4461460  67.0988351   7.6061737  47.4189991  68.0491734   6.9411242
  40.4598742  56.6789711   3.2834659  40.7994815  57.2075632   2.5613267
  40.9070863  57.0170117   4.0593225  50.1970620  68.8500202   8.5119039
  51.1217167  68.6443064   8.3743490  50.0285923  68.6016604   9.4208381
  43.1542183  55.0626762  12.7337727  42.8139003  54.2634575  13.1358407
  42.4481189  55.3628472  12.1614560  43.8058655  52.1476074  11.1865050
  44.6284724  51.6736552  11.0643940  44.0496718  52.9266558  11.6863736
  42.4466889  55.1764332   1.4827951  43.1675252  55.5545585   0.9791668
  41.8232193  55.8953209   1.5862929  46.5898012  55.8809481   2.4186284
  46.8061627  56.7634119   2.1175112  46.1092079  55.4895695   1.6891926
  41.3297234  58.8395195   8.9957028  41.1841814  59.1535498   9.8881310
  40.8522437  59.4580095   8.4427927  43.1893616  55.8297743   9.0437918
  43.1755185  54.9338836   8.7070216  43.9066045  55.8368406   9.6776204
  45.0419747  56.2635083  11.0891045  44.7837525  57.1852153  11.0875376
  44.5104788  55.8665517  11.7791509  49.9865936  69.3685870   3.8681131
  50.1602813  68.8032292   3.1154983  50.4794827  70.1686765   3.6860621
  35.8042896  61.3800539  11.9344690  35.2596364  62.1560347  12.0664964
  36.6822246  61.7271343  11.7763811  42.5930512  54.7112123   4.3125488
  42.7146424  53.7828769   4.5116376  42.3032555  54.7250809   3.4003803
  45.4621703  52.3967033   7.4492208  45.4843400  52.4606366   6.4944187
  45.8789762  51.5571542   7.6432714  55.8405327  62.1322293   5.4871430
  56.2836473  61.3829618   5.0890554  54.9631837  62.1232429   5.1045162
  50.9741108  68.6852634   0.9678029  51.6692013  69.3059327   1.1865344
  51.3164259  67.8347986   1.2430407  36.5908918  60.5070435  14.8274846
  35.8490654  60.6553071  15.4139477  36.2701662  60.7678701  13.9641596
  52.8732532  66.1352340   2.4965360  53.3983856  66.4739613   1.7714680
  52.7854884  65.1999355   2.3128494  44.5352580  70.0486414  14.6255236
  44.8439707  69.8035560  15.4977936  45.3328062  70.2533052  14.1374107
  44.5573192  72.2024323   6.8560613  44.1178183  71.7100702   7.5493470
  45.3081309  71.6597291   6.6152688  37.0365531  68.3935864   6.8585241
  37.8623551  68.0939636   6.4783885  36.6859583  67.6243486   7.3075030
  42.0047064  67.7462332   8.9282915  41.3827074  67.0833037   8.6285143
  42.6751931  67.7723464   8.2456562  35.2374136  66.3122190   7.8174175
  34.4006045  65.8844365   7.6358176  35.2097782  66.5054634   8.7544966
  42.0771592  56.2244120  18.5215421  42.1259747  57.1006243  18.1393190
  42.6194106  55.6821513  17.9487064  52.5626438  66.7685244  17.8016558
  51.7721981  66.7509382  17.2621057  52.3259792  67.3073537  18.5565594
  52.6824313  63.6177710  15.1149286  52.7322318  63.4527717  16.0564809
  52.5738236  62.7504969  14.7247167  41.5660571  66.2966256   2.4041375
  41.7148692  66.9801720   1.7508048  42.3727015  66.2771346   2.9190831
  49.9728075  59.6008638  16.4308593  50.8737938  59.4615103  16.1392591
  50.0476050  59.7663093  17.3706770  44.3070880  56.9775493  15.2761779
  43.4374190  57.2709059  15.0044368  44.5430361  57.5615938  15.9969043
  54.1842509  66.0374651  15.3591308  53.8927318  66.4004632  16.1954769
  53.5714641  65.3241660  15.1804640  55.3838192  63.6027531   7.8793878
  56.2185083  64.0417335   8.0431438  55.5197321  63.1266184   7.0602124
  52.4329698  61.1607266  13.8271366  52.9083819  61.3534912  13.0190217
  51.5095263  61.2166452  13.5814749  39.3213204  62.3231433   3.4102444
  39.0759246  61.4193763   3.6082654  39.4909119  62.3248584   2.4681922
  47.0109914  53.1955110  12.7927200  47.5291858  53.9316137  12.4673688
  46.6565047  53.5019103  13.6273959  38.5908852  58.0559791   0.9088606
  37.8978097  58.1304146   0.2528642  38.3460604  57.2920134   1.4310122
  47.2622508  49.6155392   8.3128096  47.5424262  48.9478581   8.9388523
  48.0473115  49.8084488   7.8002760  45.0655977  68.7914386  -0.1246877
  44.4929944  69.4104573  -0.5776406  45.6388771  69.3413748   0.4093045
  51.1331367  58.0373026  12.0599671  52.0848790  58.1371124  12.0811895
  50.9634817  57.2451295  12.5697756  49.1545746  55.1228609  12.2459072
  48.5595678  55.4033622  11.5505561  48.8695443  55.6122510  13.0175813
  48.2853237  69.0751536   1.0061705  49.2183910  69.0097098   1.2094580
  48.1976449  69.9107803   0.5476238  50.9141253  68.3917406  -2.0334348
  50.8354885  68.0577270  -1.1398590  51.7350920  68.8839174  -2.0342875
  53.6119444  61.2579146  11.1741971  53.5795765  60.3195147  11.3601655
  54.2220068  61.3363183  10.4407796  45.4502775  60.1275199  -2.7830825
  46.3961880  59.9981407  -2.7142407  45.0717020  59.3889861  -2.3061397
  53.7613933  58.0490189  11.2200254  53.2452982  57.2648646  11.0330183
  54.6453881  57.7208906  11.3846774  51.4224660  51.7931205   7.1796067
  51.2249481  51.4846293   8.0639399  52.0324365  52.5192844   7.3093997
  59.4295994  62.3195153  10.3148008  60.1599383  62.0580441  10.8755711
  58.8202940  61.5823875  10.3550076  57.5111291  60.4603015  10.9122459
  56.7844455  60.3258980  10.3038951  57.0958578  60.7679844  11.7179177
  45.3341468  64.1792945  18.6769832  46.2544477  64.3571544  18.8709879
  45.2991051  63.2348990  18.5249531  43.6345692  58.0525175  -2.8475940
  42.7277148  57.7558288  -2.7713226  43.9121673  57.7554993  -3.7141653
  34.5523633  59.3731539   7.6023107  34.2326417  58.5196847   7.3097481
  34.0057061  59.5880117   8.3581074  38.3303540  62.0893980  11.3192613
  38.5489550  63.0211087  11.3380647  38.7429314  61.7301954  12.1047417
  45.2507758  52.5962065   3.3068302  44.4408487  52.2509150   3.6823548
  45.9392175  52.2869609   3.8955913  47.1798306  51.6740112   4.9292598
  47.7329345  52.0935565   5.5882621  47.4168393  50.7475860   4.9715554
  43.2031406  57.6627185  20.7095362  43.1028133  58.6121542  20.6407453
  42.9852948  57.3345424  19.8371432  34.4211893  62.9934450   9.5716228
  33.7275364  62.5788403   9.0586183  35.1684884  63.0354987   8.9749647
  50.5577114  53.7840637   4.4371263  49.9775783  54.4425441   4.0549315
  50.2913046  52.9617981   4.0258680  49.0080680  53.1845695   6.6392583
  49.5080458  53.2962229   5.8306902  49.6516288  52.8806747   7.2793391
  43.0662676  61.0924324  19.5260424  42.5829757  61.8924684  19.7324313
  43.1523615  61.1032269  18.5727868  36.3348635  62.9252704   7.4482243
  36.3119324  63.0240391   6.4964126  36.6449272  63.7717855   7.7699409
  38.9936013  64.9828859  11.5628858  39.9479267  64.9512801  11.4958789
  38.7948537  64.5219483  12.3779084  39.5835395  63.5529975  14.1299655
  40.4028284  64.0474054  14.1534493  39.8572203  62.6361943  14.1017223
  49.3401992  55.9440727   3.4927611  48.4527847  56.2290378   3.2747806
  49.7555981  55.7834491   2.6454888  52.6916528  55.9687248   7.2081950
  53.4676918  56.4583701   7.4806567  51.9664662  56.3945302   7.6653820
  55.1289086  56.6814867   8.2655891  55.7233577  56.4410603   7.5549199
  55.2015670  55.9621998   8.8929427  37.3486242  70.5248478   8.5799055
  37.2140710  69.7648879   8.0137054  36.9318304  71.2489378   8.1127844
  48.4845205  65.7085402  -2.4124369  49.1881055  65.9135404  -1.7966714
  47.7607854  66.2762164  -2.1475286  49.3143015  61.4595263   3.7077901
  49.2578217  61.9163815   2.8685533  49.8671358  60.6985948   3.5300744
  53.1247821  57.2484995   4.5328020  52.8684755  56.8481631   5.3636228
  52.5000689  57.9628789   4.4078160  57.4360159  59.9881068   7.0399312
  56.8759717  60.0574258   7.8130874  56.8303662  59.8122053   6.3198808
  40.5055368  71.4217795   8.7917498  40.3887752  72.3663228   8.6896188
  39.6847814  71.1191357   9.1803297  50.3931902  66.1467931  -0.3625909
  51.2277506  65.7149130  -0.5448434  50.2316245  65.9749945   0.5650985
  50.0477795  62.6500044   1.0030430  49.9926598  62.4844316   0.0618874
  49.4223850  63.3576077   1.1592620  34.8370310  57.8868109  14.8291852
  35.4829173  57.3767063  15.3179078  34.6287461  58.6236790  15.4035278
  47.3623702  64.9548956  20.3283993  48.2314861  65.1289609  19.9670628
  46.8830453  65.7743373  20.2059722  43.3573920  52.1508153   0.5815749
  43.3452590  53.0949993   0.7384019  44.2497342  51.9678299   0.2875210
  41.5309882  72.0746057  12.0073427  42.4337129  72.1069668  12.3239922
  41.3047252  71.1446508  12.0219762  43.2863484  70.8277044   8.6683505
  42.3359115  70.8278905   8.5547877  43.5895970  70.0809778   8.1519540
  47.1726040  48.7450930   4.8361685  46.4058435  48.1909417   4.9818368
  47.5836745  48.8172799   5.6975837  39.1767801  55.0335726  18.9266867
  40.0399262  54.6772531  19.1370191  38.6033211  54.6949621  19.6142271
  59.0216178  76.6637582   9.7329268  59.6594588  76.5444330   9.0292608
  58.9037020  77.6118426   9.7917220  55.8305884  76.6165010   9.6690792
  55.4924395  76.5006075   8.7811327  56.6995652  76.2156175   9.6491798
  51.6892700  78.4700487   5.6587683  51.1257565  78.3790424   4.8903971
  51.5745095  77.6500391   6.1390176  56.3125667  77.7699862  15.6276998
  56.3014308  77.3752660  14.7557501  56.4746306  77.0365935  16.2210769
  49.2357131  79.9651678   8.4971904  50.0278423  79.6242503   8.0818203
  49.4753782  80.0746653   9.4174057  57.2692258  82.1371454   0.9702148
  56.6180238  82.7225535   0.5836162  58.0636621  82.6677649   1.0297186
  51.1947885  79.2260592   1.3689282  51.9678761  78.6789579   1.2302158
  51.5473284  80.0904841   1.5803744  53.0332928  80.5536974  14.5756182
  52.7422794  81.4582605  14.4602848  53.6689912  80.5953501  15.2900251
  53.9589135  77.9313822  11.1657541  54.5552707  77.7069845  10.4514504
  54.0164106  77.1898568  11.7682989  53.5314163  75.3853258  -0.9992268
  53.7839684  74.8634779  -1.7608805  52.5938722  75.2219403  -0.8965584
  58.5757446  74.3889036   6.8082476  59.3620535  73.9708459   6.4572893
  58.8396150  75.2935128   6.9764124  58.7467523  79.8261886   1.5071132
  58.1113356  79.8996513   2.2192037  58.4164930  80.4155485   0.8290212
  63.9765873  74.3264269   7.7115454  64.7091045  73.7563486   7.9453284
  63.2205229  73.9385870   8.1521960  53.2510452  77.2881364   1.2032107
  53.1346710  76.6126267   1.8713192  53.3612712  76.8013738   0.3864260
  55.5941993  76.7491511   4.9078797  55.2300200  76.2222132   5.6191718
  56.4509109  76.3589980   4.7345282  61.4991294  68.0385843  12.1710063
  61.1674618  68.9081254  11.9471278  60.9036907  67.7222127  12.8504093
  55.2347480  71.7781410  -0.0959855  55.4021882  72.6461647   0.2710616
  55.0444649  71.9408692  -1.0198566  57.9922813  80.2398389  11.5705975
  57.6923536  81.1423428  11.4621783  57.6473873  79.9730573  12.4227128
  51.4435295  76.6912186   7.6042680  50.5185791  76.5588400   7.8120372
  51.6919708  77.4706405   8.1012622  61.3919957  72.7580930   9.2503413
  60.4836834  72.6896338   8.9562174  61.3407553  73.2352874  10.0785238
  55.2136701  74.2339068   0.8886812  55.0936326  74.6796119   1.7272292
  54.5189289  74.5824386   0.3300350  48.8044106  76.3345460   8.4386469
  48.9336487  76.5879939   9.3525881  48.1241557  76.9273168   8.1191124
  52.9743593  87.0042710   4.5376943  52.8967623  87.9550535   4.6165424
  52.3705236  86.6588582   5.1951869  55.4660823  74.1770575  17.1938310
  54.6894157  74.7364495  17.1841175  56.1051386  74.6627358  17.7153180
  63.2581603  70.9597368  11.0281287  62.6155983  71.2529901  10.3821081
  62.7536532  70.8450288  11.8334483  60.9121767  74.7060541   1.7167146
  61.8239623  74.9387928   1.5414844  60.4031414  75.2897585   1.1542225
  53.7207195  76.9856028  16.7556277  54.4621879  77.5241072  16.4791101
  53.0144180  77.6122317  16.9127829  59.1962535  79.1285169  15.3528439
  59.6045891  78.6867579  14.6083071  58.4739796  78.5537796  15.6062631
  55.5493605  74.0657776  12.7261996  56.3954800  74.4897189  12.8696645
  55.4892242  73.4091400  13.4200559  59.5191349  79.6886360   9.1080727
  58.8900212  79.8532074   8.4056795  59.1317011  80.1027969   9.8791691
  63.3980581  80.6240797   6.4625091  62.7131619  81.0039699   5.9122125
  63.4824430  81.2336124   7.1957039  58.6993050  71.7262144  14.3843169
  58.4553982  72.4804205  13.8477445  58.9752980  72.1047492  15.2190416
  60.6531513  78.2700756  13.0620435  60.8648408  78.9132516  12.3854816
  60.6061261  77.4363073  12.5942365  58.2557742  70.8818577   9.9657007
  57.3942221  71.1799831  10.2573744  58.2820176  71.0988976   9.0338040
  55.0719311  79.4260768   6.3730813  55.5357657  79.7048471   5.5835435
  54.8076109  78.5244212   6.1903903  51.9643392  78.9732249   9.3110576
  52.5344749  79.4019518   8.6728060  52.5551504  78.6914834  10.0094761
  54.0088197  75.5483920   3.1820378  54.7112240  76.0004964   3.6494304
  53.6768826  74.9067739   3.8100271  52.4568559  74.1395677  17.5571587
  51.8267219  74.8211958  17.7906984  52.3504647  74.0278758  16.6124725
  47.7513531  73.8067473   8.4837511  46.9612585  74.0625001   8.0077622
  48.2424778  74.6215811   8.5889552  61.7677341  81.1472712  11.2342792
  62.5894784  80.7452899  10.9525474  61.7639744  81.0440946  12.1858908
  49.7028276  74.1712052   5.4420988  48.9059440  74.2830746   5.9604484
  49.4753869  74.5098704   4.5761878  55.5333944  80.6956755  13.3903503
  55.5978377  81.1577162  14.2261674  54.8244868  80.0654120  13.5185812
  46.0351234  74.0597963  10.9152502  46.2859273  74.9444973  11.1810078
  46.5710783  73.8802565  10.1427594  69.8583334  77.4911460   7.5827764
  69.1047042  76.9218858   7.4271768  69.9930875  77.4574125   8.5298398
  55.2481962  82.3624863   3.2582483  55.1127637  83.2076398   3.6867331
  55.7891774  82.5644140   2.4948417  51.7349301  68.4416443  19.9196838
  51.3416247  67.8882641  20.5944482  52.5515442  68.7527021  20.3103356
  48.7011359  79.8800301   3.8310408  49.2135880  80.6743551   3.9815973
  49.3534072  79.1826591   3.7644009  50.5106244  82.9966057   5.9133161
  50.6872872  83.9184022   5.7254145  51.3063077  82.6824476   6.3427541
  54.6517262  69.8574322  17.5117095  55.3926976  70.4581475  17.4321557
  54.8835185  69.1151959  16.9535137  49.7958600  75.0430689  15.7895324
  49.6812116  74.1415946  16.0902423  48.9403118  75.2894386  15.4380141
  56.8750438  82.9848429  17.3882825  56.4314292  82.1984808  17.0703729
  57.5367652  83.1727580  16.7226716  51.6337559  84.5144231  11.9143503
  52.1844984  84.3861294  11.1420497  50.7949035  84.8139120  11.5638396
  58.9731676  83.2651229  15.4164226  58.9550152  84.0860110  14.9244495
  59.8951596  83.1405304  15.6414367  55.4304730  80.7795359  16.2587735
  55.9633067  80.0183647  16.0287043  54.9018811  80.4869010  17.0011889
  58.5974425  65.8855425  11.7881376  58.2538695  66.7757066  11.7120487
  58.9653388  65.6957082  10.9250961  46.6660276  78.2088955   4.6069979
  47.5035498  78.6185963   4.3903686  46.8438544  77.2688397   4.5770172
  58.5624708  75.8764036   0.2953811  58.0471332  76.6468640   0.5342199
  58.2902017  75.2029172   0.9186873  56.1471819  70.7213736   5.3539050
  55.2913415  70.3320587   5.1744689  56.5598771  70.8005697   4.4938835
  57.6770966  68.2560080   9.7530610  57.1735761  68.2190215   8.9398415
  57.9701573  69.1652822   9.8127266  53.9213852  68.3398809   8.7596791
  54.7866848  68.1441618   8.4002681  53.9891361  68.1109161   9.6866148
  63.5358982  78.6296390   2.2306985  62.7588425  78.2907550   1.7862147
  64.2150463  78.6349013   1.5561950  58.3511011  73.7491128   2.1213593
  58.0461147  74.0637277   2.9723736  59.3041453  73.8272548   2.1640926
  56.7957443  79.9081351   3.7706547  56.2678805  79.1734111   3.4579784
  56.2944946  80.6856027   3.5246515  61.7750289  78.1030372   8.8873593
  61.1173964  78.7929633   8.9753722  62.5790688  78.4926803   9.2307579
  51.5276171  70.5701017   6.1313158  52.1019923  70.3476199   5.3986351
  52.1147153  70.6389712   6.8841759  60.5855748  76.4574744   6.9377535
  61.0987630  77.0904736   7.4399244  61.2356972  75.8575940   6.5720895
  51.8545758  72.6005478   0.1509043  51.0183070  72.9380165   0.4718318
  51.7150527  72.4654458  -0.7863820  53.8298838  67.4442266   4.8588228
  53.1763251  67.1291283   4.2344842  53.7879313  66.8218007   5.5848051
  54.9410043  77.7261561  -3.2258480  54.0337105  77.4950815  -3.0267331
  55.4381075  76.9299181  -3.0384499  57.0636579  73.9324200   9.1835875
  56.1459140  74.1539147   9.0257563  57.4796722  74.0070510   8.3247583
  57.8471627  75.3315615   4.3138555  58.5943445  75.8437013   4.0045678
  58.1163216  75.0099668   5.1742949  56.1198277  77.8274156   1.2965510
  55.2109496  77.5433189   1.3937980  56.1493361  78.2473235   0.4368817
  61.3517544  81.4380746   5.0656677  60.8979871  80.5971656   5.1221868
  60.7211511  82.0742144   5.4031457  60.2950464  72.3672732   6.2957345
  59.5573220  71.8550118   6.6267587  60.5477237  71.9273113   5.4840622
  59.7950483  83.2757242   6.0006495  60.0873458  83.8362299   5.2818861
  60.3049104  83.5685803   6.7559655  60.3962091  65.1448984   6.8899114
  60.7020968  64.2846347   6.6025029  61.1214696  65.7366604   6.6898108
  46.6886447  75.5479670   5.2780712  46.4910847  74.9549031   4.5531779
  46.1333111  75.2431881   5.9956651  54.6683171  75.4402777   7.3975305
  54.7231781  74.4876613   7.3217782  53.8574373  75.5962216   7.8816604
  55.8174365  79.3682900  -1.3646412  55.3793794  78.6518759  -1.8240774
  56.5584805  79.5959015  -1.9261320  52.6075531  74.0579837   5.1565684
  51.7943396  74.3574007   5.5630876  53.1034525  73.6635525   5.8740166
  54.7584109  84.0537593   7.0899949  54.7160287  84.2798440   6.1608481
  55.6746807  83.8200968   7.2385750  58.2049742  74.5221661  13.9880578
  58.5599130  74.7493134  14.8475044  58.8521874  74.8540038  13.3657833
  63.9347479  77.6440097   4.6929907  63.7965378  77.8341693   3.7651096
  63.5783698  78.4059480   5.1497958  52.0989605  71.6298192  10.7726919
  52.7388985  71.4886951  10.0749882  51.2667136  71.3432705  10.3965521
  63.9616859  79.7116624   9.7041178  64.3953366  79.6191913  10.5524232
  64.6748440  79.6874124   9.0661194  52.8749909  80.9300622   6.8861911
  53.6690508  80.4350943   6.6844486  52.1641602  80.4018486   6.5229617
  57.6944754  83.3118718  11.2374279  57.7481776  83.8809654  12.0051995
  56.8259535  83.4820603  10.8728316  49.1832673  75.0743704   2.9621664
  48.2530261  75.0128160   3.1791626  49.2790145  74.5519657   2.1658305
  49.1018222  71.5998517   5.5499906  49.3625039  72.5143850   5.4409066
  49.9235394  71.1322960   5.6996519  50.5743147  73.0136274  12.7198730
  51.2466201  72.8053636  12.0711379  49.7472934  72.8158360  12.2803963
  64.8232408  79.7540325  12.2374064  65.0168299  80.6586135  12.4833339
  64.7233027  79.2947744  13.0712649  56.4768719  69.6398215  14.7364391
  55.8296634  70.3388165  14.6428868  57.2469735  70.0734359  15.1040639
  59.8847517  79.9047067  17.8114944  59.7333024  79.6757619  16.8945028
  59.8752197  80.8617669  17.8246289  56.6532854  77.4778980  12.7961211
  57.5824914  77.6290140  12.6230178  56.2323884  77.5663001  11.9409857
  55.4521185  81.5029644  10.5659748  55.3132271  81.1348429  11.4385687
  54.6635782  82.0177284  10.3943706  56.0469337  86.6038741   1.9085285
  56.2221093  86.1326784   2.7230908  55.3602125  87.2304507   2.1366546
  57.0026400  80.8811247   7.9548586  56.6676233  80.8412017   8.8506236
  56.5030346  80.2155963   7.4818996  50.9770644  76.2878877  13.4801167
  50.8390442  75.5559116  14.0812706  51.8875568  76.1987777  13.1985355
  59.9385592  78.2267282  -1.7714354  59.3214763  77.5014110  -1.8681301
  59.4702081  78.9876642  -2.1147280  53.6052945  75.9998837  12.9684847
  54.3152564  75.3592029  12.9271465  53.5622253  76.2511731  13.8911028
  61.5939724  82.9366190  15.8891426  61.5352270  82.2525410  15.2222009
  61.9959242  83.6785180  15.4372052  52.3181879  72.9864054  14.7880487
  51.7819236  72.5354793  15.4402083  51.7298588  73.1209963  14.0450951
  50.6130423  89.7528104   8.6825145  50.8527021  90.3846628   9.3604164
  49.7699619  89.4016144   8.9690504  51.7284138  72.4452706  -2.6493050
  50.8513604  72.3241507  -3.0130803  52.2041891  71.6538784  -2.9014161
  61.5957131  80.9005774  14.1205406  60.7083910  80.5631696  14.2431805
  62.1655682  80.1688805  14.3574171  43.2486278  77.2329866   7.4448457
  43.9357318  76.9191596   6.8569473  43.0934407  78.1371230   7.1715709
  48.0521000  72.1220062  11.8733481  47.9679189  71.5145732  11.1383891
  47.2303707  72.6129080  11.8742977  55.1258284  85.5607226  11.0866649
  55.0528456  86.3662198  11.5985954  54.6835678  85.7599192  10.2614671
  54.9148064  84.7978996   4.5969471  54.1315586  85.3400676   4.6907695
  55.6140809  85.3152976   4.9963712  58.2244714  70.6073626   7.2403676
  58.7213414  69.8543588   6.9204746  57.4531696  70.6437942   6.6746885
  66.0774472  76.3113991   8.8821968  66.0664348  77.1938707   8.5115901
  65.2091851  75.9585542   8.6876505  57.5856968  85.4594060  13.2424808
  58.2984940  86.0941525  13.1700709  57.0946997  85.5557926  12.4264810
  59.3074495  79.3645313   4.8142099  58.3730774  79.4846775   4.6446804
  59.4851163  78.4617780   4.5502109  54.8079683  72.7491009   6.9675361
  54.4377470  72.1962049   7.6556266  55.3038775  72.1449142   6.4150361
  62.6947046  75.2062632   5.3492134  63.1607498  76.0390624   5.2752436
  63.1454547  74.7407614   6.0537392  52.6368881  83.2088504  14.0630379
  53.3378341  83.8424987  14.2159773  52.1663996  83.5503235  13.3026018
  60.7623277  81.5506453   2.3478286  61.0383121  81.4363048   3.2572160
  59.8927776  81.1523938   2.3090459  60.6663709  67.5743219   9.3883035
  59.7526789  67.8047446   9.5565242  61.0956810  67.6581663  10.2397067
  60.4370167  75.7633111  11.8882929  59.7841618  76.0109019  11.2335382
  60.8150547  74.9497249  11.5545406  57.3977341  85.7992804   5.9911099
  57.5799736  84.9814460   6.4538852  58.2210327  86.0160497   5.5535989
  57.7319507  84.7260989   3.2526148  58.2607273  84.2153444   2.6396310
  57.9947726  84.4103520   4.1171681  56.4857740  76.5052922  18.3748966
  55.8098378  76.4047051  19.0451341  57.3085374  76.3492136  18.8384963
  48.2336600  82.7424859  10.9961481  48.8190036  81.9968547  11.1289386
  48.0361438  83.0528815  11.8798145  51.0875255  85.7776106   6.0123924
  50.4185630  86.2622234   5.5287964  50.9488124  86.0245327   6.9267302
  42.8254254  75.3130459   9.7165924  42.8638354  74.7794050  10.5103043
  42.3194547  74.7865664   9.0976902  55.2280523  87.8119850  12.6106582
  55.7798831  87.9751471  13.3755667  55.5686717  88.4024287  11.9386607
  50.2045017  70.1594999  13.2128467  50.2686343  71.0209830  12.8005864
  50.1412137  69.5469001  12.4800825  49.6797289  72.2318132  16.8601501
  50.3069328  71.8495209  17.4739025  48.8225208  72.0132334  17.2257194
  60.0791398  82.6381107  18.4655236  60.6231302  83.2511065  17.9710191
  59.4978243  83.1960686  18.9822250  46.4562832  74.0394561   2.7919856
  46.7516273  73.1305239   2.7386910  45.5550868  74.0182300   2.4700858
  58.3648911  85.7601825   9.5970264  58.2400050  84.9591565   9.0881210
  59.0228002  86.2548018   9.1084234  49.9857079  72.1150558   8.7747404
  49.2643665  72.7286525   8.6354878  50.7750335  72.6508322   8.6964050
  60.4283819  83.5610845  11.2249814  59.4814155  83.4416196  11.1528141
  60.7766592  82.6733343  11.3076076  52.7883392  69.4504984  15.0488056
  53.3117794  69.6967281  15.8114366  52.5695726  70.2825019  14.6291194
  48.1850673  71.7208659   2.9159181  47.8563380  70.8406038   2.7334287
  48.5390044  71.6656327   3.8035570  57.4330252  83.3563561   7.4254167
  57.2855215  82.4280269   7.6061737  58.2583746  83.3783652   6.9411242
  51.2992497  72.0081629   3.2834659  51.6388569  72.5367550   2.5613267
  51.7464617  72.3462035   4.0593225  61.0364374  84.1792120   8.5119039
  61.9610922  83.9734981   8.3743490  60.8679678  83.9308521   9.4208381
  53.9935937  70.3918679  12.7337727  53.6532758  69.5926492  13.1358407
  53.2874944  70.6920390  12.1614560  54.6452409  67.4767992  11.1865050
  55.4678479  67.0028470  11.0643940  54.8890473  68.2558475  11.6863736
  53.2860644  70.5056250   1.4827951  54.0069006  70.8837503   0.9791668
  52.6625948  71.2245127   1.5862929  57.4291767  71.2101399   2.4186284
  57.6455381  72.0926037   2.1175112  56.9485834  70.8187612   1.6891926
  52.1690988  74.1687112   8.9957028  52.0235569  74.4827415   9.8881310
  51.6916192  74.7872013   8.4427927  54.0287371  71.1589660   9.0437918
  54.0148940  70.2630754   8.7070216  54.7459799  71.1660324   9.6776204
  55.8813502  71.5927000  11.0891045  55.6231279  72.5144071  11.0875376
  55.3498542  71.1957435  11.7791509  60.8259690  84.6977788   3.8681131
  60.9996568  84.1324210   3.1154983  61.3188582  85.4978682   3.6860621
  46.6436650  76.7092457  11.9344690  46.0990118  77.4852265  12.0664964
  47.5216000  77.0563261  11.7763811  53.4324267  70.0404041   4.3125488
  53.5540178  69.1120687   4.5116376  53.1426309  70.0542727   3.4003803
  56.3015457  67.7258951   7.4492208  56.3237154  67.7898284   6.4944187
  56.7183516  66.8863460   7.6432714  66.6799082  77.4614211   5.4871430
  67.1230228  76.7121536   5.0890554  65.8025592  77.4524347   5.1045162
  61.8134863  84.0144552   0.9678029  62.5085767  84.6351245   1.1865344
  62.1558013  83.1639903   1.2430407  47.4302672  75.8362353  14.8274846
  46.6884408  75.9844988  15.4139477  47.1095416  76.0970619  13.9641596
  63.7126286  81.4644258   2.4965360  64.2377610  81.8031530   1.7714680
  63.6248639  80.5291273   2.3128494  55.3746335  85.3778331  14.6255236
  55.6833461  85.1327478  15.4977936  56.1721817  85.5824970  14.1374107
  55.3966947  87.5316241   6.8560613  54.9571937  87.0392620   7.5493470
  56.1475064  86.9889208   6.6152688  47.8759286  83.7227782   6.8585241
  48.7017306  83.4231554   6.4783885  47.5253338  82.9535404   7.3075030
  52.8440819  83.0754250   8.9282915  52.2220828  82.4124955   8.6285143
  53.5145686  83.1015382   8.2456562  46.0767891  81.6414108   7.8174175
  45.2399799  81.2136282   7.6358176  46.0491536  81.8346551   8.7544966
  52.9165346  71.5536038  18.5215421  52.9653502  72.4298161  18.1393190
  53.4587861  71.0113431  17.9487064  63.4020192  82.0977161  17.8016558
  62.6115736  82.0801300  17.2621057  63.1653547  82.6365455  18.5565594
  63.5218067  78.9469628  15.1149286  63.5716072  78.7819635  16.0564809
  63.4131990  78.0796887  14.7247167  52.4054326  81.6258173   2.4041375
  52.5542446  82.3093638   1.7508048  53.2120769  81.6063263   2.9190831
  60.8121830  74.9300556  16.4308593  61.7131692  74.7907020  16.1392591
  60.8869804  75.0955010  17.3706770  55.1464635  72.3067410  15.2761779
  54.2767944  72.6000976  15.0044368  55.3824115  72.8907855  15.9969043
  65.0236264  81.3666569  15.3591308  64.7321072  81.7296550  16.1954769
  64.4108395  80.6533577  15.1804640  66.2231946  78.9319449   7.8793878
  67.0578838  79.3709253   8.0431438  66.3591075  78.4558102   7.0602124
  63.2723452  76.4899184  13.8271366  63.7477574  76.6826830  13.0190217
  62.3489018  76.5458370  13.5814749  50.1606959  77.6523351   3.4102444
  49.9153001  76.7485681   3.6082654  50.3302873  77.6540501   2.4681922
  57.8503669  68.5247027  12.7927200  58.3685613  69.2608054  12.4673688
  57.4958801  68.8311021  13.6273959  49.4302606  73.3851708   0.9088606
  48.7371851  73.4596063   0.2528642  49.1854358  72.6212052   1.4310122
  58.1016263  64.9447310   8.3128096  58.3818017  64.2770499   8.9388523
  58.8866870  65.1376405   7.8002760  55.9049731  84.1206304  -0.1246877
  55.3323698  84.7396491  -0.5776406  56.4782525  84.6705665   0.4093045
  61.9725121  73.3664944  12.0599671  62.9242544  73.4663041  12.0811895
  61.8028572  72.5743212  12.5697756  59.9939501  70.4520527  12.2459072
  59.3989433  70.7325540  11.5505561  59.7089197  70.9414428  13.0175813
  59.1246991  84.4043454   1.0061705  60.0577664  84.3389016   1.2094580
  59.0370204  85.2399721   0.5476238  64.4513199  76.5871063  11.1741971
  64.4189519  75.6487064  11.3601655  65.0613823  76.6655100  10.4407796
  56.2896530  75.4567116  -2.7830825  57.2355635  75.3273325  -2.7142407
  55.9110775  74.7181778  -2.3061397  64.6007687  73.3782107  11.2200254
  64.0846736  72.5940564  11.0330183  65.4847636  73.0500824  11.3846774
  62.2618414  67.1223122   7.1796067  62.0643236  66.8138211   8.0639399
  62.8718120  67.8484761   7.3093997  70.2689749  77.6487070  10.3148008
  70.9993137  77.3872358  10.8755711  69.6596694  76.9115792  10.3550076
  68.3505046  75.7894933  10.9122459  67.6238210  75.6550898  10.3038951
  67.9352333  76.0971762  11.7179177  56.1735222  79.5084863  18.6769832
  57.0938232  79.6863462  18.8709879  56.1384805  78.5640908  18.5249531
  54.4739447  73.3817093  -2.8475940  53.5670902  73.0850206  -2.7713226
  54.7515428  73.0846911  -3.7141653  45.3917387  74.7023456   7.6023107
  45.0720172  73.8488764   7.3097481  44.8450816  74.9172034   8.3581074
  49.1697295  77.4185897  11.3192613  49.3883305  78.3503005  11.3380647
  49.5823069  77.0593872  12.1047417  56.0901513  67.9253983   3.3068302
  55.2802241  67.5801068   3.6823548  56.7785930  67.6161526   3.8955913
  58.0192061  67.0032029   4.9292598  58.5723100  67.4227483   5.5882621
  58.2562147  66.0767777   4.9715554  54.0425160  72.9919103  20.7095362
  53.9421887  73.9413460  20.6407453  53.8246702  72.6637342  19.8371432
  53.2438232  70.2404028  -2.7063960  54.1057396  70.5658926  -2.4468143
  53.4288576  69.4535524  -3.2190895  45.2605647  78.3226368   9.5716228
  44.5669119  77.9080321   9.0586183  46.0078638  78.3646904   8.9749647
  61.3970868  69.1132555   4.4371263  60.8169537  69.7717359   4.0549315
  61.1306801  68.2909899   4.0258680  59.8474434  68.5137612   6.6392583
  60.3474213  68.6254147   5.8306902  60.4910042  68.2098665   7.2793391
  53.9056430  76.4216242  19.5260424  53.4223512  77.2216602  19.7324313
  53.9917369  76.4324187  18.5727868  47.1742390  78.2544622   7.4482243
  47.1513078  78.3532309   6.4964126  47.4843026  79.1009772   7.7699409
  49.8329768  80.3120777  11.5628858  50.7873021  80.2804719  11.4958789
  49.6342291  79.8511400  12.3779084  50.4229150  78.8821893  14.1299655
  51.2422039  79.3765971  14.1534493  50.6965958  77.9653861  14.1017223
  60.1795746  71.2732645   3.4927611  59.2921601  71.5582296   3.2747806
  60.5949735  71.1126408   2.6454888  63.5310282  71.2979166   7.2081950
  64.3070672  71.7875618   7.4806567  62.8058416  71.7237220   7.6653820
  65.9682841  72.0106785   8.2655891  66.5627332  71.7702521   7.5549199
  66.0409425  71.2913916   8.8929427  48.1879997  85.8540396   8.5799055
  48.0534464  85.0940797   8.0137054  47.7712059  86.5781296   8.1127844
  59.3238960  81.0377320  -2.4124369  60.0274810  81.2427322  -1.7966714
  58.6001608  81.6054081  -2.1475286  60.1536770  76.7887181   3.7077901
  60.0971971  77.2455732   2.8685533  60.7065112  76.0277865   3.5300744
  63.9641576  72.5776913   4.5328020  63.7078510  72.1773548   5.3636228
  63.3394444  73.2920707   4.4078160  68.2753914  75.3172986   7.0399312
  67.7153472  75.3866175   7.8130874  67.6697417  75.1413971   6.3198808
  51.3449122  86.7509713   8.7917498  51.2281507  87.6955146   8.6896188
  50.5241569  86.4483275   9.1803297  61.2325657  81.4759849  -0.3625909
  62.0671261  81.0441047  -0.5448434  61.0710000  81.3041862   0.5650985
  60.8871549  77.9791962   1.0030430  60.8320353  77.8136234   0.0618874
  60.2617604  78.6867995   1.1592620  45.6764064  73.2160026  14.8291852
  46.3222928  72.7058980  15.3179078  45.4681215  73.9528708  15.4035278
  58.2017456  80.2840874  20.3283993  59.0708616  80.4581526  19.9670628
  57.7224208  81.1035291  20.2059722  54.1967675  67.4800071   0.5815749
  54.1846344  68.4241911   0.7384019  55.0891096  67.2970216   0.2875210
  52.3703637  87.4037975  12.0073427  53.2730883  87.4361585  12.3239922
  52.1441007  86.4738426  12.0219762  54.1257239  86.1568961   8.6683505
  53.1752870  86.1570823   8.5547877  54.4289725  85.4101696   8.1519540
  58.0119794  64.0742848   4.8361685  57.2452190  63.5201334   4.9818368
  58.4230499  64.1464716   5.6975837  50.0161555  70.3627644  18.9266867
  50.8793017  70.0064448  19.1370191  49.4426966  70.0241538  19.6142271
  69.8609932  91.9929500   9.7329268  70.4988342  91.8736247   9.0292608
  69.7430775  92.9410344   9.7917220  66.6699638  91.9456928   9.6690792
  66.3318150  91.8297993   8.7811327  67.5389407  91.5448093   9.6491798
  67.1519421  93.0991780  15.6276998  67.1408062  92.7044578  14.7557501
  67.3140061  92.3657852  16.2210769  60.0750886  95.2943596   8.4971904
  60.8672178  94.9534421   8.0818203  60.3147536  95.4038571   9.4174057
  63.8726682  95.8828892  14.5756182  63.5816548  96.7874522  14.4602848
  64.5083667  95.9245419  15.2900251  64.7982889  93.2605740  11.1657541
  65.3946462  93.0361762  10.4514504  64.8557861  92.5190486  11.7682989
  69.4151201  89.7180954   6.8082476  70.2014290  89.3000377   6.4572893
  69.6789905  90.6227046   6.9764124  72.3385048  83.3677761  12.1710063
  72.0068373  84.2373172  11.9471278  71.7430661  83.0514045  12.8504093
  68.8316568  95.5690307  11.5705975  68.5317291  96.4715346  11.4621783
  68.4867627  95.3022490  12.4227128  62.2829049  92.0204104   7.6042680
  61.3579546  91.8880318   7.8120372  62.5313462  92.7998323   8.1012622
  72.2313711  88.0872847   9.2503413  71.3230589  88.0188256   8.9562174
  72.1801307  88.5644792  10.0785238  59.6437860  91.6637377   8.4386469
  59.7730241  91.9171856   9.3525881  58.9635311  92.2565085   8.1191124
  66.3054577  89.5062493  17.1938310  65.5287911  90.0656413  17.1841175
  66.9445140  89.9919276  17.7153180  74.0975358  86.2889286  11.0281287
  73.4549738  86.5821819  10.3821081  73.5930286  86.1742206  11.8334483
  64.5600949  92.3147946  16.7556277  65.3015634  92.8532990  16.4791101
  63.8537935  92.9414235  16.9127829  70.0356289  94.4577087  15.3528439
  70.4439645  94.0159497  14.6083071  69.3133551  93.8829714  15.6062631
  66.3887359  89.3949693  12.7261996  67.2348554  89.8189107  12.8696645
  66.3285997  88.7383318  13.4200559  69.5386804  87.0554062  14.3843169
  69.2947736  87.8096122  13.8477445  69.8146735  87.4339409  15.2190416
  71.4925267  93.5992674  13.0620435  71.7042162  94.2424434  12.3854816
  71.4455015  92.7654991  12.5942365  69.0951496  86.2110495   9.9657007
  68.2335975  86.5091748  10.2573744  69.1213931  86.4280894   9.0338040
  62.8037147  94.3024167   9.3110576  63.3738504  94.7311435   8.6728060
  63.3945259  94.0206752  10.0094761  63.2962313  89.4687594  17.5571587
  62.6660974  90.1503875  17.7906984  63.1898401  89.3570676  16.6124725
  58.5907286  89.1359390   8.4837511  57.8006340  89.3916919   8.0077622
  59.0818533  89.9507728   8.5889552  60.5422031  89.5003970   5.4420988
  59.7453194  89.6122664   5.9604484  60.3147623  89.8390622   4.5761878
  66.3727699  96.0248673  13.3903503  66.4372131  96.4869080  14.2261674
  65.6638622  95.3946038  13.5185812  56.8744989  89.3889881  10.9152502
  57.1253027  90.2736891  11.1810078  57.4104537  89.2094482  10.1427594
  62.5743056  83.7708360  19.9196838  62.1810001  83.2174559  20.5944482
  63.3909196  84.0818939  20.3103356  65.4911017  85.1866239  17.5117095
  66.2320730  85.7873392  17.4321557  65.7228940  84.4443877  16.9535137
  60.6352355  90.3722607  15.7895324  60.5205870  89.4707864  16.0902423
  59.7796873  90.6186303  15.4380141  67.7144193  98.3140347  17.3882825
  67.2708047  97.5276725  17.0703729  68.3761406  98.5019497  16.7226716
  62.4731314  99.8436148  11.9143503  63.0238739  99.7153212  11.1420497
  61.6342790 100.1431037  11.5638396  69.8125431  98.5943147  15.4164226
  69.7943906  99.4152028  14.9244495  70.7345351  98.4697222  15.6414367
  66.2698485  96.1087276  16.2587735  66.8026822  95.3475564  16.0287043
  65.7412566  95.8160928  17.0011889  69.4368180  81.2147342  11.7881376
  69.0932449  82.1048984  11.7120487  69.8047142  81.0249000  10.9250961
  57.5054030  93.5380873   4.6069979  58.3429252  93.9477881   4.3903686
  57.6832298  92.5980315   4.5770172  66.9865574  86.0505654   5.3539050
  66.1307170  85.6612504   5.1744689  67.3992525  86.1297615   4.4938835
  68.5164720  83.5851997   9.7530610  68.0129516  83.5482133   8.9398415
  68.8095327  84.4944740   9.8127266  64.7607606  83.6690727   8.7596791
  65.6260603  83.4733536   8.4002681  64.8285115  83.4401079   9.6866148
  62.3669925  85.8992935   6.1313158  62.9413677  85.6768117   5.3986351
  62.9540908  85.9681630   6.8841759  64.6692593  82.7734184   4.8588228
  64.0157005  82.4583201   4.2344842  64.6273067  82.1509924   5.5848051
  67.9030333  89.2616117   9.1835875  66.9852895  89.4831064   9.0257563
  68.3190477  89.3362428   8.3247583  71.2355845  80.4740901   6.8899114
  71.5414722  79.6138265   6.6025029  71.9608450  81.0658522   6.6898108
  57.5280202  90.8771588   5.2780712  57.3304601  90.2840949   4.5531779
  56.9726866  90.5723798   5.9956651  65.5076925  90.7694694   7.3975305
  65.5625535  89.8168531   7.3217782  64.6968127  90.9254134   7.8816604
  63.4469285  89.3871754   5.1565684  62.6337151  89.6865925   5.5630876
  63.9428279  88.9927443   5.8740166  69.0443497  89.8513579  13.9880578
  69.3992885  90.0785052  14.8475044  69.6915628  90.1831955  13.3657833
  62.9383360  86.9590110  10.7726919  63.5782739  86.8178869  10.0749882
  62.1060890  86.6724623  10.3965521  68.5338508  98.6410636  11.2374279
  68.5875531  99.2101572  12.0051995  67.6653290  98.8112521  10.8728316
  59.9411976  86.9290435   5.5499906  60.2018794  87.8435768   5.4409066
  60.7629149  86.4614877   5.6996519  61.4136902  88.3428192  12.7198730
  62.0859955  88.1345554  12.0711379  60.5866688  88.1450278  12.2803963
  67.3162474  84.9690133  14.7364391  66.6690389  85.6680082  14.6428868
  68.0863489  85.4026277  15.1040639  70.7241272  95.2338985  17.8114944
  70.5726778  95.0049537  16.8945028  70.7145951  96.1909586  17.8246289
  67.4926608  92.8070898  12.7961211  68.4218668  92.9582057  12.6230178
  67.0717638  92.8954919  11.9409857  66.2914940  96.8321562  10.5659748
  66.1526026  96.4640347  11.4385687  65.5029536  97.3469202  10.3943706
  61.8164399  91.6170795  13.4801167  61.6784197  90.8851034  14.0812706
  62.7269322  91.5279695  13.1985355  64.4446700  91.3290754  12.9684847
  65.1546318  90.6883946  12.9271465  64.4016008  91.5803649  13.8911028
  72.4333478  98.2658108  15.8891426  72.3746024  97.5817328  15.2222009
  72.8352997  99.0077098  15.4372052  63.1575634  88.3155972  14.7880487
  62.6212991  87.8646711  15.4402083  62.5692342  88.4501881  14.0450951
  72.4350886  96.2297691  14.1205406  71.5477664  95.8923613  14.2431805
  73.0049437  95.4980723  14.3574171  54.0880033  92.5621783   7.4448457
  54.7751072  92.2483513   6.8569473  53.9328161  93.4663148   7.1715709
  58.8914755  87.4511980  11.8733481  58.8072944  86.8437649  11.1383891
  58.0697461  87.9420998  11.8742977  69.0638469  85.9365543   7.2403676
  69.5607168  85.1835506   6.9204746  68.2925450  85.9729860   6.6746885
  68.4250722 100.7885978  13.2424808  69.1378695 101.4233443  13.1700709
  67.9340751 100.8849844  12.4264810  65.6473437  88.0782926   6.9675361
  65.2771225  87.5253967   7.6556266  66.1432530  87.4741060   6.4150361
  63.4762636  98.5380421  14.0630379  64.1772095  99.1716904  14.2159773
  63.0057751  98.8795153  13.3026018  71.5057463  82.9035137   9.3883035
  70.5920543  83.1339364   9.5565242  71.9350565  82.9873581  10.2397067
  71.2763922  91.0925029  11.8882929  70.6235372  91.3400936  11.2335382
  71.6544302  90.2789167  11.5545406  67.3251495  91.8344840  18.3748966
  66.6492132  91.7338969  19.0451341  68.1479129  91.6784054  18.8384963
  59.0730354  98.0716776  10.9961481  59.6583791  97.3260464  11.1289386
  58.8755193  98.3820733  11.8798145  53.6648009  90.6422377   9.7165924
  53.7032108  90.1085967  10.5103043  53.1588302  90.1157582   9.0976902
  61.0438771  85.4886917  13.2128467  61.1080098  86.3501748  12.8005864
  60.9805891  84.8760919  12.4800825  60.5191044  87.5610050  16.8601501
  61.1463082  87.1787127  17.4739025  59.6618962  87.3424252  17.2257194
  70.9185152  97.9673025  18.4655236  71.4625056  98.5802983  17.9710191
  70.3371997  98.5252603  18.9822250  57.2956586  89.3686479   2.7919856
  57.5910027  88.4597157   2.7386910  56.3944622  89.3474218   2.4700858
  60.8250833  87.4442475   8.7747404  60.1037419  88.0578443   8.6354878
  61.6144089  87.9800240   8.6964050  63.6277147  84.7796902  15.0488056
  64.1511549  85.0259198  15.8114366  63.4089480  85.6116937  14.6291194
  59.0244428  87.0500576   2.9159181  58.6957134  86.1697955   2.7334287
  59.3783799  86.9948245   3.8035570  62.1386251  87.3373546   3.2834659
  62.4782324  87.8659467   2.5613267  62.5858372  87.6753952   4.0593225
  64.8329692  85.7210597  12.7337727  64.4926512  84.9218410  13.1358407
  64.1268698  86.0212308  12.1614560  65.4846164  82.8059909  11.1865050
  66.3072233  82.3320388  11.0643940  65.7284227  83.5850393  11.6863736
  63.0084743  89.4979030   8.9957028  62.8629323  89.8119333   9.8881310
  62.5309946  90.1163930   8.4427927  64.8681125  86.4881578   9.0437918
  64.8542694  85.5922671   8.7070216  65.5853554  86.4952242   9.6776204
  66.7207256  86.9218918  11.0891045  66.4625034  87.8435989  11.0875376
  66.1892296  86.5249353  11.7791509  57.4830405  92.0384374  11.9344690
  56.9383873  92.8144182  12.0664964  58.3609755  92.3855179  11.7763811
  64.2718021  85.3695958   4.3125488  64.3933933  84.4412604   4.5116376
  63.9820064  85.3834644   3.4003803  67.1409212  83.0550869   7.4492208
  67.1630909  83.1190202   6.4944187  67.5577271  82.2155377   7.6432714
  58.2696427  91.1654271  14.8274846  57.5278163  91.3136906  15.4139477
  57.9489171  91.4262536  13.9641596  66.2140089 100.7070249  14.6255236
  66.5227216 100.4619396  15.4977936  67.0115571 100.9116887  14.1374107
  56.9161645  96.9706026   7.8174175  56.0793554  96.5428200   7.6358176
  56.8885291  97.1638469   8.7544966  63.7559101  86.8827956  18.5215421
  63.8047256  87.7590078  18.1393190  64.2981615  86.3405349  17.9487064
  74.2413947  97.4269079  17.8016558  73.4509490  97.4093218  17.2621057
  74.0047301  97.9657373  18.5565594  74.3611822  94.2761545  15.1149286
  74.4109827  94.1111553  16.0564809  74.2525745  93.4088804  14.7247167
  71.6515584  90.2592473  16.4308593  72.5525447  90.1198938  16.1392591
  71.7263558  90.4246928  17.3706770  65.9858389  87.6359328  15.2761779
  65.1161699  87.9292894  15.0044368  66.2217870  88.2199773  15.9969043
  75.8630018  96.6958487  15.3591308  75.5714827  97.0588467  16.1954769
  75.2502150  95.9825495  15.1804640  74.1117207  91.8191101  13.8271366
  74.5871328  92.0118748  13.0190217  73.1882772  91.8750287  13.5814749
  68.6897423  83.8538945  12.7927200  69.2079367  84.5899972  12.4673688
  68.3352556  84.1602938  13.6273959  68.9410017  80.2739227   8.3128096
  69.2211771  79.6062417   8.9388523  69.7260624  80.4668323   7.8002760
  72.8118876  88.6956861  12.0599671  73.7636299  88.7954959  12.0811895
  72.6422326  87.9035130  12.5697756  70.8333255  85.7812445  12.2459072
  70.2383187  86.0617457  11.5505561  70.5482952  86.2706346  13.0175813
  75.2906953  91.9162981  11.1741971  75.2583274  90.9778982  11.3601655
  75.9007577  91.9947018  10.4407796  75.4401442  88.7074025  11.2200254
  74.9240491  87.9232481  11.0330183  76.3241390  88.3792741  11.3846774
  73.1012169  82.4515040   7.1796067  72.9036990  82.1430128   8.0639399
  73.7111874  83.1776679   7.3093997  67.0128977  94.8376780  18.6769832
  67.9331986  95.0155379  18.8709879  66.9778560  93.8932826  18.5249531
  56.2311142  90.0315374   7.6023107  55.9113926  89.1780682   7.3097481
  55.6844570  90.2463952   8.3581074  60.0091049  92.7477815  11.3192613
  60.2277059  93.6794923  11.3380647  60.4216823  92.3885789  12.1047417
  66.9295267  83.2545900   3.3068302  66.1195996  82.9092985   3.6823548
  67.6179684  82.9453444   3.8955913  68.8585815  82.3323947   4.9292598
  69.4116854  82.7519400   5.5882621  69.0955902  81.4059695   4.9715554
  64.8818915  88.3211021  20.7095362  64.7815642  89.2705378  20.6407453
  64.6640457  87.9929260  19.8371432  56.0999402  93.6518285   9.5716228
  55.4062873  93.2372238   9.0586183  56.8472393  93.6938822   8.9749647
  70.6868189  83.8429530   6.6392583  71.1867967  83.9546064   5.8306902
  71.3303797  83.5390583   7.2793391  64.7450185  91.7508160  19.5260424
  64.2617266  92.5508520  19.7324313  64.8311124  91.7616104  18.5727868
  58.0136144  93.5836539   7.4482243  57.9906832  93.6824226   6.4964126
  58.3236781  94.4301690   7.7699409  60.6723522  95.6412694  11.5628858
  61.6266776  95.6096637  11.4958789  60.4736046  95.1803318  12.3779084
  61.2622904  94.2113810  14.1299655  62.0815793  94.7057889  14.1534493
  61.5359712  93.2945778  14.1017223  74.3704037  86.6271084   7.2081950
  75.1464427  87.1167536   7.4806567  73.6452171  87.0529138   7.6653820
  56.5157819  88.5451944  14.8291852  57.1616682  88.0350898  15.3179078
  56.3074970  89.2820626  15.4035278  69.0411211  95.6132792  20.3283993
  69.9102370  95.7873444  19.9670628  68.5617962  96.4327208  20.2059722
  63.2097391 102.7329893  12.0073427  64.1124638 102.7653503  12.3239922
  62.9834761 101.8030344  12.0219762  68.8513549  79.4034765   4.8361685
  68.0845944  78.8493252   4.9818368  69.2624254  79.4756634   5.6975837
  60.8555310  85.6919561  18.9266867  61.7186771  85.3356366  19.1370191
  60.2820720  85.3533456  19.6142271  73.4136810  99.1000278  19.9196838
  73.0203756  98.5466476  20.5944482  74.2302951  99.4110856  20.3103356
  76.3304771 100.5158157  17.5117095  77.0714485 101.1165310  17.4321557
  76.5622694  99.7735795  16.9535137  71.3584798 102.8901967  16.8601501
  71.9856837 102.5079045  17.4739025  70.5012717 102.6716169  17.2257194
  74.5952855 102.2119873  18.5215421  74.6441011 103.0881996  18.1393190
  75.1375370 101.6697266  17.9487064  75.7212669 103.6502938  20.7095362
  75.6209396 104.5997295  20.6407453  75.5034211 103.3221177  19.8371432
  67.3551573 103.8743862  14.8291852  68.0010437 103.3642816  15.3179078
  67.1468724 104.6112543  15.4035278  71.6949064 101.0211479  18.9266867
  72.5580526 100.6648284  19.1370191  71.1214475 100.6825374  19.6142271
  46.0356685  44.6618634   4.1128132  45.5920539  43.8755013   3.7949036
  46.6973899  44.8497785   3.4472022  48.1337923  44.9421434   2.1409533
  48.1156398  45.7630315   1.6489802  49.0557843  44.8175509   2.3659674
  49.0453764  41.5817272   4.5360251  48.8939270  41.3527824   3.6190335
  49.0358443  42.5387874   4.5491596  50.7545971  44.6136395   2.6136733
  50.6958517  43.9295615   1.9467316  51.1565489  45.3555385   2.1617359
  49.2397644  44.3151312   5.1900543  49.7837548  44.9281270   4.6955498
  48.6584489  44.8730890   5.7067556  52.5626439  43.7747366   4.5261864
  51.7721983  43.7571505   3.9866364  52.3259793  44.3135660   5.2810901
  54.1842511  43.0436774   2.0836614  53.8927319  43.4066755   2.9200075
  53.5714642  42.3303782   1.9049947  47.3623703  41.9611079   7.0529300
  48.2314863  42.1351731   6.6915934  46.8830455  42.7805496   6.9305029
  59.0216179  53.6699705  -3.5425426  59.6594589  53.5506452  -4.2462086
  58.9037022  54.6180549  -3.4837474  55.8305885  53.6227133  -3.6063901
  55.4924397  53.5068198  -4.4943366  56.6995653  53.2218298  -3.6262895
  56.3125668  54.7761985   2.3522304  56.3014309  54.3814783   1.4802808
  56.4746308  54.0428057   2.9456076  49.2357133  56.9713801  -4.7782790
  50.0278425  56.6304626  -5.1936490  49.4753783  57.0808776  -3.8580636
  53.0332929  57.5599096   1.3001488  52.7422795  58.4644727   1.1848155
  53.6689914  57.6015624   2.0145558  53.9589136  54.9375945  -2.1097152
  54.5552708  54.7131967  -2.8240189  54.0164108  54.1960690  -1.5071704
  63.9765874  51.3326392  -5.5639239  64.7091046  50.7625609  -5.3301410
  63.2205230  50.9447992  -5.1232734  61.4991295  45.0447966  -1.1044631
  61.1674620  45.9143377  -1.3283416  60.9036908  44.7284250  -0.4250600
  57.9922814  57.2460512  -1.7048718  57.6923537  58.1485551  -1.8132911
  57.6473874  56.9792695  -0.8527565  61.3919958  49.7643052  -4.0251281
  60.4836835  49.6958461  -4.3192520  61.3407554  50.2414997  -3.1969455
  52.9743594  64.0104832  -8.7377750  52.8967624  64.9612657  -8.6589270
  52.3705238  63.6650705  -8.0802824  55.4660824  51.1832698   3.9183617
  54.6894158  51.7426618   3.9086481  56.1051387  51.6689481   4.4398487
  63.2581605  47.9659491  -2.2473407  62.6155985  48.2592024  -2.8933612
  62.7536533  47.8512411  -1.4420210  53.7207196  53.9918151   3.4801584
  54.4621881  54.5303195   3.2036407  53.0144182  54.6184440   3.6373135
  59.1962536  56.1347292   2.0773745  59.6045892  55.6929702   1.3328378
  58.4739797  55.5599919   2.3307938  55.5493606  51.0719898  -0.5492698
  56.3954801  51.4959312  -0.4058049  55.4892244  50.4153523   0.1445865
  59.5191350  56.6948482  -4.1673966  58.8900213  56.8594196  -4.8697898
  59.1317013  57.1090092  -3.3963002  63.3980582  57.6302920  -6.8129602
  62.7131621  58.0101821  -7.3632569  63.4824432  58.2398247  -6.0797654
  58.6993051  48.7324267   1.1088476  58.4553983  49.4866327   0.5722751
  58.9752982  49.1109614   1.9435723  60.6531514  55.2762879  -0.2134259
  60.8648409  55.9194639  -0.8899878  60.6061262  54.4425196  -0.6812329
  55.0719312  56.4322890  -6.9023881  55.5357658  56.7110593  -7.6919258
  54.8076110  55.5306335  -7.0850790  51.9643393  55.9794372  -3.9644118
  52.5344750  56.4081640  -4.6026633  52.5551505  55.6976957  -3.2659932
  52.4568560  51.1457799   4.2816894  51.8267221  51.8274080   4.5152291
  52.3504648  51.0340881   3.3370032  61.7677342  58.1534834  -2.0411901
  62.5894786  57.7515022  -2.3229220  61.7639745  58.0503069  -1.0895786
  55.5333945  57.7018878   0.1148809  55.5978378  58.1639285   0.9506981
  54.8244869  57.0716243   0.2431119  69.8583335  54.4973583  -5.6926930
  69.1047043  53.9280981  -5.8482925  69.9930876  54.4636247  -4.7456295
  51.7349303  45.4478565   6.6442145  51.3416248  44.8944764   7.3189789
  52.5515443  45.7589144   7.0348662  50.5106245  60.0028180  -7.3621532
  50.6872873  60.9246144  -7.5500548  51.3063079  59.6886599  -6.9327152
  54.6517264  46.8636444   4.2362401  55.3926977  47.4643597   4.1566864
  54.8835186  46.1214082   3.6780444  49.7958602  52.0492811   2.5140631
  49.6812117  51.1478069   2.8147730  48.9403119  52.2956508   2.1625448
  56.8750439  59.9910552   4.1128132  56.4314294  59.2046930   3.7949036
  57.5367653  60.1789702   3.4472022  51.6337561  61.5206353  -1.3611190
  52.1844986  61.3923417  -2.1334196  50.7949036  61.8201242  -1.7116297
  58.9731677  60.2713352   2.1409533  58.9550153  61.0922233   1.6489802
  59.8951598  60.1467427   2.3659674  55.4304732  57.7857481   2.9833041
  55.9633068  57.0245769   2.7532349  54.9018813  57.4931133   3.7257196
  61.7750290  55.1092494  -4.3881100  61.1173965  55.7991756  -4.3000972
  62.5790690  55.4988926  -4.0447114  60.5855749  53.4636867  -6.3377159
  61.0987631  54.0966859  -5.8355449  61.2356973  52.8638062  -6.7033799
  57.0636580  50.9386322  -4.0918818  56.1459141  51.1601269  -4.2497130
  57.4796724  51.0132633  -4.9507111  61.3517545  58.4442868  -8.2098016
  60.8979872  57.6033778  -8.1532826  60.7211512  59.0804267  -7.8723236
  59.7950485  60.2819365  -7.2748198  60.0873459  60.8424422  -7.9935832
  60.3049105  60.5747926  -6.5195039  54.7584110  61.0599716  -6.1854745
  54.7160289  61.2860562  -7.1146213  55.6746809  60.8263091  -6.0368944
  58.2049744  51.5283784   0.7125885  58.5599131  51.7555257   1.5720350
  58.8521875  51.8602160   0.0903140  63.9347481  54.6502219  -8.5824786
  63.7965379  54.8403815  -9.5103597  63.5783699  55.4121602  -8.1256735
  63.9616860  56.7178746  -3.5713515  64.3953367  56.6254036  -2.7230461
  64.6748441  56.6936247  -4.2093499  52.8749911  57.9362745  -6.3892782
  53.6690509  57.4413065  -6.5910207  52.1641603  57.4080608  -6.7525076
  57.6944755  60.3180841  -2.0380414  57.7481777  60.8871777  -1.2702698
  56.8259536  60.4882726  -2.4026377  50.5743148  50.0198397  -0.5555963
  51.2466202  49.8115759  -1.2043314  49.7472935  49.8220483  -0.9950731
  64.8232410  56.7602447  -1.0380630  65.0168300  57.6648258  -0.7921355
  64.7233028  56.3009866  -0.2042045  56.4768720  46.6460338   1.4609698
  55.8296635  47.3450287   1.3674174  57.2469736  47.0796482   1.8285946
  59.8847518  56.9109190   4.5360251  59.7333025  56.6819742   3.6190335
  59.8752198  57.8679791   4.5491596  56.6532855  54.4841103  -0.4793483
  57.5824915  54.6352262  -0.6524515  56.2323885  54.5725123  -1.3344836
  55.4521187  58.5091767  -2.7094945  55.3132272  58.1410551  -1.8369007
  54.6635783  59.0239406  -2.8810987  56.0469339  63.6100864 -11.3669408
  56.2221094  63.1388907 -10.5523786  55.3602127  64.2366630 -11.1388148
  57.0026402  57.8873370  -5.3206107  56.6676234  57.8474140  -4.4248457
  56.5030347  57.2218086  -5.7935697  50.9770646  53.2941000   0.2046474
  50.8390444  52.5621239   0.8058013  51.8875569  53.2049900  -0.0769338
  53.6052946  53.0060959  -0.3069846  54.3152565  52.3654151  -0.3483228
  53.5622255  53.2573854   0.6156334  61.5939725  59.9428312   2.6136733
  61.5352271  59.2587533   1.9467316  61.9959243  60.6847302   2.1617359
  52.3181880  49.9926177   1.5125793  51.7819237  49.5416915   2.1647390
  51.7298589  50.1272086   0.7696258  50.6130424  66.7590226  -4.5929548
  50.8527022  67.3908750  -3.9150530  49.7699620  66.4078266  -4.3064189
  61.5957132  57.9067896   0.8450713  60.7083911  57.5693818   0.9677111
  62.1655683  57.1750928   1.0819478  55.1258286  62.5669349  -2.1888044
  55.0528457  63.3724320  -1.6768740  54.6835679  62.7661315  -3.0140023
  54.9148065  61.8041119  -8.6785223  54.1315587  62.3462799  -8.5846998
  55.6140810  62.3215098  -8.2790981  66.0774473  53.3176114  -4.3932726
  66.0664349  54.2000829  -4.7638793  65.2091852  52.9647665  -4.5878189
  57.5856969  62.4656183  -0.0329886  58.2984941  63.1003648  -0.1053984
  57.0946998  62.5620049  -0.8489884  59.3074496  56.3707435  -8.4612594
  58.3730775  56.4908898  -8.6307890  59.4851165  55.4679902  -8.7252584
  62.6947047  52.2124755  -7.9262560  63.1607500  53.0452746  -8.0002257
  63.1454548  51.7469736  -7.2217301  52.6368883  60.2150626   0.7875685
  53.3378342  60.8487109   0.9405079  52.1663998  60.5565358   0.0271325
  60.4370169  52.7695234  -1.3871764  59.7841619  53.0171141  -2.0419312
  60.8150549  51.9559372  -1.7209287  57.3977343  62.8054927  -7.2843594
  57.5799737  61.9876583  -6.8215842  58.2210329  63.0222619  -7.7218704
  57.7319508  61.7323112 -10.0228546  58.2607275  61.2215567 -10.6358383
  57.9947728  61.4165642  -9.1583013  56.4857742  53.5115045   5.0994273
  55.8098379  53.4109174   5.7696648  57.3085376  53.3554258   5.5630270
  48.2336601  59.7486981  -2.2793212  48.8190038  59.0030669  -2.1465308
  48.0361439  60.0590938  -1.3956548  51.0875256  62.7838229  -7.2630770
  50.4185631  63.2684356  -7.7466730  50.9488126  63.0307449  -6.3487391
  55.2280525  64.8181972  -0.6648111  55.7798833  64.9813594   0.1000974
  55.5686718  65.4086410  -1.3368086  49.6797290  49.2380255   3.5846808
  50.3069329  48.8557332   4.1984332  48.8225209  49.0194456   3.9502500
  60.0791399  59.6443230   5.1900543  60.6231303  60.2573188   4.6955498
  59.4978244  60.2022808   5.7067556  58.3648912  62.7663948  -3.6784429
  58.2400051  61.9653688  -4.1873484  59.0228003  63.2610141  -4.1670459
  60.4283820  60.5672968  -2.0504879  59.4814156  60.4478319  -2.1226552
  60.7766593  59.6795466  -1.9678618  52.7883394  46.4567107   1.7733363
  53.3117795  46.7029403   2.5359672  52.5695727  47.2887142   1.3536500
  57.4330254  60.3625684  -5.8500527  57.2855216  59.4342391  -5.6692957
  58.2583747  60.3845775  -6.3343452  61.0364375  61.1854243  -4.7635654
  61.9610923  60.9797104  -4.9011203  60.8679679  60.9370644  -3.8546313
  53.9935939  47.3980802  -0.5416967  53.6532759  46.5988615  -0.1396287
  53.2874945  47.6982513  -1.1140133  55.8813503  48.5989123  -2.1863648
  55.6231281  49.5206194  -2.1879318  55.3498543  48.2019558  -1.4963184
  60.8259692  61.7039910  -9.4073563  60.9996569  61.1386333 -10.1599710
  61.3188583  62.5040805  -9.5894073  46.6436651  53.7154579  -1.3410004
  46.0990120  54.4914387  -1.2089729  47.5216001  54.0625384  -1.4990882
  66.6799083  54.4676333  -7.7883263  67.1230229  53.7183658  -8.1864140
  65.8025593  54.4586470  -8.1709531  61.8134864  61.0206675 -12.3076664
  62.5085769  61.6413367 -12.0889350  62.1558014  60.1702026 -12.0324286
  47.4302673  52.8424476   1.5520153  46.6884409  52.9907111   2.1384783
  47.1095418  53.1032741   0.6886902  63.7126287  58.4706380 -10.7789334
  64.2377611  58.8093653 -11.5040014  63.6248640  57.5353395 -10.9626199
  55.3746336  62.3840454   1.3500543  55.6833462  62.1389601   2.2223243
  56.1721818  62.5887092   0.8619413  55.3966948  64.5378363  -6.4194080
  54.9571938  64.0454742  -5.7261224  56.1475065  63.9951331  -6.6602005
  47.8759287  60.7289904  -6.4169452  48.7017307  60.4293676  -6.7970809
  47.5253339  59.9597527  -5.9679664  52.8440820  60.0816373  -4.3471779
  52.2220829  59.4187078  -4.6469551  53.5145687  60.1077504  -5.0298131
  52.9165348  48.5598161   5.2460727  52.9653503  49.4360283   4.8638497
  53.4587862  48.0175554   4.6732371  63.4020193  59.1039284   4.5261864
  62.6115737  59.0863423   3.9866364  63.1653548  59.6427577   5.2810901
  63.5218068  55.9531750   1.8394593  63.5716073  55.7881758   2.7810116
  63.4131992  55.0859009   1.4492474  60.8121831  51.9362678   3.1553900
  61.7131694  51.7969143   2.8637897  60.8869805  52.1017133   4.0952077
  55.1464636  49.3129533   2.0007086  54.2767945  49.6063099   1.7289674
  55.3824116  49.8969978   2.7214350  65.0236265  58.3728692   2.0836614
  64.7321073  58.7358672   2.9200075  64.4108396  57.6595700   1.9049947
  66.2231948  55.9381571  -5.3960815  67.0578839  56.3771376  -5.2323255
  66.3591076  55.4620225  -6.2152570  63.2723453  53.4961306   0.5516672
  63.7477575  53.6888953  -0.2564476  62.3489019  53.5520492   0.3060056
  57.8503670  45.5309150  -0.4827494  58.3685614  46.2670177  -0.8081005
  57.4958803  45.8373143   0.3519265  61.9725122  50.3727066  -1.2155022
  62.9242545  50.4725164  -1.1942798  61.8028573  49.5805335  -0.7056938
  59.9939502  47.4582650  -1.0295621  59.3989434  47.7387662  -1.7249132
  59.7089199  47.9476551  -0.2578880  64.4513200  53.5933186  -2.1012722
  64.4189520  52.6549187  -1.9153038  65.0613824  53.6717223  -2.8346897
  64.6007689  50.3844229  -2.0554439  64.0846737  49.6002686  -2.2424510
  65.4847637  50.0562946  -1.8907920  70.2689750  54.6549193  -2.9606685
  70.9993139  54.3934481  -2.3998982  69.6596696  53.9177915  -2.9204618
  68.3505047  52.7957055  -2.3632234  67.6238211  52.6613020  -2.9715743
  67.9352334  53.1033884  -1.5575516  56.1735224  56.5146985   5.4015139
  57.0938233  56.6925584   5.5955185  56.1384807  55.5703031   5.2494838
  49.1697296  54.4248020  -1.9562080  49.3883306  55.3565128  -1.9374046
  49.5823070  54.0655994  -1.1707276  54.0425161  49.9981226   7.4340669
  53.9421888  50.9475583   7.3652760  53.8246704  49.6699464   6.5616739
  53.9056432  53.4278364   6.2505730  53.4223513  54.2278725   6.4569620
  53.9917371  53.4386309   5.2973174  49.8329769  57.3182899  -1.7125836
  50.7873023  57.2866841  -1.7795904  49.6342293  56.8573523  -0.8975610
  50.4229151  55.8884015   0.8544962  51.2422040  56.3828094   0.8779799
  50.6965959  54.9715983   0.8262529  63.5310283  48.3041288  -6.0672743
  64.3070674  48.7937741  -5.7948127  62.8058418  48.7299343  -5.6100874
  65.9682842  49.0168908  -5.0098803  66.5627333  48.7764644  -5.7205494
  66.0409426  48.2976038  -4.3825266  48.1879998  62.8602519  -4.6955638
  48.0534466  62.1002920  -5.2617640  47.7712060  63.5843418  -5.1626849
  68.2753915  52.3235109  -6.2355382  67.7153473  52.3928298  -5.4623819
  67.6697418  52.1476093  -6.9555885  51.3449124  63.7571836  -4.4837195
  51.2281508  64.7017268  -4.5858505  50.5241570  63.4545397  -4.0951396
  45.6764065  50.2222149   1.5537159  46.3222929  49.7121103   2.0424384
  45.4681217  50.9590831   2.1280584  58.2017458  57.2902997   7.0529300
  59.0708617  57.4643649   6.6915934  57.7224209  58.1097413   6.9305029
  52.3703638  64.4100098  -1.2681267  53.2730885  64.4423708  -0.9514772
  52.1441008  63.4800548  -1.2534931  54.1257240  63.1631084  -4.6071188
  53.1752871  63.1632946  -4.7206816  54.4289726  62.4163819  -5.1235154
  50.0161556  47.3689766   5.6512173  50.8793018  47.0126571   5.8615498
  49.4426967  47.0303661   6.3387577  69.8609933  68.9991622  -3.5425426
  70.4988343  68.8798370  -4.2462086  69.7430776  69.9472466  -3.4837474
  66.6699640  68.9519051  -3.6063901  66.3318151  68.8360115  -4.4943366
  67.5389408  68.5510216  -3.6262895  67.1519423  70.1053902   2.3522304
  67.1408063  69.7106701   1.4802808  67.3140062  69.3719975   2.9456076
  60.0750887  72.3005719  -4.7782790  60.8672179  71.9596543  -5.1936490
  60.3147537  72.4100694  -3.8580636  63.8726684  72.8891014   1.3001488
  63.5816550  73.7936645   1.1848155  64.5083668  72.9307542   2.0145558
  64.7982891  70.2667863  -2.1097152  65.3946463  70.0423885  -2.8240189
  64.8557862  69.5252608  -1.5071704  69.4151202  66.7243076  -6.4672218
  70.2014291  66.3062499  -6.8181801  69.6789906  67.6289169  -6.2990569
  72.3385049  60.3739884  -1.1044631  72.0068374  61.2435295  -1.3283416
  71.7430663  60.0576168  -0.4250600  68.8316569  72.5752430  -1.7048718
  68.5317292  73.4777468  -1.8132911  68.4867628  72.3084613  -0.8527565
  62.2829050  69.0266226  -5.6712013  61.3579547  68.8942441  -5.4634322
  62.5313463  69.8060446  -5.1742071  72.2313713  65.0934970  -4.0251281
  71.3230590  65.0250378  -4.3192520  72.1801308  65.5706915  -3.1969455
  59.6437861  68.6699500  -4.8368224  59.7730243  68.9233979  -3.9228813
  58.9635313  69.2627208  -5.1563569  66.3054578  66.5124615   3.9183617
  65.5287912  67.0718536   3.9086481  66.9445141  66.9981398   4.4398487
  74.0975359  63.2951408  -2.2473407  73.4549739  63.5883941  -2.8933612
  73.5930288  63.1804329  -1.4420210  64.5600951  69.3210069   3.4801584
  65.3015635  69.8595113   3.2036407  63.8537936  69.9476358   3.6373135
  70.0356290  71.4639209   2.0773745  70.4439646  71.0221620   1.3328378
  69.3133552  70.8891837   2.3307938  66.3887360  66.4011816  -0.5492698
  67.2348556  66.8251230  -0.4058049  66.3285998  65.7445440   0.1445865
  69.5386806  64.0616184   1.1088476  69.2947738  64.8158245   0.5722751
  69.8146736  64.4401532   1.9435723  71.4925268  70.6054797  -0.2134259
  71.7042164  71.2486557  -0.8899878  71.4455017  69.7717113  -0.6812329
  69.0951497  63.2172617  -3.3097687  68.2335976  63.5153871  -3.0180949
  69.1213932  63.4343016  -4.2416654  62.8037148  71.3086289  -3.9644118
  63.3738505  71.7373558  -4.6026633  63.3945260  71.0268874  -3.2659932
  63.2962314  66.4749717   4.2816894  62.6660975  67.1565998   4.5152291
  63.1898402  66.3632799   3.3370032  58.5907287  66.1421513  -4.7917182
  57.8006341  66.3979042  -5.2677072  59.0818534  66.9569851  -4.6865142
  60.5422032  66.5066092  -7.8333705  59.7453196  66.6184786  -7.3150210
  60.3147624  66.8452744  -8.6992815  66.3727700  73.0310795   0.1148809
  66.4372132  73.4931203   0.9506981  65.6638624  72.4008160   0.2431119
  56.8744990  66.3952003  -2.3602191  57.1253028  67.2799013  -2.0944615
  57.4104538  66.2156605  -3.1327100  62.5743057  60.7770483   6.6442145
  62.1810003  60.2236681   7.3189789  63.3909197  61.0881061   7.0348662
  65.4911018  62.1928362   4.2362401  66.2320732  62.7935515   4.1566864
  65.7228941  61.4506000   3.6780444  60.6352356  67.3784729   2.5140631
  60.5205871  66.4769986   2.8147730  59.7796874  67.6248426   2.1625448
  67.7144194  75.3202469   4.1128132  67.2708048  74.5338848   3.7949036
  68.3761407  75.5081620   3.4472022  62.4731315  76.8498271  -1.3611190
  63.0238740  76.7215334  -2.1334196  61.6342791  77.1493160  -1.7116297
  69.8125432  75.6005269   2.1409533  69.7943907  76.4214150   1.6489802
  70.7345352  75.4759345   2.3659674  66.2698486  73.1149399   2.9833041
  66.8026823  72.3537687   2.7532349  65.7412567  72.8223051   3.7257196
  69.4368181  58.2209465  -1.4873317  69.0932450  59.1111106  -1.5634206
  69.8047144  58.0311122  -2.3503732  57.5054032  70.5442995  -8.6684715
  58.3429254  70.9540004  -8.8851007  57.6832299  69.6042437  -8.6984521
  66.9865575  63.0567777  -7.9215644  66.1307171  62.6674627  -8.1010005
  67.3992527  63.1359738  -8.7815858  68.5164721  60.5914120  -3.5224084
  68.0129517  60.5544255  -4.3356278  68.8095328  61.5006863  -3.4627427
  64.7607607  60.6752850  -4.5157902  65.6260604  60.4795658  -4.8752013
  64.8285116  60.4463201  -3.5888545  62.3669926  62.9055058  -7.1441535
  62.9413678  62.6830239  -7.8768342  62.9540909  62.9743752  -6.3912934
  64.6692594  59.7796307  -8.4166466  64.0157006  59.4645324  -9.0409851
  64.6273068  59.1572047  -7.6906643  67.9030335  66.2678240  -4.0918818
  66.9852896  66.4893187  -4.2497130  68.3190478  66.3424551  -4.9507111
  71.2355847  57.4803024  -6.3855579  71.5414724  56.6200387  -6.6729664
  71.9608452  58.0720644  -6.5856585  57.5280203  67.8833711  -7.9973981
  57.3304603  67.2903071  -8.7222915  56.9726867  67.5785921  -7.2798043
  65.5076926  67.7756817  -5.8779388  65.5625536  66.8230653  -5.9536912
  64.6968129  67.9316256  -5.3938090  63.4469286  66.3933877  -8.1189009
  62.6337152  66.6928047  -7.7123817  63.9428281  65.9989566  -7.4014527
  69.0443498  66.8575701   0.7125885  69.3992886  67.0847174   1.5720350
  69.6915629  67.1894078   0.0903140  62.9383361  63.9652232  -2.5027774
  63.5782740  63.8240991  -3.2004811  62.1060892  63.6786746  -2.8789172
  68.5338510  75.6472758  -2.0380414  68.5875532  76.2163695  -1.2702698
  67.6653291  75.8174643  -2.4026377  59.9411978  63.9352557  -7.7254788
  60.2018795  64.8497891  -7.8345627  60.7629150  63.4677000  -7.5758175
  61.4136903  65.3490314  -0.5555963  62.0859956  65.1407677  -1.2043314
  60.5866689  65.1512400  -0.9950731  67.3162475  61.9752255   1.4609698
  66.6690390  62.6742205   1.3674174  68.0863490  62.4088399   1.8285946
  70.7241273  72.2401108   4.5360251  70.5726779  72.0111659   3.6190335
  70.7145952  73.1971709   4.5491596  67.4926609  69.8133020  -0.4793483
  68.4218669  69.9644180  -0.6524515  67.0717639  69.9017041  -1.3344836
  66.2914941  73.8383685  -2.7094945  66.1526027  73.4702469  -1.8369007
  65.5029537  74.3531324  -2.8810987  61.8164400  68.6232917   0.2046474
  61.6784198  67.8913156   0.8058013  62.7269324  68.5341818  -0.0769338
  64.4446701  68.3352877  -0.3069846  65.1546319  67.6946069  -0.3483228
  64.4016009  68.5865772   0.6156334  72.4333480  75.2720230   2.6136733
  72.3746026  74.5879450   1.9467316  72.8352998  76.0139220   2.1617359
  63.1575635  65.3218095   1.5125793  62.6212992  64.8708833   2.1647390
  62.5692343  65.4564004   0.7696258  72.4350887  73.2359814   0.8450713
  71.5477666  72.8985736   0.9677111  73.0049438  72.5042845   1.0819478
  54.0880034  69.5683906  -5.8306236  54.7751074  69.2545636  -6.4185221
  53.9328163  70.4725270  -6.1038985  58.8914756  64.4574102  -1.4021212
  58.8072945  63.8499772  -2.1370802  58.0697462  64.9483121  -1.4011716
  69.0638470  62.9427666  -6.0351017  69.5607169  62.1897628  -6.3549947
  68.2925451  62.9791983  -6.6007808  68.4250724  77.7948100  -0.0329886
  69.1378696  78.4295565  -0.1053984  67.9340752  77.8911966  -0.8489884
  65.6473439  65.0845049  -6.3079333  65.2771226  64.5316089  -5.6198427
  66.1432531  64.4803182  -6.8604333  63.4762637  75.5442544   0.7875685
  64.1772097  76.1779027   0.9405079  63.0057752  75.8857275   0.0271325
  71.5057465  59.9097259  -3.8871658  70.5920545  60.1401486  -3.7189451
  71.9350566  59.9935703  -3.0357626  71.2763923  68.0987151  -1.3871764
  70.6235373  68.3463059  -2.0419312  71.6544303  67.2851290  -1.7209287
  67.3251496  68.8406962   5.0994273  66.6492133  68.7401092   5.7696648
  68.1479130  68.6846176   5.5630270  59.0730355  75.0778899  -2.2793212
  59.6583792  74.3322587  -2.1465308  58.8755194  75.3882856  -1.3956548
  53.6648010  67.6484499  -3.5588769  53.7032110  67.1148090  -2.7651651
  53.1588303  67.1219705  -4.1777792  61.0438772  62.4949040  -0.0626227
  61.1080099  63.3563871  -0.4748829  60.9805893  61.8823041  -0.7953868
  60.5191045  64.5672172   3.5846808  61.1463084  64.1849250   4.1984332
  59.6618964  64.3486374   3.9502500  70.9185153  74.9735147   5.1900543
  71.4625057  75.5865106   4.6955498  70.3371998  75.5314726   5.7067556
  57.2956588  66.3748601 -10.4834838  57.5910029  65.4659280 -10.5367784
  56.3944623  66.3536341 -10.8053835  60.8250835  64.4504598  -4.5007289
  60.1037420  65.0640566  -4.6399816  61.6144090  64.9862363  -4.5790643
  63.6277148  61.7859024   1.7733363  64.1511550  62.0321321   2.5359672
  63.4089481  62.6179059   1.3536500  59.0244429  64.0562699 -10.3595512
  58.6957135  63.1760078 -10.5420406  59.3783800  64.0010368  -9.4719123
  62.1386252  64.3435669  -9.9920035  62.4782325  64.8721590 -10.7141426
  62.5858373  64.6816075  -9.2161468  64.8329693  62.7272720  -0.5416967
  64.4926514  61.9280533  -0.1396287  64.1268699  63.0274430  -1.1140133
  65.4846165  59.8122032  -2.0889644  66.3072234  59.3382510  -2.2110753
  65.7284229  60.5912516  -1.5890957  63.0084744  66.5041153  -4.2797665
  62.8629324  66.8181456  -3.3873383  62.5309947  67.1226053  -4.8326766
  64.8681127  63.4943701  -4.2316775  64.8542695  62.5984794  -4.5684477
  65.5853555  63.5014364  -3.5978489  66.7207257  63.9281041  -2.1863648
  66.4625035  64.8498111  -2.1879318  66.1892298  63.5311475  -1.4963184
  57.4830406  69.0446497  -1.3410004  56.9383874  69.8206305  -1.2089729
  58.3609756  69.3917301  -1.4990882  64.2718023  62.3758081  -8.9629205
  64.3933934  61.4474727  -8.7638318  63.9820065  62.3896767  -9.8750890
  67.1409213  60.0612991  -5.8262485  67.1630910  60.1252324  -6.7810506
  67.5577272  59.2217500  -5.6321979  58.2696428  68.1716393   1.5520153
  57.5278164  68.3199029   2.1384783  57.9489172  68.4324659   0.6886902
  66.2140090  77.7132371   1.3500543  66.5227217  77.4681518   2.2223243
  67.0115572  77.9179010   0.8619413  56.9161647  73.9768148  -5.4580519
  56.0793555  73.5490323  -5.6396517  56.8885292  74.1700592  -4.5209728
  63.7559102  63.8890078   5.2460727  63.8047258  64.7652201   4.8638497
  64.2981616  63.3467471   4.6732371  74.2413948  74.4331201   4.5261864
  73.4509492  74.4155340   3.9866364  74.0047302  74.9719495   5.2810901
  74.3611823  71.2823668   1.8394593  74.4109828  71.1173675   2.7810116
  74.2525746  70.4150927   1.4492474  71.6515585  67.2654596   3.1553900
  72.5525448  67.1261061   2.8637897  71.7263560  67.4309051   4.0952077
  65.9858391  64.6421451   2.0007086  65.1161700  64.9355017   1.7289674
  66.2217871  65.2261896   2.7214350  75.8630020  73.7020609   2.0836614
  75.5714828  74.0650590   2.9200075  75.2502151  72.9887618   1.9049947
  74.1117208  68.8253224   0.5516672  74.5871330  69.0180870  -0.2564476
  73.1882773  68.8812410   0.3060056  68.6897424  60.8601068  -0.4827494
  69.2079368  61.5962094  -0.8081005  68.3352557  61.1665061   0.3519265
  68.9410019  57.2801350  -4.9626597  69.2211772  56.6124539  -4.3366171
  69.7260626  57.4730446  -5.4751933  72.8118877  65.7018984  -1.2155022
  73.7636300  65.8017082  -1.1942798  72.6422327  64.9097253  -0.7056938
  70.8333256  62.7874567  -1.0295621  70.2383189  63.0679580  -1.7249132
  70.5482953  63.2768468  -0.2578880  75.2906955  68.9225104  -2.1012722
  75.2583275  67.9841104  -1.9153038  75.9007578  69.0009140  -2.8346897
  75.4401443  65.7136147  -2.0554439  74.9240492  64.9294604  -2.2424510
  76.3241392  65.3854864  -1.8907920  73.1012170  59.4577163  -6.0958626
  72.9036991  59.1492251  -5.2115294  73.7111876  60.1838802  -5.9660697
  67.0128978  71.8438903   5.4015139  67.9331988  72.0217502   5.5955185
  66.9778561  70.8994948   5.2494838  56.2311143  67.0377497  -5.6731587
  55.9113927  66.1842805  -5.9657213  55.6844571  67.2526075  -4.9173619
  60.0091051  69.7539938  -1.9562080  60.2277060  70.6857045  -1.9374046
  60.4216824  69.3947912  -1.1707276  66.9295268  60.2608023  -9.9686392
  66.1195997  59.9155108  -9.5931146  67.6179685  59.9515567  -9.3798780
  68.8585817  59.3386070  -8.3462095  69.4116855  59.7581523  -7.6872072
  69.0955903  58.4121818  -8.3039139  64.8818916  65.3273143   7.4340669
  64.7815643  66.2767500   7.3652760  64.6640458  64.9991382   6.5616739
  56.0999403  70.6580408  -3.7038465  55.4062875  70.2434361  -4.2168511
  56.8472394  70.7000945  -4.3005046  70.6868190  60.8491653  -6.6362111
  71.1867969  60.9608187  -7.4447792  71.3303798  60.5452705  -5.9961302
  64.7450186  68.7570282   6.2505730  64.2617268  69.5570642   6.4569620
  64.8311125  68.7678227   5.2973174  58.0136146  70.5898662  -5.8272450
  57.9906834  70.6886349  -6.7790567  58.3236782  71.4363813  -5.5055284
  60.6723524  72.6474817  -1.7125836  61.6266777  72.6158759  -1.7795904
  60.4736047  72.1865441  -0.8975610  61.2622906  71.2175933   0.8544962
  62.0815795  71.7120012   0.8779799  61.5359713  70.3007901   0.8262529
  74.3704038  63.6333206  -6.0672743  75.1464428  64.1229659  -5.7948127
  73.6452172  64.0591260  -5.6100874  56.5157820  65.5514067   1.5537159
  57.1616683  65.0413021   2.0424384  56.3074971  66.2882748   2.1280584
  69.0411212  72.6194914   7.0529300  69.9102372  72.7935567   6.6915934
  68.5617964  73.4389331   6.9305029  63.2097392  79.7392015  -1.2681267
  64.1124639  79.7715625  -0.9514772  62.9834762  78.8092466  -1.2534931
  68.8513550  56.4096888  -8.4393008  68.0845946  55.8555375  -8.2936326
  69.2624255  56.4818757  -7.5778856  60.8555311  62.6981684   5.6512173
  61.7186772  62.3418489   5.8615498  60.2820722  62.3595579   6.3387577
  73.4136812  76.1062400   6.6442145  73.0203757  75.5528599   7.3189789
  74.2302952  76.4172979   7.0348662  76.3304773  77.5220280   4.2362401
  77.0714486  78.1227433   4.1566864  76.5622695  76.7797917   3.6780444
  71.3584799  79.8964090   3.5846808  71.9856838  79.5141167   4.1984332
  70.5012718  79.6778292   3.9502500  74.5952857  79.2181996   5.2460727
  74.6441012  80.0944119   4.8638497  75.1375371  78.6759389   4.6732371
  75.7212670  80.6565061   7.4340669  75.6209397  81.6059418   7.3652760
  75.5034213  80.3283300   6.5616739  67.3551574  80.8805984   1.5537159
  68.0010438  80.3704938   2.0424384  67.1468725  81.6174666   2.1280584
  71.6949065  78.0273601   5.6512173  72.5580527  77.6710406   5.8615498
  71.1214476  77.6887496   6.3387577  67.7144195  52.3264592  -9.1626562
  67.2708049  51.5400971  -9.4805657  68.3761409  52.5143743  -9.8282671
  69.8125433  52.6067392 -11.1345160  69.7943909  53.4276273 -11.6264891
  70.7345353  52.4821467 -10.9095019  70.7241274  49.2463230  -8.7394442
  70.5726781  49.0173782  -9.6564359  70.7145954  50.2033832  -8.7263097
  72.4333481  52.2782353 -10.6617960  72.3746027  51.5941573 -11.3287377
  72.8352999  53.0201343 -11.1137334  70.9185155  51.9797270  -8.0854150
  71.4625059  52.5927228  -8.5799195  70.3372000  52.5376848  -7.5687137
  74.2413949  51.4393324  -8.7492829  73.4509493  51.4217463  -9.2888330
  74.0047304  51.9781618  -7.9943792  75.8630021  50.7082732 -11.1918079
  75.5714829  51.0712712 -10.3554618  75.2502152  49.9949740 -11.3704747
  69.0411213  49.6257037  -6.2225394  69.9102373  49.7997689  -6.5838759
  68.5617965  50.4451454  -6.3449664  73.4136813  53.1124523  -6.6312549
  73.0203758  52.5590722  -5.9564904  74.2302953  53.4235102  -6.2406031
  76.3304774  54.5282402  -9.0392292  77.0714487  55.1289555  -9.1187830
  76.5622697  53.7860040  -9.5974249  71.3584801  56.9026212  -9.6907886
  71.9856839  56.5203290  -9.0770361  70.5012719  56.6840414  -9.3252193
  74.5952858  56.2244118  -8.0293966  74.6441013  57.1006241  -8.4116196
  75.1375372  55.6821512  -8.6022323  75.7212672  57.6627184  -5.8414025
  75.6209399  58.6121541  -5.9101933  75.5034214  57.3345422  -6.7137954
  67.3551576  57.8868107 -11.7217534  68.0010439  57.3767061 -11.2330309
  67.1468727  58.6236789 -11.1474109  71.6949067  55.0335724  -7.6242520
  72.5580528  54.6772529  -7.4139196  71.1214477  54.6949619  -6.9367116
   4.8220803 100.4849340  47.4091841   4.0684511  99.9156738  47.2535845
   4.9568344 100.4512004  48.3562475   1.6436551 100.4552090  45.3135507
   2.0867697  99.7059415  44.9154631   0.7663061 100.4462226  44.9309239
   1.1869416 101.9257328  47.7057955   2.0216307 102.3647132  47.8695515
   1.3228544 101.4495981  46.8866201   5.2327218 100.6424950  50.1412085
   5.9630607 100.3810238  50.7019788   4.6234164  99.9053671  50.1814153
   3.3142515  98.7832812  50.7386536   2.5875679  98.6488777  50.1303028
   2.8989802  99.0909641  51.5443254   0.9320310  95.0044664  48.0919968
   1.5264801  94.7640400  47.3813276   1.0046894  94.2851795  48.7193504
   3.2391383  98.3110865  46.8663389   2.6790941  98.3804054  47.6394951
   2.6334886  98.1351850  46.1462885   4.4005649 104.2085221  51.6145453
   4.0569919 105.0986863  51.5384564   4.7684612 104.0186879  50.7515038
   6.1993315 103.4678781  46.7163191   6.5052192 102.6076144  46.4289106
   6.9245920 104.0596401  46.5162185   6.4694933 105.8973016  49.2147112
   5.5558013 106.1277243  49.3829319   6.8988034 105.9811460  50.0661144
   3.9047487 103.2677107  48.1392173   4.1849240 102.6000296  48.7652600
   4.6898094 103.4606202  47.6266837   8.0649638 105.4452919  47.0060144
   7.8674459 105.1368008  47.8903476   8.6749344 106.1714558  47.1358074
   3.8223285 105.3261826  44.7556675   4.3754323 105.7457280  45.4146698
   4.0593371 104.3997574  44.7979631   3.8151018 102.3972645  44.6625762
   3.0483414 101.8431131  44.8082445   4.2261723 102.4694513  45.5239914
   4.8220804  77.4911462  34.1337147   4.0684513  76.9218860  33.9781152
   4.9568345  77.4574127  35.0807782   1.6436552  77.4614212  32.0380814
   2.0867698  76.7121538  31.6399937   0.7663062  77.4524349  31.6554546
   1.1869417  78.9319451  34.4303262   2.0216308  79.3709255  34.5940822
   1.3228546  78.4558104  33.6111507   5.2327219  77.6487072  36.8657392
   5.9630608  77.3872360  37.4265095   4.6234165  76.9115794  36.9059459
   3.3142516  75.7894935  37.4631843   2.5875680  75.6550900  36.8548334
   2.8989803  76.0971763  38.2688561   0.9320311  72.0106787  34.8165274
   1.5264802  71.7702523  34.1058583   1.0046895  71.2913917  35.4438811
   3.2391384  75.3172988  33.5908695   2.6790942  75.3866177  34.3640258
   2.6334888  75.1413972  32.8708192   4.8247403  91.9929502  36.2838651
   5.4625813  91.8736249  35.5801991   4.7068245  92.9410346  36.3426603
   1.6337109  91.9456930  36.2200176   1.2955620  91.8297994  35.3320711
   2.5026877  91.5448095  36.2001182   2.1156892  93.0991781  42.1786381
   2.1045533  92.7044580  41.3066885   2.2777531  92.3657854  42.7720153
   4.3788671  89.7180956  33.3591859   5.1651760  89.3000379  33.0082276
   4.6427375  90.6227048  33.5273508   9.7797098  89.6556189  34.2624838
  10.5122270  89.0855406  34.4962667   9.0236454  89.2677789  34.7031343
   1.3973218  92.0783430  31.4588180   1.0331425  91.5514051  32.1701102
   2.2540334  91.6881899  31.2854666   7.3022519  83.3677763  38.7219446
   6.9705843  84.2373174  38.4980661   6.7068132  83.0514047  39.4013477
   3.7954038  95.5690309  38.1215359   3.4954761  96.4715348  38.0131166
   3.4505098  95.3022492  38.9736512   7.1951182  88.0872849  35.8012796
   6.2868059  88.0188257  35.5071557   7.1438778  88.5644794  36.6294622
   1.2692048  89.5062495  43.7447694   0.4925382  90.0656415  43.7350558
   1.9082611  89.9919278  44.2662564   9.0612828  86.2889287  37.5790670
   8.4187209  86.5821821  36.9330465   8.5567757  86.1742208  38.3843867
   6.7152992  90.0352461  28.2676530   7.6270848  90.2679847  28.0924227
   6.2062639  90.6189505  27.7051608   4.9993760  94.4577088  41.9037822
   5.4077116  94.0159499  41.1592455   4.2771021  93.8829716  42.1572015
   1.3524830  89.3949695  39.2771379   2.1986025  89.8189109  39.4206028
   1.2923467  88.7383319  39.9709942   5.3222574  95.0178279  35.6590111
   4.6931437  95.1823993  34.9566179   4.9348236  95.4319889  36.4301075
   9.2011806  95.9532717  33.0134475   8.5162844  96.3331618  32.4631508
   9.2855655  96.5628044  33.7466423   4.5024275  87.0554064  40.9352553
   4.2585207  87.8096124  40.3986828   4.7784206  87.4339411  41.7699800
   6.4562738  93.5992676  39.6129818   6.6679633  94.2424436  38.9364199
   6.4092486  92.7654992  39.1451748   4.0588967  86.2110497  36.5166391
   3.1973446  86.5091750  36.8083128   4.0851401  86.4280895  35.5847423
   0.8750536  94.7552687  32.9240196   1.3388882  95.0340390  32.1344819
   0.6107334  93.8536132  32.7413287   7.5708566  96.4764631  37.7852176
   8.3926009  96.0744819  37.5034857   7.5670969  96.3732865  38.7368292
   1.3365169  96.0248675  39.9412886   1.4009602  96.4869082  40.7771058
   0.6276093  95.3946040  40.0695196  15.6614559  92.8203380  34.1337147
  14.9078267  92.2510778  33.9781152  15.7962100  92.7866044  35.0807782
   2.6781663  98.3140349  43.9392209   2.2345517  97.5276727  43.6213113
   3.3398877  98.5019499  43.2736099   4.7762901  98.5943149  41.9673610
   4.7581377  99.4152030  41.4753879   5.6982821  98.4697224  42.1923751
   1.2335955  96.1087278  42.8097118   1.7664292  95.3475566  42.5796426
   0.7050037  95.8160930  43.5521273   4.4005650  81.2147344  38.3390760
   4.0569920  82.1048986  38.2629871   4.7684613  81.0249002  37.4760345
   4.3655933  91.2055955  26.8463195   3.8502557  91.9760560  27.0851583
   4.0933242  90.5321091  27.4696257   1.9503044  86.0505656  31.9048433
   1.0944640  85.6612506  31.7254072   2.3629996  86.1297617  31.0448219
   3.4802191  83.5851999  36.3039993   2.9766986  83.5482134  35.4907799
   3.7732798  84.4944742  36.3636650   9.3390207  93.9588310  28.7816369
   8.5619650  93.6199469  28.3371531  10.0181688  93.9640933  28.1071334
   4.1542236  89.0783047  28.6722976   3.8492372  89.3929196  29.5233119
   5.1072678  89.1564467  28.7150309   7.5781514  93.4322291  35.4382977
   6.9205189  94.1221552  35.5263105   8.3821913  93.8218723  35.7816963
   6.3886973  91.7866664  33.4886918   6.9018855  92.4196656  33.9908628
   7.0388197  91.1867859  33.1230278   2.8667804  89.2616119  35.7345259
   1.9490365  89.4831066  35.5766947   3.2827947  89.3362430  34.8756966
   3.6502852  90.6607535  30.8647939   4.3974671  91.1728932  30.5555061
   3.9194441  90.3391588  31.7252333   7.1548769  96.7672665  31.6166061
   6.7011096  95.9263575  31.6731251   6.5242736  97.4034064  31.9540841
   6.0981689  87.6964651  32.8466728   5.3604446  87.1842037  33.1776971
   6.3508462  87.2565033  32.0350005   5.5981708  98.6049162  32.5515879
   5.8904683  99.1654219  31.8328245   6.1080329  98.8977723  33.3069038
   6.1993316  80.4740903  33.4408498   6.5052193  79.6138267  33.1534413
   6.9245921  81.0658523  33.2407492   4.0080967  89.8513580  40.5389962
   4.3630355  90.0785054  41.3984427   4.6553099  90.1831957  39.9167217
   9.7378704  92.9732016  31.2439291   9.5996603  93.1633612  30.3160480
   9.3814923  93.7351399  31.7007342   9.7648084  95.0408543  36.2550562
  10.1984591  94.9483832  37.1033616  10.4779665  95.0166044  35.6170578
   3.4975979  98.6410637  37.7883663   3.5513001  99.2101574  38.5561379
   2.6290760  98.8112523  37.4237700  10.6263634  95.0832244  38.7883447
  10.8199524  95.9878055  39.0342722  10.5264252  94.6239663  39.6222032
   2.2799944  84.9690135  41.2873775   1.6327859  85.6680084  41.1938251
   3.0500960  85.4026279  41.6550023   5.6878742  95.2338987  44.3624328
   5.5364249  95.0049538  43.4454412   5.6783422  96.1909588  44.3755673
   2.4564079  92.8070900  39.3470594   3.3856139  92.9582059  39.1739562
   2.0355109  92.8954920  38.4919241   2.8057626  96.2103167  34.5057970
   2.4707458  96.1703937  35.4015620   2.3061571  95.5447883  34.0328380
   7.3970949  98.2658109  42.4400810   7.3383495  97.5817329  41.7731393
   7.7990467  99.0077099  41.9881436   7.3988356  96.2297693  40.6714790
   6.5115135  95.8923615  40.7941188   7.9686907  95.4980724  40.9083555
   0.9289509 100.8899146  37.6376033   0.8559681 101.6954117  38.1495337
   0.4866903 101.0891111  36.8124054   4.0275939  85.9365545  33.7913060
   4.5244639  85.1835507  33.4714130   3.2562921  85.9729862  33.2256269
  11.8805697  91.6405911  35.4331351  11.8695573  92.5230626  35.0625284
  11.0123076  91.2877461  35.2385888   3.3888193 100.7885980  39.7934191
   4.1016165 101.4233444  39.7210093   2.8978222 100.8849846  38.9774193
   5.1105720  94.6937232  31.3651483   4.1761999  94.8138695  31.1956187
   5.2882388  93.7909699  31.1011493   8.4978271  90.5354552  31.9001517
   8.9638723  91.3682543  31.8261820   8.9485772  90.0699533  32.6046776
   6.5654502  96.8798373  28.8987669   6.8414346  96.7654967  29.8081543
   5.6959001  96.4815858  28.8599842   6.4694934  82.9035139  35.9392419
   5.5558014  83.1339365  36.1074626   6.8988035  82.9873583  36.7906451
   6.2401393  91.0925031  38.4392313   5.5872843  91.3400938  37.7844765
   6.6181772  90.2789169  38.1054790   3.2008566 101.1284724  32.5420483
   3.3830961 100.3106380  33.0048235   4.0241552 101.3452416  32.1045373
   2.2888966  91.8344842  44.9258350   1.6129603  91.7338971  45.5960725
   3.1116599  91.6784055  45.3894347   1.0311748 103.1411769  39.1615966
   1.5830056 103.3043391  39.9265051   1.3717942 103.7316207  38.4895991
   5.8822623  97.9673027  45.0164620   6.4262527  98.5802985  44.5219575
   5.3009468  98.5252605  45.5331633   4.1680136 101.0893745  36.1479648
   4.0431275 100.2883484  35.6390593   4.8259227 101.5839938  35.6593618
   6.2315044  98.8902765  37.7759198   5.2845380  98.7708116  37.7037525
   6.5797817  98.0025263  37.8585459   3.2361477  98.6855481  33.9763550
   3.0886440  97.7572188  34.1571120   4.0614971  98.7075572  33.4920625
   6.8395599  99.5084040  35.0628423   7.7642147  99.3026901  34.9252874
   6.6710903  99.2600441  35.9717764   3.2322992  86.5393319  28.9695667
   3.4486606  87.4217956  28.6684496   2.7517059  86.1479532  28.2401309
   1.6844727  86.9218920  37.6400429   1.4262504  87.8435991  37.6384759
   1.1529767  86.5249354  38.3300893   6.6290915 100.0269707  30.4190514
   6.8027793  99.4616130  29.6664367   7.1219807 100.8270602  30.2370004
   2.1046682  83.0550870  34.0001592   2.1268379  83.1190204  33.0453571
   2.5214741  82.2155379  34.1942098  12.4830307  92.7906130  32.0380814
  12.9261453  92.0413455  31.6399937  11.6056817  92.7816266  31.6554546
   9.5157511  96.7936177  29.0474743  10.0408835  97.1323450  28.3224063
   9.4279864  95.8583192  28.8637878   1.1777560 100.7070251  41.1764620
   1.4864686 100.4619397  42.0487320   1.9753042 100.9116889  40.6883490
   9.2051417  97.4269081  44.3525941   8.4146961  97.4093219  43.8130441
   8.9684772  97.9657374  45.1074978   9.3249292  94.2761547  41.6658670
   9.3747297  94.1111554  42.6074193   9.2163215  93.4088806  41.2756551
   6.6153055  90.2592475  42.9817977   7.5162917  90.1198940  42.6901974
   6.6901029  90.4246930  43.9216154  10.8267489  96.6958489  41.9100691
  10.5352297  97.0588469  42.7464152  10.2139620  95.9825497  41.7314024
  12.0263171  94.2611368  34.4303262  12.8610063  94.7001172  34.5940822
  12.1622300  93.7850022  33.6111507   9.0754677  91.8191103  40.3780749
   9.5508799  92.0118749  39.5699601   8.1520243  91.8750289  40.1324133
   3.6534894  83.8538947  39.3436583   4.1716838  84.5899974  39.0183072
   3.2990026  84.1602940  40.1783342   3.9047488  80.2739229  34.8637480
   4.1849242  79.6062418  35.4897906   4.6898095  80.4668325  34.3512144
   7.7756346  88.6956863  38.6109055   8.7273769  88.7954961  38.6321279
   7.6059797  87.9035132  39.1207139   5.7970726  85.7812446  38.7968456
   5.2020658  86.0617459  38.1014945   5.5120422  86.2706347  39.5685197
  10.2544424  91.9162983  37.7251355  10.2220744  90.9778984  37.9111039
  10.8645048  91.9947020  36.9917180  10.4038912  88.7074026  37.7709638
   9.8877961  87.9232483  37.5839567  11.2878861  88.3792743  37.9356157
   8.0649639  82.4515042  33.7305451   7.8674461  82.1430130  34.6148783
   8.6749345  83.1776681  33.8603380  16.0720974  92.9778990  36.8657392
  16.8024362  92.7164278  37.4265095  15.4627919  92.2407712  36.9059459
  14.1536271  91.1186852  37.4631843  13.4269435  90.9842817  36.8548334
  13.7383558  91.4263681  38.2688561   1.9766447  94.8376782  45.2279216
   2.8969457  95.0155381  45.4219262   1.9416030  93.8932827  45.0758915
   1.8932738  83.2545902  29.8577685   1.0833466  82.9092987  30.2332931
   2.5817155  82.9453446  30.4465297   3.8223286  82.3323949  31.4801982
   4.3754325  82.7519402  32.1392005   4.0593372  81.4059697  31.5224938
   7.2002093  84.4424474  30.9880646   6.6200762  85.1009278  30.6058699
   6.9338026  83.6201819  30.5768064   5.6505659  83.8429532  33.1901967
   6.1505438  83.9546066  32.3816285   6.2941267  83.5390585  33.8302775
   5.9826971  86.6024564  30.0436994   5.0952826  86.8874215  29.8257189
   6.3980960  86.4418328  29.1964271   9.3341507  86.6271085  33.7591334
  10.1101897  87.1167538  34.0315951   8.6089641  87.0529140  34.2163203
  11.7714066  87.3398705  34.8165274  12.3658557  87.0994441  34.1058583
  11.8440650  86.6205835  35.4438811   5.9567995  92.1179100  30.2587285
   5.9003196  92.5747652  29.4194917   6.5096337  91.3569785  30.0810127
   9.7672801  87.9068832  31.0837404   9.5109735  87.5065468  31.9145612
   9.1425669  88.6212626  30.9587543  14.0785139  90.6464905  33.5908695
  13.5184697  90.7158095  34.3640258  13.4728642  90.4705890  32.8708192
   6.6902774  93.3083882  27.5539814   6.6351578  93.1428153  26.6128258
   6.0648829  94.0159914  27.7102003   4.0048681  95.6132793  46.8793377
   4.8739841  95.7873446  46.5180011   3.5255433  96.4327210  46.7569106
   3.8151019  79.4034767  31.3871069   3.0483415  78.8493254  31.5327751
   4.2261724  79.4756636  32.2485221  15.6641157 107.3221419  36.2838651
  16.3019567 107.2028167  35.5801991  15.5462000 108.2702263  36.3426603
  12.4730863 107.2748847  36.2200176  12.1349375 107.1589912  35.3320711
  13.3420632 106.8740013  36.2001182  12.9550646 108.4283699  42.1786381
  12.9439287 108.0336497  41.3066885  13.1171286 107.6949772  42.7720153
  15.2182426 105.0472873  33.3591859  16.0045515 104.6292296  33.0082276
  15.4821130 105.9518965  33.5273508  20.6190853 104.9848106  34.2624838
  21.3516025 104.4147323  34.4962667  19.8630208 104.5969707  34.7031343
  12.2366972 107.4075348  31.4588180  11.8725180 106.8805969  32.1701102
  13.0934088 107.0173817  31.2854666  18.1416273  98.6969680  38.7219446
  17.8099598  99.5665091  38.4980661  17.5461886  98.3805964  39.4013477
  18.0344936 103.4164767  35.8012796  17.1261814 103.3480175  35.5071557
  17.9832532 103.8936712  36.6294622  12.1085802 104.8354412  43.7447694
  11.3319136 105.3948332  43.7350558  12.7476365 105.3211195  44.2662564
  19.9006583 101.6181205  37.5790670  19.2580963 101.9113738  36.9330465
  19.3961511 101.5034125  38.3843867  17.5546746 105.3644378  28.2676530
  18.4664603 105.5971765  28.0924227  17.0456394 105.9481422  27.7051608
  15.8387514 109.7869006  41.9037822  16.2470870 109.3451417  41.1592455
  15.1164776 109.2121634  42.1572015  12.1918584 104.7241613  39.2771379
  13.0379779 105.1481026  39.4206028  12.1317222 104.0675237  39.9709942
  15.3418029 102.3845981  40.9352553  15.0978961 103.1388042  40.3986828
  15.6177960 102.7631329  41.7699800  17.2956492 108.9284594  39.6129818
  17.5073387 109.5716353  38.9364199  17.2486241 108.0946910  39.1451748
  14.8982721 101.5402414  36.5166391  14.0367200 101.8383668  36.8083128
  14.9245156 101.7572813  35.5847423  10.6513177 106.2067757  29.7329761
  11.3537220 106.6588801  30.2003688  10.3193805 105.5651576  30.3609654
   9.0993538 104.7979514  44.1080971   8.4692199 105.4795795  44.3416368
   8.9929626 104.6862595  43.1634109   4.3938511 104.4651310  35.0346895
   3.6037565 104.7208838  34.5587005   4.8849758 105.2799648  35.1398935
  26.5008313 108.1495297  34.1337147  25.7472022 107.5802696  33.9781152
  26.6355854 108.1157962  35.0807782   8.3774281  99.1000280  46.4706222
   7.9841227  98.5466478  47.1453866   9.1940421  99.4110858  46.8612739
  11.2942242 100.5158159  44.0626478  12.0351955 101.1165312  43.9830941
  11.5260165  99.7735797  43.5044521   6.4383580 105.7014526  42.3404708
   6.3237095 104.7999783  42.6411807   5.5828098 105.9478223  41.9889525
  15.2399405  96.5439262  38.3390760  14.8963674  97.4340903  38.2629871
  15.6078367  96.3540919  37.4760345  15.2049688 106.5347873  26.8463195
  14.6896311 107.3052477  27.0851583  14.9326996 105.8613009  27.4696257
  12.7896799 101.3797574  31.9048433  11.9338395 100.9904424  31.7254072
  13.2023750 101.4589534  31.0448219  14.3195945  98.9143917  36.3039993
  13.8160741  98.8774052  35.4907799  14.6126552  99.8236660  36.3636650
  10.5638831  98.9982647  35.3106175  11.4291828  98.8025455  34.9512064
  10.6316340  98.7692998  36.2375532  20.1783962 109.2880227  28.7816369
  19.4013404 108.9491387  28.3371531  20.8575443 109.2932851  28.1071334
  14.9935991 104.4074965  28.6722976  14.6886126 104.7221114  29.5233119
  15.9466433 104.4856385  28.7150309  18.4175269 108.7614209  35.4382977
  17.7598943 109.4513470  35.5263105  19.2215668 109.1510641  35.7816963
   8.1701150 101.2284854  32.6822542   8.7444902 101.0060036  31.9495735
   8.7572133 101.2973549  33.4351143  17.2280727 107.1158581  33.4886918
  17.7412609 107.7488573  33.9908628  17.8781951 106.5159777  33.1230278
  10.4723818  98.1026103  31.4097611   9.8188230  97.7875121  30.7854226
  10.4304292  97.4801844  32.1357434  13.7061558 104.5908037  35.7345259
  12.7884120 104.8122984  35.5766947  14.1221702 104.6654347  34.8756966
  14.4896606 105.9899453  30.8647939  15.2368425 106.5020850  30.5555061
  14.7588196 105.6683505  31.7252333  16.9375443 103.0256569  32.8466728
  16.1998200 102.5133955  33.1776971  17.1902217 102.5856950  32.0350005
  17.0387071  95.8032821  33.4408498  17.3445947  94.9430184  33.1534413
  17.7639675  96.3950441  33.2407492  11.3108150 106.0986614  33.9484689
  11.3656760 105.1460450  33.8727165  10.4999352 106.2546053  34.4325987
   9.2500510 104.7163674  31.7075068   8.4368376 105.0157844  32.1140260
   9.7459504 104.3219362  32.4249550  14.8474722 105.1805498  40.5389962
  15.2024110 105.4076971  41.3984427  15.4946853 105.5123875  39.9167217
  20.5772459 108.3023934  31.2439291  20.4390357 108.4925530  30.3160480
  20.2208678 109.0643317  31.7007342   8.7414585 102.2882029  37.3236303
   9.3813964 102.1470788  36.6259266   7.9092116 102.0016543  36.9474905
  20.6041838 110.3700461  36.2550562  21.0378345 110.2775750  37.1033616
  21.3173419 110.3457962  35.6170578   5.7443201 102.2582354  32.1009289
   6.0050019 103.1727687  31.9918450   6.5660374 101.7906797  32.2505902
   7.2168127 103.6720111  39.2708114   7.8891180 103.4637473  38.6220763
   6.3897913 103.4742197  38.8313346  21.4657388 110.4124162  38.7883447
  21.6593278 111.3169972  39.0342722  21.3658006 109.9531581  39.6222032
  13.1193699 100.2982052  41.2873775  12.4721614 100.9972002  41.1938251
  13.8894714 100.7318196  41.6550023  13.2957833 108.1362817  39.3470594
  14.2249893 108.2873977  39.1739562  12.8748863 108.2246838  38.4919241
   7.6195624 106.9462714  40.0310551   7.4815422 106.2142953  40.6322090
   8.5300547 106.8571614  39.7494739  10.2477925 106.6582674  39.5194231
  10.9577543 106.0175866  39.4780849  10.2047233 106.9095568  40.4420411
   8.9606859 103.6447892  41.3389870   8.4244216 103.1938630  41.9911467
   8.3723567 103.7793800  40.5960335   4.6945980 102.7803899  38.4242865
   4.6104169 102.1729569  37.6893275   3.8728686 103.2712918  38.4252361
  14.8669694 101.2657463  33.7913060  15.3638393 100.5127425  33.4714130
  14.0956675 101.3021779  33.2256269  22.7199451 106.9697828  35.4331351
  22.7089327 107.8522544  35.0625284  21.8516831 106.6169379  35.2385888
  11.4504662 103.4074846  33.5184744  11.0802450 102.8545886  34.2065650
  11.9463755 102.8032979  32.9659744  19.3372026 105.8646469  31.9001517
  19.8032478 106.6974461  31.8261820  19.7879526 105.3991451  32.6046776
  17.3088688  98.2327056  35.9392419  16.3951768  98.4631283  36.1074626
  17.7381790  98.3165500  36.7906451  17.0795147 106.4216948  38.4392313
  16.4266597 106.6692856  37.7844765  17.4575527 105.6081086  38.1054790
  13.1282720 107.1636759  44.9258350  12.4523357 107.0630889  45.5960725
  13.9510354 107.0075973  45.3894347   6.8469996 100.8178837  39.7637850
   6.9111323 101.6793667  39.3515248   6.7837116 100.2052838  39.0310209
   6.3222269 102.8901969  43.4110885   6.9494307 102.5079046  44.0248409
   5.4650188 102.6716171  43.7766577   6.6282058 102.7734395  35.3256788
   5.9068644 103.3870362  35.1864261   7.4175314 103.3092160  35.2473434
   9.4308372 100.1088821  41.5997440   9.9542774 100.3551118  42.3623749
   9.2120705 100.9408856  41.1800577  10.6360917 101.0502516  39.2847110
  10.2957737 100.2510329  39.6867790   9.9299923 101.3504227  38.7123944
  11.2877389  98.1351829  37.7374433  12.1103458  97.6612307  37.6153324
  11.5315452  98.9142313  38.2373120   9.9285623 101.1640087  28.0337335
  10.6493986 101.5421340  27.5301052   9.3050927 101.8828964  28.1372313
  14.0716746 101.8685236  28.9695667  14.2880361 102.7509874  28.6684496
  13.5910813 101.4771450  28.2401309   8.8115968 104.8270949  35.5466412
   8.6660548 105.1411252  36.4390694   8.3341171 105.4455850  34.9937311
  10.6712350 101.8173497  35.5947302  10.6573919 100.9214591  35.2579600
  11.3884779 101.8244161  36.2285588  12.5238481 102.2510838  37.6400429
  12.2656259 103.1727908  37.6384759  11.9923522 101.8541272  38.3300893
  10.0749246 100.6987878  30.8634872  10.1965158  99.7704524  31.0625759
   9.7851289 100.7126564  29.9513187  12.9440437  98.3842788  34.0001592
  12.9662134  98.4482121  33.0453571  13.3608496  97.5447297  34.1942098
  23.3224061 108.1198048  32.0380814  23.7655207 107.3705373  31.6399937
  22.4450571 108.1108184  31.6554546   9.5590326 102.2119875  45.0724804
   9.6078481 103.0881998  44.6902574  10.1012840 101.6697268  44.4996448
  20.1643047 109.6053465  41.6658670  20.2141052 109.4403472  42.6074193
  20.0556970 108.7380724  41.2756551  17.4546809 105.5884393  42.9817977
  18.3556672 105.4490858  42.6901974  17.5294784 105.7538848  43.9216154
  11.7889614 102.9651247  41.8271163  10.9192924 103.2584814  41.5553752
  12.0249095 103.5491692  42.5478427  22.8656926 109.5903286  34.4303262
  23.7003817 110.0293090  34.5940822  23.0016055 109.1141939  33.6111507
  19.9148432 107.1483021  40.3780749  20.3902553 107.3410667  39.5699601
  18.9913997 107.2042207  40.1324133  14.4928648  99.1830864  39.3436583
  15.0110592  99.9191891  39.0183072  14.1383781  99.4894858  40.1783342
  14.7441242  95.6031147  34.8637480  15.0242996  94.9354336  35.4897906
  15.5291849  95.7960243  34.3512144  18.6150101 104.0248781  38.6109055
  19.5667524 104.1246879  38.6321279  18.4453551 103.2327049  39.1207139
  16.6364480 101.1104364  38.7968456  16.0414412 101.3909377  38.1014945
  16.3514177 101.5998265  39.5685197  21.0938178 107.2454901  37.7251355
  21.0614499 106.3070901  37.9111039  21.7038802 107.3238937  36.9917180
  21.2432667 104.0365944  37.7709638  20.7271716 103.2524401  37.5839567
  22.1272615 103.7084661  37.9356157  18.9043394  97.7806960  33.7305451
  18.7068215  97.4722048  34.6148783  19.5143099  98.5068599  33.8603380
  26.9114728 108.3070907  36.8657392  27.6418117 108.0456196  37.4265095
  26.3021674 107.5699629  36.9059459  24.9930025 106.4478770  37.4631843
  24.2663189 106.3134735  36.8548334  24.5777312 106.7555599  38.2688561
  12.7326492  98.5837820  29.8577685  11.9227221  98.2384905  30.2332931
  13.4210909  98.2745363  30.4465297  14.6617041  97.6615866  31.4801982
  15.2148079  98.0811320  32.1392005  14.8987127  96.7351615  31.5224938
  10.6850140 103.6502940  47.2604746  10.5846867 104.5997297  47.1916837
  10.4671682 103.3221179  46.3880816  18.0395848  99.7716392  30.9880646
  17.4594517 100.4301196  30.6058699  17.7731780  98.9493736  30.5768064
  16.4899414  99.1721449  33.1901967  16.9899192  99.2837984  32.3816285
  17.1335022  98.8682502  33.8302775  10.5481410 107.0800079  46.0769807
  10.0648492 107.8800439  46.2833697  10.6342349 107.0908024  45.1237251
  16.8220726 101.9316482  30.0436994  15.9346581 102.2166133  29.8257189
  17.2374715 101.7710245  29.1964271  20.1735262 101.9563003  33.7591334
  20.9495652 102.4459455  34.0315951  19.4483396 102.3821057  34.2163203
  22.6107820 102.6690622  34.8165274  23.2052311 102.4286358  34.1058583
  22.6834404 101.9497753  35.4438811  16.7961749 107.4471018  30.2587285
  16.7396951 107.9039569  29.4194917  17.3490092 106.6861703  30.0810127
  20.6066555 103.2360750  31.0837404  20.3503490 102.8357385  31.9145612
  19.9819423 103.9504544  30.9587543  24.9178893 105.9756823  33.5908695
  24.3578451 106.0450012  34.3640258  24.3122396 105.7997808  32.8708192
  17.5296529 108.6375799  27.5539814  17.4745332 108.4720071  26.6128258
  16.9042584 109.3451832  27.7102003   2.3189044 103.8743864  41.3801236
   2.9647907 103.3642818  41.8688461   2.1106195 104.6112545  41.9544661
  10.8392654  98.1383908  27.1325132  10.8271324  99.0825748  27.2893403
  11.7316076  97.9554054  26.8384593  14.6544774  94.7326685  31.3871069
  13.8877169  94.1785172  31.5327751  15.0655479  94.8048554  32.2485221
   6.6586535 101.0211481  45.4776250   7.5217996 100.6648286  45.6879575
   6.0851945 100.6825375  46.1651654  26.0793159 111.8731179  38.3390760
  25.7357429 112.7632821  38.2629871  26.4472122 111.6832837  37.4760345
  27.8780825 111.1324739  33.4408498  28.1839702 110.2722102  33.1534413
  28.6033430 111.7242359  33.2407492  28.1482443 113.5618974  35.9392419
  27.2345523 113.7923201  36.1074626  28.5775544 113.6457418  36.7906451
  25.5834997 110.9323065  34.8637480  25.8636751 110.2646254  35.4897906
  26.3685604 111.1252160  34.3512144  29.7437148 113.1098877  33.7305451
  29.5461970 112.8013965  34.6148783  30.3536854 113.8360516  33.8603380
  25.5010795 112.9907784  31.4801982  26.0541834 113.4103238  32.1392005
  25.7380881 112.0643532  31.5224938  25.4938528 110.0618603  31.3871069
  24.7270924 109.5077089  31.5327751  25.9049233 110.1340471  32.2485221
   4.8220806  54.4973585  20.8582454   4.0684514  53.9280983  20.7026458
   4.9568347  54.4636249  21.8053089   1.6436553  54.4676335  18.7626121
   2.0867699  53.7183660  18.3645244   0.7663064  54.4586471  18.3799853
   1.1869418  55.9381573  21.1548568   2.0216309  56.3771377  21.3186129
   1.3228547  55.4620226  20.3356814   5.2327221  54.6549195  23.5902698
   5.9630609  54.3934483  24.1510401   4.6234166  53.9177917  23.6304766
   3.3142518  52.7957057  24.1877149   2.5875681  52.6613022  23.5793641
   2.8989805  53.1033886  24.9933867   0.9320313  49.0168909  21.5410581
   1.5264803  48.7764645  20.8303889   1.0046896  48.2976040  22.1684117
   3.2391385  52.3235110  20.3154002   2.6790943  52.3928300  21.0885564
   2.6334889  52.1476095  19.5953498   4.8247404  68.9991624  23.0083958
   5.4625814  68.8798372  22.3047298   4.7068247  69.9472468  23.0671910
   1.6337110  68.9519052  22.9445483   1.2955622  68.8360117  22.0566017
   2.5026878  68.5510217  22.9246489   2.1156893  70.1053904  28.9031688
   2.1045534  69.7106702  28.0312192   2.2777533  69.3719977  29.4965460
   4.3788672  66.7243078  20.0837166   5.1651762  66.3062501  19.7327583
   4.6427377  67.6289170  20.2518814   9.7797099  66.6618311  20.9870144
  10.5122271  66.0917528  21.2207974   9.0236455  66.2739912  21.4276650
   1.3973219  69.0845553  18.1833487   1.0331426  68.5576174  18.8946408
   2.2540335  68.6944022  18.0099972   7.3022520  60.3739885  25.4464753
   6.9705845  61.2435296  25.2225968   6.7068133  60.0576169  26.1258783
   3.7954039  72.5752431  24.8460666   3.4954762  73.4777470  24.7376473
   3.4505099  72.3084615  25.6981819   7.1951183  65.0934972  22.5258103
   6.2868060  65.0250380  22.2316864   7.1438779  65.5706917  23.3539929
   1.2692049  66.5124617  30.4693000   0.4925383  67.0718537  30.4595865
   1.9082612  66.9981400  30.9907870   9.0612830  63.2951410  24.3035977
   8.4187210  63.5883943  23.6575772   8.5567758  63.1804330  25.1089174
   6.7152993  67.0414583  14.9921836   7.6270849  67.2741970  14.8169534
   6.2062640  67.6251627  14.4296915   4.9993761  71.4639211  28.6283129
   5.4077117  71.0221622  27.8837761   4.2771022  70.8891839  28.8817322
   1.3524831  66.4011818  26.0016686   2.1986026  66.8251231  26.1451335
   1.2923469  65.7445442  26.6955249   5.3222576  72.0240402  22.3835418
   4.6931438  72.1886116  21.6811486   4.9348238  72.4382011  23.1546382
   9.2011807  72.9594839  19.7379781   8.5162846  73.3393741  19.1876815
   9.2855657  73.5690166  20.4711729   4.5024276  64.0616186  27.6597859
   4.2585208  64.8158247  27.1232135   4.7784207  64.4401534  28.4945106
   6.4562739  70.6054799  26.3375125   6.6679634  71.2486558  25.6609506
   6.4092487  69.7717115  25.8697055   4.0588968  63.2172619  23.2411697
   3.1973447  63.5153873  23.5328435   4.0851403  63.4343018  22.3092730
   0.8750537  71.7614810  19.6485503   1.3388883  72.0402513  18.8590125
   0.6107336  70.8598254  19.4658594   7.5708567  73.4826754  24.5097482
   8.3926011  73.0806941  24.2280164   7.5670970  73.3794988  25.4613598
   1.3365170  73.0310797  26.6658193   1.4009603  73.4931204  27.5016365
   0.6276094  72.4008162  26.7940503  15.6614560  69.8265502  20.8582454
  14.9078268  69.2572900  20.7026458  15.7962101  69.7928167  21.8053089
   2.6781664  75.3202471  30.6637515   2.2345519  74.5338850  30.3458420
   3.3398878  75.5081622  29.9981406   4.7762903  75.6005271  28.6918917
   4.7581378  76.4214152  28.1999186   5.6982823  75.4759346  28.9169058
   1.2335957  73.1149401  29.5342425   1.7664293  72.3537689  29.3041733
   0.7050038  72.8223052  30.2766579   4.4005652  58.2209467  25.0636067
   4.0569921  59.1111108  24.9875177   4.7684614  58.0311124  24.2005652
   4.3655934  68.2118078  13.5708502   3.8502558  68.9822682  13.8096889
   4.0933243  67.5383214  14.1941563   1.9503045  63.0567778  18.6293740
   1.0944642  62.6674629  18.4499379   2.3629997  63.1359739  17.7693526
   3.4802192  60.5914122  23.0285300   2.9766988  60.5544257  22.2153105
   3.7732799  61.5006864  23.0881957   9.3390208  70.9650432  15.5061675
   8.5619651  70.6261592  15.0616837  10.0181689  70.9703056  14.8316640
   4.1542238  66.0845170  15.3968283   3.8492373  66.3991319  16.2478426
   5.1072680  66.1626590  15.4395616   7.5781515  70.4384414  22.1628283
   6.9205190  71.1283675  22.2508412   8.3821915  70.8280846  22.5062270
   6.3886974  68.7928786  20.2132225   6.9018856  69.4258778  20.7153935
   7.0388198  68.1929982  19.8475585   2.8667805  66.2678242  22.4590565
   1.9490366  66.4893189  22.3012254   3.2827949  66.3424552  21.6002273
   3.6502853  67.6669658  17.5893246   4.3974672  68.1791055  17.2800368
   3.9194442  67.3453710  18.4497639   7.1548770  73.7734788  18.3411368
   6.7011098  72.9325698  18.3976558   6.5242737  74.4096186  18.6786148
   6.0981690  64.7026774  19.5712035   5.3604447  64.1904160  19.9022278
   6.3508464  64.2627155  18.7595312   5.5981710  75.6111284  19.2761186
   5.8904684  76.1716342  18.5573551   6.1080330  75.9039845  20.0314345
   6.1993317  57.4803026  20.1653804   6.5052194  56.6200389  19.8779719
   6.9245922  58.0720646  19.9652798   4.0080969  66.8575703  27.2635268
   4.3630356  67.0847176  28.1229734   4.6553100  67.1894080  26.6412523
   9.7378706  69.9794139  17.9684597   9.5996604  70.1695735  17.0405786
   9.3814924  70.7413522  18.4252648   9.7648085  72.0470666  22.9795869
  10.1984592  71.9545955  23.8278923  10.4779666  72.0228166  22.3415885
   3.4975980  75.6472760  24.5128969   3.5513002  76.2163696  25.2806685
   2.6290761  75.8174645  24.1483006  10.6263635  72.0894367  25.5128754
  10.8199525  72.9940177  25.7588029  10.5264253  71.6301786  26.3467339
   2.2799945  61.9752257  28.0119081   1.6327861  62.6742207  27.9183558
   3.0500961  62.4088401  28.3795330   5.6878743  72.2401109  31.0869635
   5.5364250  72.0111661  30.1699718   5.6783423  73.1971711  31.1000980
   2.4564080  69.8133022  26.0715901   3.3856140  69.9644182  25.8984868
   2.0355110  69.9017043  25.2164548   2.8057627  73.2165289  21.2303277
   2.4707459  73.1766059  22.1260926   2.3061572  72.5510005  20.7573687
   7.3970950  75.2720232  29.1646117   7.3383496  74.5879452  28.4976700
   7.7990468  76.0139222  28.7126743   7.3988357  73.2359816  27.3960096
   6.5115136  72.8985738  27.5186495   7.9686908  72.5042847  27.6328862
   0.9289511  77.8961268  24.3621339   0.8559682  78.7016240  24.8740644
   0.4866904  78.0953234  23.5369361   4.0275940  62.9427668  20.5158366
   4.5244640  62.1897630  20.1959437   3.2562922  62.9791984  19.9501576
  11.8805698  68.6468033  22.1576658  11.8695574  69.5292749  21.7870591
  11.0123077  68.2939584  21.9631195   3.3888194  77.7948102  26.5179498
   4.1016166  78.4295567  26.4455400   2.8978223  77.8911968  25.7019500
   5.1105721  71.6999355  18.0896790   4.1762000  71.8200817  17.9201494
   5.2882390  70.7971822  17.8256800   8.4978273  67.5416674  18.6246824
   8.9638725  68.3744666  18.5507127   8.9485773  67.0761656  19.3292082
   6.5654504  73.8860495  15.6232976   6.8414348  73.7717090  16.5326850
   5.6959002  73.4877980  15.5845149   6.4694935  59.9097261  22.6637725
   5.5558015  60.1401488  22.8319932   6.8988037  59.9935705  23.5151758
   6.2401394  68.0987153  25.1637619   5.5872844  68.3463061  24.5090072
   6.6181774  67.2851291  24.8300097   3.2008568  78.1346846  19.2665790
   3.3830962  77.3168502  19.7293542   4.0241554  78.3514539  18.8290680
   2.2888967  68.8406964  31.6503656   1.6129604  68.7401094  32.3206032
   3.1116601  68.6846178  32.1139654   1.0311750  80.1473892  25.8861272
   1.5830058  80.3105513  26.6510358   1.3717943  80.7378329  25.2141297
   5.8822624  74.9735149  31.7409927   6.4262528  75.5865107  31.2464882
   5.3009469  75.5314728  32.2576940   4.1680137  78.0955867  22.8724955
   4.0431276  77.2945607  22.3635900   4.8259228  78.5902061  22.3838924
   6.2315045  75.8964887  24.5004505   5.2845381  75.7770238  24.4282831
   6.5797818  75.0087385  24.5830766   3.2361479  75.6917603  20.7008857
   3.0886441  74.7634311  20.8816427   4.0614972  75.7137694  20.2165932
   6.8395600  76.5146162  21.7873730   7.7642148  76.3089024  21.6498181
   6.6710904  76.2662563  22.6963071   3.2322993  63.5455441  15.6940974
   3.4486607  64.4280079  15.3929802   2.7517060  63.1541655  14.9646616
   1.6844728  63.9281043  24.3645736   1.4262506  64.8498113  24.3630066
   1.1529768  63.5311477  25.0546200   6.6290917  77.0331830  17.1435821
   6.8027794  76.4678252  16.3909673   7.1219808  77.8332725  16.9615311
   2.1046684  60.0612993  20.7246898   2.1268380  60.1252326  19.7698878
   2.5214743  59.2217502  20.9187404  12.4830308  69.7968253  18.7626121
  12.9261454  69.0475578  18.3645244  11.6056818  69.7878389  18.3799853
   9.5157512  73.7998300  15.7720050  10.0408836  74.1385572  15.0469370
   9.4279865  72.8645315  15.5883185   1.1777561  77.7132373  27.9009927
   1.4864687  77.4681520  28.7732626   1.9753043  77.9179012  27.4128797
   9.2051418  74.4331203  31.0771248   8.4146962  74.4155342  30.5375747
   8.9684773  74.9719497  31.8320285   9.3249293  71.2823670  28.3903977
   9.3747298  71.1173677  29.3319499   9.2163217  70.4150929  28.0001857
   6.6153056  67.2654598  29.7063283   7.5162919  67.1261062  29.4147281
   6.6901030  67.4309052  30.6461461  10.8267490  73.7020611  28.6345998
  10.5352299  74.0650592  29.4709459  10.2139622  72.9887619  28.4559330
  12.0263173  71.2673491  21.1548568  12.8610064  71.7063295  21.3186129
  12.1622301  70.7912144  20.3356814   9.0754678  68.8253226  27.1026056
   9.5508800  69.0180872  26.2944907   8.1520244  68.8812412  26.8569440
   3.6534895  60.8601069  26.0681890   4.1716839  61.5962096  25.7428379
   3.2990028  61.1665063  26.9028649   3.9047489  57.2801352  21.5882787
   4.1849243  56.6124541  22.2143213   4.6898096  57.4730447  21.0757450
   7.7756347  65.7018986  25.3354362   8.7273770  65.8017084  25.3566586
   7.6059798  64.9097254  25.8452446   5.7970727  62.7874569  25.5213763
   5.2020659  63.0679582  24.8260251   5.5120424  63.2768470  26.2930504
  10.2544425  68.9225106  24.4496661  10.2220745  67.9841106  24.6356345
  10.8645049  69.0009142  23.7162486  10.4038914  65.7136149  24.4954945
   9.8877962  64.9294606  24.3084873  11.2878862  65.3854866  24.6601464
   8.0649641  59.4577165  20.4550757   7.8674462  59.1492253  21.3394089
   8.6749346  60.1838803  20.5848687  16.0720975  69.9841112  23.5902698
  16.8024364  69.7226400  24.1510401  15.4627921  69.2469834  23.6304766
  14.1536272  68.1248975  24.1877149  13.4269436  67.9904940  23.5793641
  13.7383559  68.4325804  24.9933867   1.9766449  71.8438905  31.9524522
   2.8969458  72.0217504  32.1464569   1.9416032  70.8994950  31.8004222
   1.8932739  60.2608025  16.5822992   1.0833467  59.9155110  16.9578238
   2.5817156  59.9515568  17.1710603   3.8223287  59.3386071  18.2047289
   4.3754326  59.7581525  18.8637312   4.0593374  58.4121820  18.2470245
   7.2002094  61.4486597  17.7125953   6.6200763  62.1071401  17.3304005
   6.9338027  60.6263941  17.3013370   5.6505661  60.8491654  19.9147273
   6.1505439  60.9608189  19.1061592   6.2941269  60.5452707  20.5548082
   5.9826972  63.6086687  16.7682301   5.0952827  63.8936338  16.5502496
   6.3980961  63.4480450  15.9209578   9.3341509  63.6333208  20.4836640
  10.1101899  64.1229660  20.7561257   8.6089643  64.0591262  20.9408510
  11.7714067  64.3460827  21.5410581  12.3658558  64.1056563  20.8303889
  11.8440651  63.6267958  22.1684117   5.9567996  69.1241223  16.9832591
   5.9003198  69.5809774  16.1440224   6.5096339  68.3631907  16.8055434
   9.7672802  64.9130955  17.8082711   9.5109736  64.5127590  18.6390918
   9.1425670  65.6274749  17.6832850  14.0785140  67.6527028  20.3154002
  13.5184698  67.7220217  21.0885564  13.4728643  67.4768013  19.5953498
   6.6902775  70.3146004  14.2785120   6.6351579  70.1490276  13.3373565
   6.0648831  71.0222037  14.4347310   4.0048683  72.6194916  33.6038683
   4.8739842  72.7935568  33.2425318   3.5255434  73.4389333  33.4814413
   3.8151020  56.4096890  18.1116376   3.0483416  55.8555376  18.2573058
   4.2261725  56.4818759  18.9730527  15.6641158  84.3283542  23.0083958
  16.3019568  84.2090289  22.3047298  15.5462001  85.2764386  23.0671910
  12.4730865  84.2810970  22.9445483  12.1349376  84.1652035  22.0566017
  13.3420633  83.8802135  22.9246489  12.9550648  85.4345822  28.9031688
  12.9439288  85.0398620  28.0312192  13.1171287  84.7011894  29.4965460
   9.6757909  88.2182934  27.8510872   9.3847775  89.1228564  27.7357538
  10.3114893  88.2599461  28.5654942  10.6014116  85.5959782  24.4412232
  11.1977688  85.3715804  23.7269195  10.6589087  84.8544528  25.0437680
  15.2182427  82.0534996  20.0837166  16.0045516  81.6354419  19.7327583
  15.4821131  82.9581088  20.2518814  20.6190854  81.9910229  20.9870144
  21.3516026  81.4209446  21.2207974  19.8630210  81.6031829  21.4276650
  12.2366974  84.4137470  18.1833487  11.8725181  83.8868091  18.8946408
  13.0934090  84.0235940  18.0099972  18.1416274  75.7031803  25.4464753
  17.8099599  76.5727214  25.2225968  17.5461888  75.3868087  26.1258783
  14.6347794  87.9044349  24.8460666  14.3348517  88.8069388  24.7376473
  14.2898853  87.6376532  25.6981819   8.0860275  84.3558146  20.8797370
   7.1610772  84.2234360  21.0875062   8.3344689  85.1352365  21.3767313
  18.0344938  80.4226889  22.5258103  17.1261815  80.3542298  22.2316864
  17.9832533  80.8998834  23.3539929  12.1085803  81.8416535  30.4693000
  11.3319137  82.4010455  30.4595865  12.7476366  82.3273318  30.9907870
  19.9006584  78.6243328  24.3035977  19.2580964  78.9175861  23.6575772
  19.3961513  78.5096248  25.1089174  17.5546748  82.3706501  14.9921836
  18.4664604  82.6033888  14.8169534  17.0456395  82.9543545  14.4296915
  10.3632176  84.6501988  30.0310967  11.1046860  85.1887032  29.7545791
   9.6569161  85.2768277  30.1882519  15.8387515  86.7931129  28.6283129
  16.2470871  86.3513539  27.8837761  15.1164777  86.2183756  28.8817322
  12.1918585  81.7303735  26.0016686  13.0379781  82.1543149  26.1451335
  12.1317223  81.0737360  26.6955249  16.1616330  87.3532319  22.3835418
  15.5325192  87.5178033  21.6811486  15.7741992  87.7673929  23.1546382
  20.0405562  88.2886757  19.7379781  19.3556600  88.6685659  19.1876815
  20.1249411  88.8982084  20.4711729  15.3418031  79.3908104  27.6597859
  15.0978963  80.1450164  27.1232135  15.6177961  79.7693451  28.4945106
  17.2956494  85.9346716  26.3375125  17.5073389  86.5778476  25.6609506
  17.2486242  85.1009033  25.8697055  14.8982722  78.5464537  23.2411697
  14.0367202  78.8445790  23.5328435  14.9245157  78.7634936  22.3092730
  11.7144292  87.0906727  19.6485503  12.1782637  87.3694430  18.8590125
  11.4501090  86.1890172  19.4658594   8.6068373  86.6378209  22.5865266
   9.1769730  87.0665477  21.9482751   9.1976485  86.3560794  23.2849452
  10.6513178  83.2129880  16.4575068  11.3537221  83.6650923  16.9248994
  10.3193806  82.5713699  17.0854961   9.0993539  81.8041636  30.8326277
   8.4692200  82.4857917  31.0661674   8.9929627  81.6924718  29.8879416
   4.3938512  81.4713432  21.7592202   3.6037566  81.7270961  21.2832312
   4.8849759  82.2861770  21.8644242  18.4102321  88.8118672  24.5097482
  19.2319765  88.4098859  24.2280164  18.4064724  88.7086906  25.4613598
  12.1758925  88.3602715  26.6658193  12.2403357  88.8223122  27.5016365
  11.4669849  87.7300080  26.7940503   2.6776215  81.7243923  24.1907192
   2.9284253  82.6090933  24.4564768   3.2135763  81.5448524  23.4182284
  26.5008315  85.1557420  20.8582454  25.7472023  84.5864818  20.7026458
  26.6355856  85.1220085  21.8053089   8.3774282  76.1062402  33.1951528
   7.9841228  75.5528601  33.8699173   9.1940423  76.4172981  33.5858046
  11.2942243  77.5220281  30.7871785  12.0351957  78.1227434  30.7076247
  11.5260166  76.7797919  30.2289828   6.4383581  82.7076649  29.0650015
   6.3237096  81.8061906  29.3657114   5.5828099  82.9540345  28.7134831
  13.5175419  90.6494389  30.6637515  13.0739273  89.8630767  30.3458420
  14.1792633  90.8373539  29.9981406   8.2762540  92.1790190  25.1898194
   8.8269965  92.0507254  24.4175188   7.4374016  92.4785080  24.8393087
  15.6156657  90.9297189  28.6918917  15.5975132  91.7506070  28.1999186
  16.5376577  90.8051264  28.9169058  12.0729711  88.4441318  29.5342425
  12.6058048  87.6829606  29.3041733  11.5443792  88.1514970  30.2766579
  15.2399406  73.5501384  25.0636067  14.8963676  74.4403026  24.9875177
  15.6078369  73.3603042  24.2005652  15.2049689  83.5409995  13.5708502
  14.6896312  84.3114600  13.8096889  14.9326997  82.8675132  14.1941563
  12.7896800  78.3859696  18.6293740  11.9338396  77.9966547  18.4499379
  13.2023752  78.4651657  17.7693526  14.3195947  75.9206039  23.0285300
  13.8160742  75.8836175  22.2153105  14.6126553  76.8298782  23.0881957
  10.5638832  76.0044769  22.0351482  11.4291829  75.8087578  21.6757371
  10.6316341  75.7755121  22.9620838  20.1783963  86.2942350  15.5061675
  19.4013406  85.9553510  15.0616837  20.8575444  86.2994973  14.8316640
  14.9935992  81.4137087  15.3968283  14.6886128  81.7283237  16.2478426
  15.9466434  81.4918507  15.4395616  18.4175270  85.7676331  22.1628283
  17.7598944  86.4575593  22.2508412  19.2215669  86.1572763  22.5062270
   8.1701151  78.2346977  19.4067848   8.7444903  78.0122159  18.6741041
   8.7572134  78.3035672  20.1596450  17.2280729  84.1220704  20.2132225
  17.7412610  84.7550696  20.7153935  17.8781953  83.5221899  19.8475585
  10.4723819  75.1088226  18.1342918   9.8188232  74.7937243  17.5099533
  10.4304293  74.4863966  18.8602741  13.7061560  81.5970160  22.4590565
  12.7884121  81.8185107  22.3012254  14.1221703  81.6716470  21.6002273
  14.4896607  82.9961575  17.5893246  15.2368426  83.5082972  17.2800368
  14.7588197  82.6745628  18.4497639  17.9942525  89.1026705  18.3411368
  17.5404852  88.2617615  18.3976558  17.3636492  89.7388104  18.6786148
  16.9375444  80.0318691  19.5712035  16.1998201  79.5196078  19.9022278
  17.1902218  79.5919073  18.7595312  16.4375464  90.9403202  19.2761186
  16.7298439  91.5008259  18.5573551  16.9474085  91.2331763  20.0314345
  17.0387072  72.8094943  20.1653804  17.3445949  71.9492307  19.8779719
  17.7639677  73.4012564  19.9652798  11.3108152  83.1048737  20.6729995
  11.3656761  82.1522573  20.5972472  10.4999354  83.2608176  21.1571294
   9.2500511  81.7225796  18.4320374   8.4368377  82.0219967  18.8385566
   9.7459506  81.3281485  19.1494857  14.8474723  82.1867621  27.2635268
  15.2024111  82.4139094  28.1229734  15.4946854  82.5185998  26.6412523
  20.5772460  85.3086057  17.9684597  20.4390359  85.4987653  17.0405786
  20.2208679  86.0705439  18.4252648   8.7414586  79.2944152  24.0481609
   9.3813966  79.1532911  23.3504573   7.9092117  79.0078665  23.6720211
  20.6041840  87.3762584  22.9795869  21.0378346  87.2837873  23.8278923
  21.3173420  87.3520084  22.3415885  14.3369735  90.9764678  24.5128969
  14.3906757  91.5455614  25.2806685  13.4684516  91.1466563  24.1483006
   5.7443203  79.2644477  18.8254596   6.0050020  80.1789810  18.7163756
   6.5660375  78.7968919  18.9751209   7.2168128  80.6782234  25.9953421
   7.8891181  80.4699596  25.3466069   6.3897914  80.4804320  25.5558653
  21.4657389  87.4186284  25.5128754  21.6593279  88.3232095  25.7588029
  21.3658007  86.9593703  26.3467339  13.1193700  77.3044175  28.0119081
  12.4721615  78.0034125  27.9183558  13.8894715  77.7380319  28.3795330
  16.5272498  87.5693027  31.0869635  16.3758004  87.3403579  30.1699718
  16.5177177  88.5263628  31.1000980  13.2957834  85.1424940  26.0715901
  14.2249894  85.2936099  25.8984868  12.8748864  85.2308961  25.2164548
  12.0946166  89.1675604  23.8414439  11.9557252  88.7994389  24.7140377
  11.3060762  89.6823244  23.6698397  13.6451381  88.5457207  21.2303277
  13.3101214  88.5057977  22.1260926  13.1455327  87.8801923  20.7573687
   7.6195625  83.9524837  26.7555858   7.4815423  83.2205076  27.3567397
   8.5300549  83.8633737  26.4740045  10.2477926  83.6644796  26.2439537
  10.9577544  83.0237988  26.2026156  10.2047234  83.9157691  27.1665718
  18.2364705  90.6012150  29.1646117  18.1777251  89.9171370  28.4976700
  18.6384223  91.3431140  28.7126743   8.9606860  80.6510014  28.0635177
   8.4244217  80.2000753  28.7156773   8.3723568  80.7855923  27.3205641
  18.2382112  88.5651734  27.3960096  17.3508891  88.2277655  27.5186495
  18.8080663  87.8334765  27.6328862   4.6945981  79.7866022  25.1488171
   4.6104170  79.1791691  24.4138581   3.8728688  80.2775040  25.1497668
  11.7683265  93.2253186  24.3621339  11.6953437  94.0308157  24.8740644
  11.3260658  93.4245152  23.5369361  14.8669695  78.2719585  20.5158366
  15.3638395  77.5189548  20.1959437  14.0956676  78.3083902  19.9501576
  22.7199452  83.9759951  22.1576658  22.7089329  84.8584666  21.7870591
  21.8516832  83.6231502  21.9631195  14.2281949  93.1240020  26.5179498
  14.9409921  93.7587485  26.4455400  13.7371977  93.2203886  25.7019500
  15.9499476  87.0291273  18.0896790  15.0155754  87.1492735  17.9201494
  16.1276144  86.1263739  17.8256800  11.4504664  80.4136968  20.2430051
  11.0802451  79.8608009  20.9310957  11.9463756  79.8095102  19.6905051
  19.3372027  82.8708592  18.6246824  19.8032479  83.7036583  18.5507127
  19.7879528  82.4053573  19.3292082   9.2793862  90.8734463  27.3385069
   9.9803322  91.5070946  27.4914463   8.8088977  91.2149195  26.5780708
  17.4048258  89.2152413  15.6232976  17.6808102  89.1009008  16.5326850
  16.5352757  88.8169898  15.5845149  17.3088690  75.2389179  22.6637725
  16.3951770  75.4693406  22.8319932  17.7381791  75.3227623  23.5151758
  17.0795148  83.4279071  25.1637619  16.4266598  83.6754978  24.5090072
  17.4575528  82.6143209  24.8300097  14.0402322  93.4638764  19.2665790
  14.2224717  92.6460420  19.7293542  14.8635308  93.6806456  18.8290680
  13.1282721  84.1698882  31.6503656  12.4523358  84.0693011  32.3206032
  13.9510355  84.0138096  32.1139654  11.8705504  95.4765809  25.8861272
  12.4223812  95.6397431  26.6510358  12.2111698  96.0670247  25.2141297
   6.8469997  77.8240959  26.4883157   6.9111324  78.6855790  26.0760555
   6.7837118  77.2114961  25.7555516   6.3222270  79.8964092  30.1356191
   6.9494309  79.5141169  30.7493716   5.4650189  79.6778294  30.5011884
  16.7216378  90.3027067  31.7409927  17.2656282  90.9157025  31.2464882
  16.1403223  90.8606645  32.2576940  15.0073891  93.4247785  22.8724955
  14.8825031  92.6237525  22.3635900  15.6652983  93.9193978  22.3838924
   6.6282060  79.7796517  22.0502095   5.9068645  80.3932485  21.9109568
   7.4175315  80.3154282  21.9718741  17.0708800  91.2256805  24.5004505
  16.1239135  91.1062156  24.4282831  17.4191573  90.3379303  24.5830766
   9.4308373  77.1150944  28.3242747   9.9542775  77.3613240  29.0869056
   9.2120706  77.9470979  27.9045884  14.0755233  91.0209521  20.7008857
  13.9280196  90.0926229  20.8816427  14.9008727  91.0429612  20.2165932
  17.6789355  91.8438080  21.7873730  18.6035902  91.6380941  21.6498181
  17.5104658  91.5954481  22.6963071  10.6360918  78.0564639  26.0092417
  10.2957739  77.2572452  26.4113097   9.9299924  78.3566350  25.4369250
  11.2877390  75.1413951  24.4619740  12.1103459  74.6674430  24.3398630
  11.5315454  75.9204435  24.9618426   9.9285625  78.1702210  14.7582642
  10.6493987  78.5483463  14.2546359   9.3050929  78.8891087  14.8617620
  14.0716747  78.8747359  15.6940974  14.2880362  79.7571997  15.3929802
  13.5910815  78.4833572  14.9646616   8.8115969  81.8333072  22.2711719
   8.6660550  82.1473375  23.1636000   8.3341172  82.4517972  21.7182617
  10.6712352  78.8235620  22.3192608  10.6573920  77.9276713  21.9824906
  11.3884780  78.8306284  22.9530894  12.5238482  79.2572960  24.3645736
  12.2656260  80.1790031  24.3630066  11.9923523  78.8603395  25.0546200
  17.4684671  92.3623747  17.1435821  17.6421549  91.7970170  16.3909673
  17.9613562  93.1624642  16.9615311   3.2861631  84.3738416  25.2099380
   2.7415099  85.1498224  25.3419654   4.1640981  84.7209221  25.0518501
  10.0749248  77.7050000  17.5880178  10.1965159  76.7766646  17.7871066
   9.7851290  77.7188686  16.6758494  12.9440438  75.3904911  20.7246898
  12.9662135  75.4544244  19.7698878  13.3608497  74.5509419  20.9187404
  23.3224062  85.1260170  18.7626121  23.7655208  84.3767495  18.3645244
  22.4450573  85.1170307  18.3799853   4.0727653  83.5008313  28.1029537
   3.3309389  83.6490948  28.6894167   3.7520397  83.7616578  27.2396286
  20.3551267  89.1290217  15.7720050  20.8802591  89.4677490  15.0469370
  20.2673619  88.1937233  15.5883185  12.0171315  93.0424291  27.9009927
  12.3258442  92.7973438  28.7732626  12.8146797  93.2470929  27.4128797
   9.4865800  90.7400210  22.2037605   8.8645809  90.0770915  21.9039833
  10.1570667  90.7661342  21.5211253   9.5590327  79.2181998  31.7970111
   9.6078483  80.0944120  31.4147881  10.1012841  78.6759391  31.2241754
  20.0445173  89.7623121  31.0771248  19.2540717  89.7447260  30.5375747
  19.8078527  90.3011415  31.8320285  20.1643048  86.6115587  28.3903977
  20.2141053  86.4465595  29.3319499  20.0556971  85.7442846  28.0001857
  17.4546810  82.5946515  29.7063283  18.3556673  82.4552980  29.4147281
  17.5294785  82.7600970  30.6461461  11.7889616  79.9713370  28.5516470
  10.9192925  80.2646936  28.2799058  12.0249096  80.5553815  29.2723733
  21.6661245  89.0312529  28.6345998  21.3746053  89.3942509  29.4709459
  21.0533376  88.3179537  28.4559330  22.8656927  86.5965409  21.1548568
  23.7003818  87.0355213  21.3186129  23.0016056  86.1204062  20.3356814
  19.9148433  84.1545143  27.1026056  20.3902555  84.3472790  26.2944907
  18.9913998  84.2104329  26.8569440  14.4928649  76.1892987  26.0681890
  15.0110593  76.9254014  25.7428379  14.1383782  76.4956980  26.9028649
  14.7441244  72.6093270  21.5882787  15.0242997  71.9416459  22.2143213
  15.5291851  72.8022365  21.0757450  18.6150102  81.0310904  25.3354362
  19.5667525  81.1309001  25.3566586  18.4453552  80.2389172  25.8452446
  16.6364481  78.1166487  25.5213763  16.0414414  78.3971499  24.8260251
  16.3514178  78.6060388  26.2930504  21.0938180  84.2517023  24.4496661
  21.0614500  83.3133024  24.6356345  21.7038803  84.3301060  23.7162486
  21.2432668  81.0428067  24.4954945  20.7271717  80.2586523  24.3084873
  22.1272617  80.7146783  24.6601464  18.9043395  74.7869082  20.4550757
  18.7068216  74.4784170  21.3394089  19.5143101  75.5130721  20.5848687
  26.9114730  85.3133030  23.5902698  27.6418118  85.0518318  24.1510401
  26.3021675  84.5761752  23.6304766  24.9930027  83.4540893  24.1877149
  24.2663190  83.3196858  23.5793641  24.5777314  83.7617721  24.9933867
  12.8160203  87.1730822  31.9524522  13.7363213  87.3509421  32.1464569
  12.7809786  86.2286868  31.8004222   5.8122276  85.0831857  24.5947304
   6.0308285  86.0148965  24.6135337   6.2248050  84.7239831  25.3802107
  12.7326493  75.5899942  16.5822992  11.9227222  75.2447027  16.9578238
  13.4210910  75.2807486  17.1710603  14.6617042  74.6677989  18.2047289
  15.2148080  75.0873443  18.8637312  14.8987128  73.7413737  18.2470245
  10.6850141  80.6565063  33.9850052  10.5846868  81.6059420  33.9162144
  10.4671683  80.3283302  33.1126123  18.0395849  76.7778514  17.7125953
  17.4594518  77.4363318  17.3304005  17.7731782  75.9555859  17.3013370
  16.4899415  76.1783572  19.9147273  16.9899194  76.2900106  19.1061592
  17.1335023  75.8744625  20.5548082  10.5481411  84.0862202  32.8015114
  10.0648493  84.8862562  33.0079003  10.6342350  84.0970146  31.8482558
   6.4754749  87.9766736  24.8383548   7.4298002  87.9450679  24.7713479
   6.2767272  87.5157360  25.6533774   7.0654131  86.5467852  27.4054346
   7.8847020  87.0411931  27.4289183   7.3390938  85.6299820  27.3771913
  16.8220727  78.9378605  16.7682301  15.9346582  79.2228255  16.5502496
  17.2374716  78.7772368  15.9209578  20.1735263  78.9625126  20.4836640
  20.9495653  79.4521578  20.7561257  19.4483397  79.3883180  20.9408510
  22.6107822  79.6752745  21.5410581  23.2052312  79.4348481  20.8303889
  22.6834405  78.9559875  22.1684117  16.7961751  84.4533141  16.9832591
  16.7396952  84.9101692  16.1440224  17.3490093  83.6923825  16.8055434
  20.6066557  80.2422872  17.8082711  20.3503491  79.8419508  18.6390918
  19.9819425  80.9566666  17.6832850  24.9178894  82.9818946  20.3154002
  24.3578452  83.0512135  21.0885564  24.3122398  82.8059930  19.5953498
  17.5296530  85.6437922  14.2785120  17.4745334  85.4782193  13.3373565
  16.9042585  86.3513955  14.4347310   2.3189045  80.8805986  28.1046543
   2.9647909  80.3704940  28.5933768   2.1106196  81.6174668  28.6789968
  14.8442437  87.9486834  33.6038683  15.7133597  88.1227486  33.2425318
  14.3649189  88.7681250  33.4814413  10.8392655  75.1446031  13.8570439
  10.8271325  76.0887871  14.0138710  11.7316077  74.9616176  13.5629900
   9.0128617  95.0683935  25.2828117   9.9155864  95.1007545  25.5994612
   8.7865987  94.1384386  25.2974453  14.6544775  71.7388807  18.1116376
  13.8877171  71.1847294  18.2573058  15.0655480  71.8110676  18.9730527
   6.6586536  78.0273603  32.2021557   7.5217997  77.6710408  32.4124881
   6.0851947  77.6887498  32.8896961  26.5034913  99.6575460  23.0083958
  27.1413323  99.5382207  22.3047298  26.3855756 100.6056304  23.0671910
  23.3124619  99.6102888  22.9445483  22.9743131  99.4943952  22.0566017
  24.1814387  99.2094053  22.9246489  23.7944402 100.7637739  28.9031688
  23.7833043 100.3690538  28.0312192  23.9565042 100.0303812  29.4965460
  20.5151663 103.5474851  27.8510872  20.2241529 104.4520482  27.7357538
  21.1508648 103.5891379  28.5654942  21.4407870 100.9251700  24.4412232
  22.0371442 100.7007722  23.7269195  21.4982842 100.1836445  25.0437680
  26.0576181  97.3826913  20.0837166  26.8439271  96.9646337  19.7327583
  26.3214886  98.2873006  20.2518814  31.4584608  97.3202147  20.9870144
  32.1909780  96.7501363  21.2207974  30.7023964  96.9323747  21.4276650
  23.0760728  99.7429388  18.1833487  22.7118935  99.2160009  18.8946408
  23.9327844  99.3527857  18.0099972  28.9810029  91.0323721  25.4464753
  28.6493354  91.9019132  25.2225968  28.3855642  90.7160005  26.1258783
  25.4741548 103.2336267  24.8460666  25.1742271 104.1361306  24.7376473
  25.1292608 102.9668450  25.6981819  18.9254030  99.6850064  20.8797370
  18.0004526  99.5526278  21.0875062  19.1738443 100.4644283  21.3767313
  28.8738692  95.7518807  22.5258103  27.9655569  95.6834215  22.2316864
  28.8226288  96.2290752  23.3539929  22.9479558  97.1708453  30.4693000
  22.1712892  97.7302373  30.4595865  23.5870121  97.6565236  30.9907870
  30.7400339  93.9535245  24.3035977  30.0974719  94.2467778  23.6575772
  30.2355267  93.8388166  25.1089174  28.3940502  97.6998419  14.9921836
  29.3058358  97.9325805  14.8169534  27.8850149  98.2835463  14.4296915
  21.2025930  99.9793906  30.0310967  21.9440615 100.5178950  29.7545791
  20.4962916 100.6060195  30.1882519  26.6781270 102.1223046  28.6283129
  27.0864626 101.6805457  27.8837761  25.9558531 101.5475674  28.8817322
  23.0312340  97.0595653  26.0016686  23.8773535  97.4835067  26.1451335
  22.9710978  96.4029277  26.6955249  27.0010085 102.6824237  22.3835418
  26.3718947 102.8469951  21.6811486  26.6135747 103.0965847  23.1546382
  30.8799316 103.6178675  19.7379781  30.1950355 103.9977576  19.1876815
  30.9643166 104.2274001  20.4711729  26.1811785  94.7200021  27.6597859
  25.9372717  95.4742082  27.1232135  26.4571716  95.0985369  28.4945106
  28.1350248 101.2638634  26.3375125  28.3467143 101.9070394  25.6609506
  28.0879996 100.4300950  25.8697055  25.7376477  93.8756455  23.2411697
  24.8760956  94.1737708  23.5328435  25.7638912  94.0926853  22.3092730
  22.5538046 102.4198645  19.6485503  23.0176392 102.6986348  18.8590125
  22.2894844 101.5182090  19.4658594  19.4462127 101.9670127  22.5865266
  20.0163485 102.3957395  21.9482751  20.0370239 101.6852711  23.2849452
  21.4906932  98.5421797  16.4575068  22.1930976  98.9942841  16.9248994
  21.1587561  97.9005616  17.0854961  19.9387294  97.1333554  30.8326277
  19.3085955  97.8149835  31.0661674  19.8323382  97.0216636  29.8879416
  15.2332266  96.8005350  21.7592202  14.4431320  97.0562879  21.2832312
  15.7243514  97.6153688  21.8644242  29.2496076 104.1410589  24.5097482
  30.0713520 103.7390777  24.2280164  29.2458479 104.0378823  25.4613598
  23.0152679 103.6894633  26.6658193  23.0797112 104.1515040  27.5016365
  22.3063603 103.0591997  26.7940503  13.5169969  97.0535841  24.1907192
  13.7678008  97.9382850  24.4564768  14.0529518  96.8740442  23.4182284
  37.3402069 100.4849338  20.8582454  36.5865777  99.9156736  20.7026458
  37.4749610 100.4512002  21.8053089  19.2168037  91.4354320  33.1951528
  18.8234982  90.8820518  33.8699173  20.0334177  91.7464898  33.5858046
  22.1335998  92.8512199  30.7871785  22.8745711  93.4519352  30.7076247
  22.3653921  92.1089837  30.2289828  17.2777336  98.0368566  29.0650015
  17.1630851  97.1353823  29.3657114  16.4221853  98.2832263  28.7134831
  24.3569173 105.9786307  30.6637515  23.9133028 105.1922685  30.3458420
  25.0186387 106.1665457  29.9981406  19.1156295 107.5082108  25.1898194
  19.6663720 107.3799172  24.4175188  18.2767771 107.8076997  24.8393087
  26.4550411 106.2589107  28.6918917  26.4368887 107.0797988  28.1999186
  27.3770332 106.1343182  28.9169058  22.9123466 103.7733236  29.5342425
  23.4451802 103.0121524  29.3041733  22.3837547 103.4806888  30.2766579
  26.0793161  88.8793302  25.0636067  25.7357430  89.7694944  24.9875177
  26.4472123  88.6894960  24.2005652  26.0443443  98.8701913  13.5708502
  25.5290067  99.6406518  13.8096889  25.7720752  98.1967049  14.1941563
  23.6290554  93.7151614  18.6293740  22.7732151  93.3258464  18.4499379
  24.0417506  93.7943575  17.7693526  25.1589701  91.2497957  23.0285300
  24.6554497  91.2128092  22.2153105  25.4520308  92.1590700  23.0881957
  21.4032587  91.3336687  22.0351482  22.2685584  91.1379496  21.6757371
  21.4710096  91.1047039  22.9620838  31.0177717 101.6234268  15.5061675
  30.2407160 101.2845427  15.0616837  31.6969198 101.6286891  14.8316640
  25.8329747  96.7429005  15.3968283  25.5279882  97.0575154  16.2478426
  26.7860189  96.8210425  15.4395616  29.2569024 101.0968249  22.1628283
  28.5992699 101.7867510  22.2508412  30.0609424 101.4864681  22.5062270
  19.0094906  93.5638895  19.4067848  19.5838658  93.3414076  18.6741041
  19.5965888  93.6327589  20.1596450  28.0674483  99.4512622  20.2132225
  28.5806365 100.0842613  20.7153935  28.7175707  98.8513817  19.8475585
  21.3117574  90.4380144  18.1342918  20.6581986  90.1229161  17.5099533
  21.2698048  89.8155884  18.8602741  24.5455314  96.9262077  22.4590565
  23.6277875  97.1477024  22.3012254  24.9615458  97.0008388  21.6002273
  25.3290362  98.3253493  17.5893246  26.0762181  98.8374890  17.2800368
  25.5981951  98.0037546  18.4497639  28.8336279 104.4318623  18.3411368
  28.3798606 103.5909533  18.3976558  28.2030246 105.0680021  18.6786148
  27.7769199  95.3610609  19.5712035  27.0391956  94.8487995  19.9022278
  28.0295972  94.9210991  18.7595312  27.2769219 106.2695120  19.2761186
  27.5692193 106.8300177  18.5573551  27.7867839 106.5623681  20.0314345
  27.8780826  88.1386861  20.1653804  28.1839703  87.2784225  19.8779719
  28.6033431  88.7304481  19.9652798  22.1501906  98.4340654  20.6729995
  22.2050516  97.4814491  20.5972472  21.3393108  98.5900093  21.1571294
  20.0894266  97.0517714  18.4320374  19.2762131  97.3511884  18.8385566
  20.5853260  96.6573403  19.1494857  25.6868478  97.5159538  27.2635268
  26.0417865  97.7431012  28.1229734  26.3340609  97.8477915  26.6412523
  31.4166215 100.6377974  17.9684597  31.2784113 100.8279570  17.0405786
  31.0602433 101.3997357  18.4252648  19.5808341  94.6236069  24.0481609
  20.2207720  94.4824829  23.3504573  18.7485871  94.3370583  23.6720211
  31.4435594 102.7054501  22.9795869  31.8772101 102.6129790  23.8278923
  32.1567175 102.6812002  22.3415885  25.1763489 106.3056595  24.5128969
  25.2300511 106.8747532  25.2806685  24.3078270 106.4758480  24.1483006
  16.5836957  94.5936394  18.8254596  16.8443774  95.5081728  18.7163756
  17.4054129  94.1260837  18.9751209  18.0561882  96.0074152  25.9953421
  18.7284936  95.7991514  25.3466069  17.2291669  95.8096238  25.5558653
  32.3051144 102.7478202  25.5128754  32.4987034 103.6524012  25.7588029
  32.2051762 102.2885621  26.3467339  23.9587454  92.6336093  28.0119081
  23.3115370  93.3326042  27.9183558  24.7288470  93.0672236  28.3795330
  27.3666252 102.8984945  31.0869635  27.2151759 102.6695496  30.1699718
  27.3570932 103.8555546  31.1000980  24.1351589 100.4716857  26.0715901
  25.0643649 100.6228017  25.8984868  23.7142619 100.5600878  25.2164548
  22.9339921 104.4967522  23.8414439  22.7951006 104.1286306  24.7140377
  22.1454517 105.0115161  23.6698397  24.4845136 103.8749125  21.2303277
  24.1494968 103.8349895  22.1260926  23.9849081 103.2093840  20.7573687
  18.4589380  99.2816755  26.7555858  18.3209178  98.5496993  27.3567397
  19.3694303  99.1925655  26.4740045  21.0871680  98.9936714  26.2439537
  21.7971299  98.3529906  26.2026156  21.0440989  99.2449609  27.1665718
  29.0758459 105.9304067  29.1646117  29.0171005 105.2463287  28.4976700
  29.4777977 106.6723057  28.7126743  19.8000614  95.9801932  28.0635177
  19.2637971  95.5292670  28.7156773  19.2117323  96.1147841  27.3205641
  29.0775866 103.8943651  27.3960096  28.1902645 103.5569573  27.5186495
  29.6474417 103.1626682  27.6328862  15.5339736  95.1157940  25.1488171
  15.4497924  94.5083609  24.4138581  14.7122442  95.6066958  25.1497668
  22.6077020 108.5545104  24.3621339  22.5347191 109.3600075  24.8740644
  22.1654413 108.7537069  23.5369361  25.7063449  93.6011503  20.5158366
  26.2032149  92.8481465  20.1959437  24.9350431  93.6375820  19.9501576
  33.5593207  99.3051869  22.1576658  33.5483083 100.1876584  21.7870591
  32.6910586  98.9523419  21.9631195  25.0675703 108.4531938  26.5179498
  25.7803675 109.0879402  26.4455400  24.5765732 108.5495804  25.7019500
  26.7893230 102.3583190  18.0896790  25.8549509 102.4784653  17.9201494
  26.9669899 101.4555657  17.8256800  22.2898418  95.7428886  20.2430051
  21.9196206  95.1899926  20.9310957  22.7857511  95.1387020  19.6905051
  30.1765781  98.2000510  18.6246824  30.6426234  99.0328501  18.5507127
  30.6273282  97.7345491  19.3292082  20.1187617 106.2026381  27.3385069
  20.8197076 106.8362864  27.4914463  19.6482732 106.5441113  26.5780708
  28.2442013 104.5444331  15.6232976  28.5201857 104.4300925  16.5326850
  27.3746511 104.1461816  15.5845149  28.1482444  90.5681097  22.6637725
  27.2345524  90.7985323  22.8319932  28.5775546  90.6519541  23.5151758
  27.9188903  98.7570988  25.1637619  27.2660353  99.0046896  24.5090072
  28.2969283  97.9435127  24.8300097  24.8796077 108.7930682  19.2665790
  25.0618471 107.9752338  19.7293542  25.7029063 109.0098374  18.8290680
  23.9676476  99.4990800  31.6503656  23.2917113  99.3984929  32.3206032
  24.7904110  99.3430013  32.1139654  22.7099259 110.8057727  25.8861272
  23.2617567 110.9689349  26.6510358  23.0505452 111.3962165  25.2141297
  17.6863752  93.1532877  26.4883157  17.7505078  94.0147708  26.0760555
  17.6230872  92.5406878  25.7555516  17.1616024  95.2256009  30.1356191
  17.7888063  94.8433087  30.7493716  16.3043943  95.0070211  30.5011884
  27.5610133 105.6318985  31.7409927  28.1050037 106.2448943  31.2464882
  26.9796978 106.1898563  32.2576940  25.8467646 108.7539703  22.8724955
  25.7218785 107.9529442  22.3635900  26.5046737 109.2485896  22.3838924
  17.4675814  95.1088435  22.0502095  16.7462400  95.7224403  21.9109568
  18.2569070  95.6446200  21.9718741  27.9102554 106.5548723  24.5004505
  26.9632890 106.4354074  24.4282831  28.2585327 105.6671221  24.5830766
  20.2702128  92.4442862  28.3242747  20.7936529  92.6905158  29.0869056
  20.0514461  93.2762896  27.9045884  24.9148988 106.3501439  20.7008857
  24.7673950 105.4218146  20.8816427  25.7402481 106.3721530  20.2165932
  28.5183109 107.1729998  21.7873730  29.4429657 106.9672859  21.6498181
  28.3498413 106.9246399  22.6963071  21.4754673  93.3856557  26.0092417
  21.1351493  92.5864370  26.4113097  20.7693679  93.6858267  25.4369250
  22.1271145  90.4705869  24.4619740  22.9497214  89.9966347  24.3398630
  22.3709208  91.2496353  24.9618426  20.7679379  93.4994128  14.7582642
  21.4887742  93.8775380  14.2546359  20.1444683  94.2183004  14.8617620
  24.9110502  94.2039276  15.6940974  25.1274116  95.0863914  15.3929802
  24.4304569  93.8125490  14.9646616  19.6509723  97.1624990  22.2711719
  19.5054304  97.4765293  23.1636000  19.1734927  97.7809890  21.7182617
  21.5106106  94.1527538  22.3192608  21.4967675  93.2568631  21.9824906
  22.2278534  94.1598201  22.9530894  23.3632237  94.5864878  24.3645736
  23.1050015  95.5081949  24.3630066  22.8317277  94.1895312  25.0546200
  28.3078426 107.6915665  17.1435821  28.4815303 107.1262087  16.3909673
  28.8007317 108.4916560  16.9615311  14.1255385  99.7030334  25.2099380
  13.5808854 100.4790142  25.3419654  15.0034735 100.0501139  25.0518501
  20.9143002  93.0341918  17.5880178  21.0358913  92.1058564  17.7871066
  20.6245044  93.0480604  16.6758494  23.7834192  90.7196828  20.7246898
  23.8055889  90.7836161  19.7698878  24.2002252  89.8801337  20.9187404
  34.1617817 100.4552088  18.7626121  34.6048963  99.7059413  18.3645244
  33.2844327 100.4462224  18.3799853  14.9121407  98.8300230  28.1029537
  14.1703143  98.9782866  28.6894167  14.5914152  99.0908496  27.2396286
  31.1945021 104.4582135  15.7720050  31.7196345 104.7969408  15.0469370
  31.1067374 103.5229150  15.5883185  22.8565070 108.3716209  27.9009927
  23.1652196 108.1265355  28.7732626  23.6540552 108.5762847  27.4128797
  20.3259554 106.0692127  22.2037605  19.7039563 105.4062832  21.9039833
  20.9964421 106.0953259  21.5211253  20.3984082  94.5473915  31.7970111
  20.4472237  95.4236038  31.4147881  20.9406596  94.0051308  31.2241754
  30.8838927 105.0915039  31.0771248  30.0934471 105.0739177  30.5375747
  30.6472282 105.6303332  31.8320285  31.0036802 101.9407505  28.3903977
  31.0534807 101.7757512  29.3319499  30.8950726 101.0734764  28.0001857
  28.2940565  97.9238433  29.7063283  29.1950428  97.7844898  29.4147281
  28.3688539  98.0892888  30.6461461  22.6283370  95.3005288  28.5516470
  21.7586680  95.5938854  28.2799058  22.8642850  95.8845733  29.2723733
  32.5054999 104.3604446  28.6345998  32.2139808 104.7234427  29.4709459
  31.8927130 103.6471455  28.4559330  33.7050682 101.9257326  21.1548568
  34.5397573 102.3647130  21.3186129  33.8409810 101.4495979  20.3356814
  30.7542187  99.4837061  27.1026056  31.2296309  99.6764707  26.2944907
  29.8307753  99.5396247  26.8569440  25.3322404  91.5184905  26.0681890
  25.8504348  92.2545932  25.7428379  24.9777537  91.8248898  26.9028649
  25.5834998  87.9385187  21.5882787  25.8636752  87.2708376  22.2143213
  26.3685605  88.1314283  21.0757450  29.4543856  96.3602821  25.3354362
  30.4061279  96.4600919  25.3566586  29.2847307  95.5681090  25.8452446
  27.4758236  93.4458404  25.5213763  26.8808168  93.7263417  24.8260251
  27.1907933  93.9352305  26.2930504  31.9331934  99.5808941  24.4496661
  31.9008254  98.6424942  24.6356345  32.5432558  99.6592978  23.7162486
  32.0826423  96.3719984  24.4954945  31.5665471  95.5878441  24.3084873
  32.9666371  96.0438701  24.6601464  29.7437150  90.1161000  20.4550757
  29.5461971  89.8076088  21.3394089  30.3536855  90.8422639  20.5848687
  37.7508484 100.6424948  23.5902698  38.4811873 100.3810236  24.1510401
  37.1415430  99.9053670  23.6304766  35.8323781  98.7832810  24.1877149
  35.1056945  98.6488775  23.5793641  35.4171068  99.0909639  24.9933867
  23.6553958 102.5022740  31.9524522  24.5756967 102.6801339  32.1464569
  23.6203541 101.5578785  31.8004222  16.6516030 100.4123775  24.5947304
  16.8702040 101.3440882  24.6135337  17.0641804 100.0531749  25.3802107
  23.5720248  90.9191860  16.5822992  22.7620976  90.5738945  16.9578238
  24.2604665  90.6099404  17.1710603  25.5010796  89.9969907  18.2047289
  26.0541835  90.4165360  18.8637312  25.7380883  89.0705655  18.2470245
  21.5243895  95.9856980  33.9850052  21.4240622  96.9351337  33.9162144
  21.3065438  95.6575219  33.1126123  28.8789603  92.1070432  17.7125953
  28.2988272  92.7655236  17.3304005  28.6125536  91.2847777  17.3013370
  27.3293170  91.5075490  19.9147273  27.8292948  91.6192024  19.1061592
  27.9728778  91.2036542  20.5548082  21.3875166  99.4154119  32.8015114
  20.9042247 100.2154479  33.0079003  21.4736105  99.4262064  31.8482558
  17.3148503 103.3058654  24.8383548  18.2691757 103.2742596  24.7713479
  17.1161027 102.8449278  25.6533774  17.9047885 101.8759770  27.4054346
  18.7240774 102.3703849  27.4289183  18.1784693 100.9591738  27.3771913
  27.6614481  94.2670522  16.7682301  26.7740336  94.5520173  16.5502496
  28.0768470  94.1064286  15.9209578  31.0129018  94.2917043  20.4836640
  31.7889408  94.7813496  20.7561257  30.2877152  94.7175097  20.9408510
  33.4501576  95.0044663  21.5410581  34.0446067  94.7640398  20.8303889
  33.5228160  94.2851793  22.1684117  27.6355505  99.7825058  16.9832591
  27.5790707 100.2393610  16.1440224  28.1883848  99.0215743  16.8055434
  31.4460311  95.5714790  17.8082711  31.1897245  95.1711426  18.6390918
  30.8213179  96.2858584  17.6832850  35.7572649  98.3110863  20.3154002
  35.1972207  98.3804053  21.0885564  35.1516152  98.1351848  19.5953498
  28.3690284 100.9729839  14.2785120  28.3139088 100.8074111  13.3373565
  27.7436340 101.6805872  14.4347310  13.1582799  96.2097904  28.1046543
  13.8041663  95.6996858  28.5933768  12.9499951  96.9466586  28.6789968
  25.6836192 103.2778751  33.6038683  26.5527351 103.4519404  33.2425318
  25.2042943 104.0973168  33.4814413  21.6786410  90.4737948  13.8570439
  21.6665080  91.4179788  14.0138710  22.5709832  90.2908094  13.5629900
  19.8522372 110.3975852  25.2828117  20.7549619 110.4299463  25.5994612
  19.6259742 109.4676303  25.2974453  25.4938529  87.0680725  18.1116376
  24.7270925  86.5139212  18.2573058  25.9049234  87.1402594  18.9730527
  17.4980290  93.3565521  32.2021557  18.3611752  93.0002326  32.4124881
  16.9245701  93.0179416  32.8896961  37.3428667 114.9867377  23.0083958
  37.9807077 114.8674125  22.3047298  37.2249510 115.9348221  23.0671910
  34.1518374 114.9394805  22.9445483  33.8136885 114.8235870  22.0566017
  35.0208142 114.5385970  22.9246489  34.6338157 116.0929657  28.9031688
  34.6226797 115.6982455  28.0312192  34.7958796 115.3595730  29.4965460
  36.8969936 112.7118831  20.0837166  37.6833025 112.2938254  19.7327583
  37.1608640 113.6164923  20.2518814  42.2978363 112.6494064  20.9870144
  43.0303535 112.0793281  21.2207974  41.5417719 112.2615665  21.4276650
  33.9154483 115.0721306  18.1833487  33.5512690 114.5451927  18.8946408
  34.7721599 114.6819775  18.0099972  39.8203783 106.3615638  25.4464753
  39.4887108 107.2311049  25.2225968  39.2249397 106.0451922  26.1258783
  39.7132447 111.0810725  22.5258103  38.8049324 111.0126133  22.2316864
  39.6620042 111.5582670  23.3539929  33.7873312 112.5000370  30.4693000
  33.0106646 113.0594290  30.4595865  34.4263875 112.9857153  30.9907870
  41.5794093 109.2827163  24.3035977  40.9368473 109.5759696  23.6575772
  41.0749022 109.1680083  25.1089174  39.2334257 113.0290336  14.9921836
  40.1452113 113.2617723  14.8169534  38.7243904 113.6127380  14.4296915
  37.5175024 117.4514964  28.6283129  37.9258380 117.0097375  27.8837761
  36.7952286 116.8767592  28.8817322  33.8706094 112.3887571  26.0016686
  34.7167290 112.8126984  26.1451335  33.8104732 111.7321195  26.6955249
  37.0205540 110.0491939  27.6597859  36.7766472 110.8034000  27.1232135
  37.2965470 110.4277287  28.4945106  38.9744002 116.5930552  26.3375125
  39.1860898 117.2362311  25.6609506  38.9273751 115.7592868  25.8697055
  36.5770231 109.2048372  23.2411697  35.7154710 109.5029626  23.5328435
  36.6032666 109.4218771  22.3092730  32.3300687 113.8713715  16.4575068
  33.0324730 114.3234759  16.9248994  31.9981315 113.2297534  17.0854961
  30.7781048 112.4625472  30.8326277  30.1479709 113.1441753  31.0661674
  30.6717136 112.3508553  29.8879416  26.0726021 112.1297268  21.7592202
  25.2825075 112.3854796  21.2832312  26.5637268 112.9445606  21.8644242
  48.1795823 115.8141255  20.8582454  47.4259532 115.2448654  20.7026458
  48.3143365 115.7803920  21.8053089  30.0561791 106.7646238  33.1951528
  29.6628737 106.2112436  33.8699173  30.8727932 107.0756816  33.5858046
  32.9729752 108.1804117  30.7871785  33.7139466 108.7811270  30.7076247
  33.2047675 107.4381754  30.2289828  28.1171090 113.3660484  29.0650015
  28.0024605 112.4645741  29.3657114  27.2615608 113.6124181  28.7134831
  36.9186915 104.2085220  25.0636067  36.5751185 105.0986861  24.9875177
  37.2865878 104.0186877  24.2005652  36.8837198 114.1993831  13.5708502
  36.3683821 114.9698435  13.8096889  36.6114506 113.5258967  14.1941563
  34.4684309 109.0443532  18.6293740  33.6125905 108.6550382  18.4499379
  34.8811261 109.1235492  17.7693526  35.9983455 106.5789875  23.0285300
  35.4948251 106.5420010  22.2153105  36.2914062 107.4882617  23.0881957
  32.2426341 106.6628604  22.0351482  33.1079338 106.4671413  21.6757371
  32.3103850 106.4338956  22.9620838  41.8571472 116.9526185  15.5061675
  41.0800915 116.6137345  15.0616837  42.5362953 116.9578809  14.8316640
  36.6723501 112.0720923  15.3968283  36.3673637 112.3867072  16.2478426
  37.6253943 112.1502343  15.4395616  40.0962779 116.4260167  22.1628283
  39.4386453 117.1159428  22.2508412  40.9003178 116.8156599  22.5062270
  29.8488660 108.8930812  19.4067848  30.4232412 108.6705994  18.6741041
  30.4359643 108.9619507  20.1596450  38.9068238 114.7804539  20.2132225
  39.4200119 115.4134531  20.7153935  39.5569462 114.1805735  19.8475585
  32.1511328 105.7672061  18.1342918  31.4975741 105.4521078  17.5099533
  32.1091802 105.1447802  18.8602741  35.3849069 112.2553995  22.4590565
  34.4671630 112.4768942  22.3012254  35.8009212 112.3300305  21.6002273
  36.1684116 113.6545411  17.5893246  36.9155935 114.1666808  17.2800368
  36.4375706 113.3329463  18.4497639  38.6162953 110.6902527  19.5712035
  37.8785710 110.1779913  19.9022278  38.8689727 110.2502908  18.7595312
  38.7174581 103.4678779  20.1653804  39.0233458 102.6076142  19.8779719
  39.4427186 104.0596399  19.9652798  32.9895661 113.7632572  20.6729995
  33.0444270 112.8106408  20.5972472  32.1786863 113.9192011  21.1571294
  30.9288020 112.3809632  18.4320374  30.1155886 112.6803802  18.8385566
  31.4247015 111.9865320  19.1494857  36.5262232 112.8451456  27.2635268
  36.8811620 113.0722929  28.1229734  37.1734363 113.1769833  26.6412523
  42.2559969 115.9669892  17.9684597  42.1177868 116.1571488  17.0405786
  41.8996188 116.7289275  18.4252648  30.4202095 109.9527987  24.0481609
  31.0601475 109.8116746  23.3504573  29.5879626 109.6662501  23.6720211
  42.2829349 118.0346419  22.9795869  42.7165855 117.9421708  23.8278923
  42.9960929 118.0103919  22.3415885  27.4230712 109.9228312  18.8254596
  27.6837529 110.8373645  18.7163756  28.2447884 109.4552755  18.9751209
  28.8955637 111.3366069  25.9953421  29.5678690 111.1283431  25.3466069
  28.0685423 111.1388155  25.5558653  43.1444898 118.0770120  25.5128754
  43.3380788 118.9815930  25.7588029  43.0445516 117.6177539  26.3467339
  34.7981209 107.9628010  28.0119081  34.1509124 108.6617960  27.9183558
  35.5682224 108.3964154  28.3795330  34.9745343 115.8008775  26.0715901
  35.9037403 115.9519935  25.8984868  34.5536373 115.8892796  25.2164548
  29.2983134 114.6108672  26.7555858  29.1602932 113.8788911  27.3567397
  30.2088058 114.5217572  26.4740045  31.9265435 114.3228632  26.2439537
  32.6365053 113.6821824  26.2026156  31.8834743 114.5741526  27.1665718
  30.6394369 111.3093849  28.0635177  30.1031726 110.8584588  28.7156773
  30.0511077 111.4439758  27.3205641  26.3733490 110.4449857  25.1488171
  26.2891679 109.8375527  24.4138581  25.5516196 110.9358875  25.1497668
  36.5457204 108.9303421  20.5158366  37.0425903 108.1773383  20.1959437
  35.7744185 108.9667737  19.9501576  44.3986961 114.6343786  22.1576658
  44.3876838 115.5168502  21.7870591  43.5304341 114.2815337  21.9631195
  33.1292173 111.0720804  20.2430051  32.7589960 110.5191844  20.9310957
  33.6251265 110.4678937  19.6905051  41.0159536 113.5292427  18.6246824
  41.4819988 114.3620419  18.5507127  41.4667036 113.0637409  19.3292082
  38.9876199 105.8973014  22.6637725  38.0739279 106.1277241  22.8319932
  39.4169300 105.9811458  23.5151758  38.7582657 114.0862906  25.1637619
  38.1054107 114.3338814  24.5090072  39.1363037 113.2727044  24.8300097
  34.8070230 114.8282717  31.6503656  34.1310867 114.7276847  32.3206032
  35.6297864 114.6721931  32.1139654  28.5257506 108.4824794  26.4883157
  28.5898833 109.3439625  26.0760555  28.4624627 107.8698796  25.7555516
  28.0009779 110.5547927  30.1356191  28.6281818 110.1725004  30.7493716
  27.1437698 110.3362129  30.5011884  28.3069569 110.4380353  22.0502095
  27.5856154 111.0516320  21.9109568  29.0962824 110.9738118  21.9718741
  31.1095882 107.7734779  28.3242747  31.6330284 108.0197076  29.0869056
  30.8908215 108.6054814  27.9045884  32.3148427 108.7148474  26.0092417
  31.9745248 107.9156287  26.4113097  31.6087433 109.0150185  25.4369250
  32.9664899 105.7997787  24.4619740  33.7890968 105.3258265  24.3398630
  33.2102963 106.5788270  24.9618426  31.6073134 108.8286045  14.7582642
  32.3281496 109.2067298  14.2546359  30.9838438 109.5474922  14.8617620
  35.7504256 109.5331194  15.6940974  35.9667871 110.4155832  15.3929802
  35.2698324 109.1417408  14.9646616  30.4903478 112.4916907  22.2711719
  30.3448059 112.8057210  23.1636000  30.0128681 113.1101808  21.7182617
  32.3499861 109.4819455  22.3192608  32.3361429 108.5860549  21.9824906
  33.0672289 109.4890119  22.9530894  34.2025991 109.9156796  24.3645736
  33.9443769 110.8373866  24.3630066  33.6711032 109.5187230  25.0546200
  31.7536757 108.3633836  17.5880178  31.8752668 107.4350482  17.7871066
  31.4638799 108.3772522  16.6758494  34.6227947 106.0488746  20.7246898
  34.6449644 106.1128079  19.7698878  35.0396006 105.2093255  20.9187404
  45.0011571 115.7844006  18.7626121  45.4442717 115.0351331  18.3645244
  44.1238082 115.7754142  18.3799853  31.2377836 109.8765833  31.7970111
  31.2865992 110.7527956  31.4147881  31.7800350 109.3343226  31.2241754
  41.8430557 117.2699423  28.3903977  41.8928562 117.1049430  29.3319499
  41.7344480 116.4026682  28.0001857  39.1334319 113.2530351  29.7063283
  40.0344182 113.1136816  29.4147281  39.2082294 113.4184805  30.6461461
  33.4677125 110.6297205  28.5516470  32.5980434 110.9230771  28.2799058
  33.7036605 111.2137650  29.2723733  44.5444436 117.2549244  21.1548568
  45.3791327 117.6939048  21.3186129  44.6803565 116.7787897  20.3356814
  41.5935942 114.8128979  27.1026056  42.0690064 115.0056625  26.2944907
  40.6701507 114.8688165  26.8569440  36.1716158 106.8476822  26.0681890
  36.6898102 107.5837849  25.7428379  35.8171291 107.1540816  26.9028649
  36.4228753 103.2677105  21.5882787  36.7030506 102.6000294  22.2143213
  37.2079360 103.4606200  21.0757450  40.2937611 111.6894739  25.3354362
  41.2455034 111.7892837  25.3566586  40.1241061 110.8973007  25.8452446
  38.3151990 108.7750322  25.5213763  37.7201923 109.0555335  24.8260251
  38.0301687 109.2644223  26.2930504  42.7725689 114.9100859  24.4496661
  42.7402009 113.9716859  24.6356345  43.3826312 114.9884895  23.7162486
  42.9220177 111.7011902  24.4954945  42.4059226 110.9170359  24.3084873
  43.8060126 111.3730619  24.6601464  40.5830904 105.4452918  20.4550757
  40.3855725 105.1368006  21.3394089  41.1930610 106.1714556  20.5848687
  48.5902239 115.9716865  23.5902698  49.3205627 115.7102154  24.1510401
  47.9809184 115.2345587  23.6304766  46.6717536 114.1124728  24.1877149
  45.9450699 113.9780693  23.5793641  46.2564823 114.4201557  24.9933867
  34.4114002 106.2483778  16.5822992  33.6014731 105.9030863  16.9578238
  35.0998419 105.9391321  17.1710603  36.3404551 105.3261824  18.2047289
  36.8935589 105.7457278  18.8637312  36.5774637 104.3997573  18.2470245
  32.3637650 111.3148898  33.9850052  32.2634377 112.2643255  33.9162144
  32.1459192 110.9867137  33.1126123  39.7183358 107.4362350  17.7125953
  39.1382027 108.0947154  17.3304005  39.4519291 106.6139694  17.3013370
  38.1686924 106.8367407  19.9147273  38.6686703 106.9483942  19.1061592
  38.8122532 106.5328460  20.5548082  32.2268920 114.7446037  32.8015114
  31.7436002 115.5446397  33.0079003  32.3129859 114.7553982  31.8482558
  38.5008236 109.5962440  16.7682301  37.6134091 109.8812091  16.5502496
  38.9162225 109.4356203  15.9209578  41.8522772 109.6208961  20.4836640
  42.6283162 110.1105413  20.7561257  41.1270906 110.0467015  20.9408510
  44.2895331 110.3336580  21.5410581  44.8839821 110.0932316  20.8303889
  44.3621914 109.6143711  22.1684117  38.4749260 115.1116976  16.9832591
  38.4184461 115.5685527  16.1440224  39.0277602 114.3507661  16.8055434
  42.2854066 110.9006708  17.8082711  42.0291000 110.5003343  18.6390918
  41.6606934 111.6150502  17.6832850  46.5966403 113.6402781  20.3154002
  46.0365961 113.7095970  21.0885564  45.9909907 113.4643766  19.5953498
  39.2084039 116.3021757  14.2785120  39.1532843 116.1366029  13.3373565
  38.5830094 117.0097790  14.4347310  23.9976554 111.5389822  28.1046543
  24.6435418 111.0288776  28.5933768  23.7893705 112.2758503  28.6789968
  32.5180164 105.8029866  13.8570439  32.5058834 106.7471706  14.0138710
  33.4103586 105.6200012  13.5629900  36.3332284 102.3972643  18.1116376
  35.5664680 101.8431130  18.2573058  36.7442989 102.4694512  18.9730527
  28.3374045 108.6857439  32.2021557  29.2005506 108.3294243  32.4124881
  27.7639456 108.3471333  32.8896961  47.7580670 119.5377137  25.0636067
  47.4144939 120.4278779  24.9875177  48.1259632 119.3478795  24.2005652
  49.5568335 118.7970696  20.1653804  49.8627212 117.9368060  19.8779719
  50.2820940 119.3888317  19.9652798  49.8269953 121.2264932  22.6637725
  48.9133033 121.4569159  22.8319932  50.2563055 121.3103376  23.5151758
  47.2622507 118.5969023  21.5882787  47.5424261 117.9292212  22.2143213
  48.0473114 118.7898118  21.0757450  51.4224659 120.7744835  20.4550757
  51.2249480 120.4659923  21.3394089  52.0324364 121.5006474  20.5848687
  47.1798305 120.6553742  18.2047289  47.7329344 121.0749196  18.8637312
  47.4168392 119.7289490  18.2470245  47.1726038 117.7264560  18.1116376
  46.4058434 117.1723047  18.2573058  47.5836743 117.7986429  18.9730527
   2.6781666  52.3264594  17.3882822   2.2345520  51.5400972  17.0703726
   3.3398879  52.5143744  16.7226713   4.7762904  52.6067394  15.4164223
   4.7581379  53.4276275  14.9244492   5.6982824  52.4821469  15.6414364
   5.6878745  49.2463232  17.8114941   5.5364251  49.0173784  16.8945025
   5.6783424  50.2033833  17.8246286   7.3970951  52.2782355  15.8891423
   7.3383497  51.5941575  15.2222006   7.7990470  53.0201345  15.4372049
   5.8822625  51.9797272  18.4655233   6.4262529  52.5927230  17.9710188
   5.3009470  52.5376850  18.9822246   9.2051420  51.4393326  17.8016555
   8.4146963  51.4217465  17.2621054   8.9684774  51.9781620  18.5565591
  10.8267491  50.7082734  15.3591305  10.5352300  51.0712714  16.1954766
  10.2139623  49.9949742  15.1804637   4.0048684  49.6257039  20.3283990
   4.8739844  49.7997691  19.9670625   3.5255435  50.4451455  20.2059719
  15.6641160  61.3345665   9.7329265  16.3019570  61.2152412   9.0292605
  15.5462003  62.2826508   9.7917217  12.4730866  61.2873093   9.6690789
  12.1349377  61.1714157   8.7811324  13.3420634  60.8864258   9.6491795
  12.9550649  62.4407944  15.6276995  12.9439290  62.0460743  14.7557498
  13.1171288  61.7074017  16.2210766   9.6757910  65.2245056  14.5756179
   9.3847776  66.1290687  14.4602845  10.3114894  65.2661584  15.2900248
  10.6014117  62.6021905  11.1657538  11.1977689  62.3777927  10.4514501
  10.6589088  61.8606650  11.7682986  20.6190855  58.9972352   7.7115451
  21.3516027  58.4271568   7.9453281  19.8630211  58.6093952   8.1521957
  18.1416276  52.7093926  12.1710060  17.8099600  53.5789337  11.9471275
  17.5461889  52.3930210  12.8504090  14.6347795  64.9106472  11.5705972
  14.3348518  65.8131510  11.4621780  14.2898855  64.6438655  12.4227125
  18.0344939  57.4289012   9.2503410  17.1261816  57.3604420   8.9562171
  17.9832535  57.9060957  10.0785235  12.1085805  58.8478657  17.1938307
  11.3319139  59.4072578  17.1841172  12.7476368  59.3335440  17.7153177
  19.9006585  55.6305450  11.0281284  19.2580966  55.9237983  10.3821078
  19.3961514  55.5158371  11.8334480  10.3632177  61.6564111  16.7556274
  11.1046861  62.1949155  16.4791098   9.6569162  62.2830400  16.9127826
  15.8387517  63.7993251  15.3528435  16.2470873  63.3575662  14.6083068
  15.1164778  63.2245879  15.6062628  12.1918587  58.7365858  12.7261992
  13.0379782  59.1605272  12.8696641  12.1317224  58.0799482  13.4200556
  16.1616331  64.3594442   9.1080724  15.5325194  64.5240156   8.4056792
  15.7741993  64.7736051   9.8791688  20.0405563  65.2948880   6.4625088
  19.3556601  65.6747781   5.9122121  20.1249412  65.9044206   7.1957036
  15.3418032  56.3970226  14.3843166  15.0978964  57.1512287  13.8477442
  15.6177963  56.7755574  15.2190413  17.2956495  62.9408839  13.0620432
  17.5073390  63.5840599  12.3854813  17.2486243  62.1071155  12.5942362
  11.7144293  64.0968850   6.3730809  12.1782639  64.3756553   5.5835432
  11.4501091  63.1952295   6.1903900   8.6068374  63.6440332   9.3110573
   9.1769731  64.0727600   8.6728057   9.1976486  63.3622916  10.0094758
   9.0993541  58.8103759  17.5571584   8.4692201  59.4920040  17.7906981
   8.9929629  58.6986841  16.6124722  18.4102323  65.8180794  11.2342789
  19.2319766  65.4160981  10.9525471  18.4064726  65.7149028  12.1858905
  12.1758926  65.3664837  13.3903499  12.2403359  65.8285245  14.2261671
  11.4669850  64.7362202  13.5185809  26.5008316  62.1619543   7.5827760
  25.7472024  61.5926941   7.4271765  26.6355857  62.1282207   8.5298395
   8.3774283  53.1124525  19.9196835   7.9841229  52.5590723  20.5944479
   9.1940424  53.4235103  20.3103353  11.2942244  54.5282404  17.5117092
  12.0351958  55.1289557  17.4321554  11.5260167  53.7860042  16.9535134
   6.4383582  59.7138771  15.7895321   6.3237098  58.8124028  16.0902420
   5.5828100  59.9602468  15.4380138  13.5175420  67.6556511  17.3882822
  13.0739274  66.8692890  17.0703726  14.1792634  67.8435662  16.7226713
   8.2762541  69.1852313  11.9143500   8.8269966  69.0569376  11.1420494
   7.4374017  69.4847202  11.5638393  15.6156658  67.9359311  15.4164223
  15.5975134  68.7568192  14.9244492  16.5376578  67.8113387  15.6414364
  12.0729712  65.4503441  16.2587732  12.6058049  64.6891729  16.0287040
  11.5443794  65.1577093  17.0011886  18.4175271  62.7738454   8.8873590
  17.7598946  63.4637715   8.9753718  19.2215670  63.1634886   9.2307576
  17.2280730  61.1282827   6.9377532  17.7412612  61.7612818   7.4399241
  17.8781954  60.5284022   6.5720892  13.7061561  58.6032282   9.1835872
  12.7884122  58.8247229   9.0257560  14.1221704  58.6778593   8.3247579
  17.9942526  66.1088828   5.0656674  17.5404853  65.2679738   5.1221865
  17.3636493  66.7450226   5.4031454  16.4375465  67.9465325   6.0006492
  16.7298440  68.5070382   5.2818858  16.9474086  68.2393886   6.7559651
  14.8474724  59.1929743  13.9880575  15.2024112  59.4201216  14.8475041
  15.4946856  59.5248120  13.3657830  20.5772461  62.3148179   4.6929904
  20.4390360  62.5049775   3.7651093  20.2208680  63.0767562   5.1497955
  20.6041841  64.3824706   9.7041175  21.0378348  64.2899995  10.5524229
  21.3173422  64.3582207   9.0661191  14.3369736  67.9826800  11.2374276
  14.3906758  68.5517737  12.0051992  13.4684517  68.1528685  10.8728313
   7.2168129  57.6844357  12.7198727   7.8891183  57.4761719  12.0711376
   6.3897916  57.4866443  12.2803959  21.4657391  64.4248407  12.2374061
  21.6593281  65.3294217  12.4833336  21.3658009  63.9655826  13.0712646
  13.1193701  54.3106297  14.7364388  12.4721616  55.0096247  14.6428864
  13.8894717  54.7442441  15.1040636  16.5272499  64.5755150  17.8114941
  16.3758006  64.3465701  16.8945025  16.5177179  65.5325751  17.8246286
  13.2957836  62.1487062  12.7961208  14.2249896  62.2998222  12.6230175
  12.8748866  62.2371083  11.9409854  12.0946167  66.1737727  10.5659745
  11.9557253  65.8056511  11.4385684  11.3060764  66.6885366  10.3943703
  13.6451383  65.5519329   7.9548583  13.3101215  65.5120099   8.8506233
  13.1455328  64.8864045   7.4818993   7.6195626  60.9586960  13.4801164
   7.4815424  60.2267198  14.0812703   8.5300550  60.8695860  13.1985352
  10.2477927  60.6706919  12.9684844  10.9577546  60.0300111  12.9271462
  10.2047235  60.9219814  13.8911025  18.2364706  67.6074272  15.8891423
  18.1777252  66.9233492  15.2222006  18.6384224  68.3493262  15.4372049
   8.9606861  57.6572137  14.7880483   8.4244218  57.2062875  15.4402080
   8.3723570  57.7918046  14.0450948  18.2382113  65.5713856  14.1205403
  17.3508892  65.2339778  14.2431802  18.8080664  64.8396887  14.3574168
  11.7683266  70.2315308  11.0866646  11.6953438  71.0370280  11.5985951
  11.3260660  70.4307274  10.2614667  22.7199454  60.9822073   8.8821965
  22.7089330  61.8646789   8.5115898  21.8516833  60.6293624   8.6876502
  14.2281950  70.1302142  13.2424805  14.9409922  70.7649607  13.1700706
  13.7371979  70.2266008  12.4264807  15.9499477  64.0353395   4.8142096
  15.0155756  64.1554858   4.6446801  16.1276145  63.1325862   4.5502106
  19.3372028  59.8770714   5.3492131  19.8032480  60.7098706   5.2752433
  19.7879529  59.4115696   6.0537389   9.2793864  67.8796586  14.0630376
   9.9803323  68.5133069  14.2159770   8.8088979  68.2211318  13.3026015
  17.0795150  60.4341193  11.8882926  16.4266600  60.6817101  11.2335379
  17.4575529  59.6205332  11.5545403  14.0402323  70.4700887   5.9911096
  14.2224718  69.6522543   6.4538849  14.8635309  70.6868579   5.5535986
  13.1282723  61.1761004  18.3748963  12.4523360  61.0755134  19.0451338
  13.9510356  61.0200218  18.8384960  11.8705505  72.4827932  12.6106579
  12.4223813  72.6459553  13.3755664  12.2111699  73.0732370  11.9386604
   6.3222271  56.9026214  16.8601498   6.9494310  56.5203292  17.4739022
   5.4650190  56.6840416  17.2257190  16.7216380  67.3089189  18.4655233
  17.2656284  67.9219148  17.9710188  16.1403225  67.8668768  18.9822246
  15.0073893  70.4309907   9.5970261  14.8825032  69.6299647   9.0881207
  15.6652984  70.9256101   9.1084231  17.0708801  68.2318928  11.2249811
  16.1239137  68.1124279  11.1528138  17.4191574  67.3441426  11.3076073
   9.4308374  54.1213066  15.0488053   9.9542776  54.3675363  15.8114362
   9.2120708  54.9533101  14.6291190  14.0755234  68.0271644   7.4254163
  13.9280197  67.0988351   7.6061734  14.9008728  68.0491734   6.9411239
  17.6789356  68.8500202   8.5119036  18.6035904  68.6443064   8.3743487
  17.5104660  68.6016604   9.4208378  10.6360919  55.0626762  12.7337724
  10.2957740  54.2634575  13.1358404   9.9299926  55.3628472  12.1614557
  12.5238484  56.2635083  11.0891042  12.2656261  57.1852153  11.0875373
  11.9923524  55.8665517  11.7791506  17.4684672  69.3685870   3.8681128
  17.6421550  68.8032292   3.1154980  17.9613564  70.1686765   3.6860618
   3.2861632  61.3800539  11.9344686   2.7415100  62.1560347  12.0664961
   4.1640982  61.7271343  11.7763808  23.3224064  62.1322293   5.4871427
  23.7655210  61.3829618   5.0890551  22.4450574  62.1232429   5.1045159
   4.0727654  60.5070435  14.8274843   3.3309390  60.6553071  15.4139474
   3.7520398  60.7678701  13.9641593  20.3551268  66.1352340   2.4965357
  20.8802592  66.4739613   1.7714677  20.2673621  65.1999355   2.3128491
  12.0171317  70.0486414  14.6255233  12.3258443  69.8035560  15.4977933
  12.8146799  70.2533052  14.1374104   9.4865801  67.7462332   8.9282912
   8.8645810  67.0833037   8.6285139  10.1570668  67.7723464   8.2456559
   9.5590328  56.2244120  18.5215418   9.6078484  57.1006243  18.1393187
  10.1012843  55.6821513  17.9487061  20.0445174  66.7685244  17.8016555
  19.2540718  66.7509382  17.2621054  19.8078529  67.3073537  18.5565591
  20.1643049  63.6177710  15.1149283  20.2141054  63.4527717  16.0564806
  20.0556972  62.7504969  14.7247164  17.4546812  59.6008638  16.4308590
  18.3556674  59.4615103  16.1392588  17.5294786  59.7663093  17.3706767
  11.7889617  56.9775493  15.2761776  10.9192926  57.2709059  15.0044365
  12.0249097  57.5615938  15.9969040  21.6661246  66.0374651  15.3591305
  21.3746054  66.4004632  16.1954766  21.0533377  65.3241660  15.1804637
  22.8656928  63.6027531   7.8793875  23.7003820  64.0417335   8.0431435
  23.0016057  63.1266184   7.0602121  19.9148434  61.1607266  13.8271363
  20.3902556  61.3534912  13.0190214  18.9914000  61.2166452  13.5814746
  14.4928651  53.1955110  12.7927197  15.0110595  53.9316137  12.4673685
  14.1383783  53.5019103  13.6273956  18.6150103  58.0373026  12.0599668
  19.5667526  58.1371124  12.0811892  18.4453554  57.2451295  12.5697753
  16.6364483  55.1228609  12.2459069  16.0414415  55.4033622  11.5505558
  16.3514179  55.6122510  13.0175810  21.0938181  61.2579146  11.1741968
  21.0614501  60.3195147  11.3601652  21.7038805  61.3363183  10.4407793
  21.2432669  58.0490189  11.2200251  20.7271718  57.2648646  11.0330180
  22.1272618  57.7208906  11.3846771  26.9114731  62.3195153  10.3148005
  27.6418119  62.0580441  10.8755708  26.3021676  61.5823875  10.3550073
  24.9930028  60.4603015  10.9122456  24.2663192  60.3258980  10.3038948
  24.5777315  60.7679844  11.7179174  12.8160204  64.1792945  18.6769829
  13.7363214  64.3571544  18.8709876  12.7809787  63.2348990  18.5249528
   5.8122277  62.0893980  11.3192610   6.0308287  63.0211087  11.3380644
   6.2248051  61.7301954  12.1047414  10.6850142  57.6627185  20.7095359
  10.5846869  58.6121542  20.6407450  10.4671684  57.3345424  19.8371429
  10.5481412  61.0924324  19.5260421  10.0648494  61.8924684  19.7324310
  10.6342351  61.1032269  18.5727865   6.4754750  64.9828859  11.5628855
   7.4298003  64.9512801  11.4958786   6.2767273  64.5219483  12.3779080
   7.0654132  63.5529975  14.1299652   7.8847021  64.0474054  14.1534489
   7.3390940  62.6361943  14.1017220  20.1735264  55.9687248   7.2081947
  20.9495654  56.4583701   7.4806564  19.4483398  56.3945302   7.6653816
  22.6107823  56.6814867   8.2655888  23.2052314  56.4410603   7.5549196
  22.6834407  55.9621998   8.8929424  24.9178896  59.9881068   7.0399309
  24.3578454  60.0574258   7.8130871  24.3122399  59.8122053   6.3198805
   2.3189046  57.8868109  14.8291849   2.9647910  57.3767063  15.3179074
   2.1106197  58.6236790  15.4035275  14.8442438  64.9548956  20.3283990
  15.7133598  65.1289609  19.9670625  14.3649190  65.7743373  20.2059719
   9.0128619  72.0746057  12.0073423   9.9155865  72.1069668  12.3239918
   8.7865989  71.1446508  12.0219759   6.6586537  55.0335726  18.9266864
   7.5217999  54.6772531  19.1370188   6.0851948  54.6949621  19.6142268
  26.5034914  76.6637582   9.7329265  27.1413324  76.5444330   9.0292605
  26.3855757  77.6118426   9.7917217  23.3124620  76.6165010   9.6690789
  22.9743132  76.5006075   8.7811324  24.1814389  76.2156175   9.6491795
  23.7944403  77.7699862  15.6276995  23.7833044  77.3752660  14.7557498
  23.9565043  77.0365935  16.2210766  20.5151665  80.5536974  14.5756179
  20.2241530  81.4582605  14.4602845  21.1508649  80.5953501  15.2900248
  21.4407871  77.9313822  11.1657538  22.0371444  77.7069845  10.4514501
  21.4982843  77.1898568  11.7682986  26.0576183  74.3889036   6.8082473
  26.8439272  73.9708459   6.4572890  26.3214887  75.2935128   6.9764121
  31.4584610  74.3264269   7.7115451  32.1909782  73.7563486   7.9453281
  30.7023965  73.9385870   8.1521957  23.0760729  76.7491511   4.9078794
  22.7118937  76.2222132   5.6191715  23.9327845  76.3589980   4.7345279
  28.9810030  68.0385843  12.1710060  28.6493355  68.9081254  11.9471275
  28.3855643  67.7222127  12.8504090  25.4741550  80.2398389  11.5705972
  25.1742273  81.1423428  11.4621780  25.1292609  79.9730573  12.4227125
  18.9254031  76.6912186   7.6042677  18.0004528  76.5588400   7.8120369
  19.1738444  77.4706405   8.1012619  28.8738693  72.7580930   9.2503410
  27.9655571  72.6896338   8.9562171  28.8226289  73.2352874  10.0785235
  22.9479559  74.1770575  17.1938307  22.1712893  74.7364495  17.1841172
  23.5870122  74.6627358  17.7153177  30.7400340  70.9597368  11.0281284
  30.0974720  71.2529901  10.3821078  30.2355268  70.8450288  11.8334480
  28.3940503  74.7060541   1.7167143  29.3058360  74.9387928   1.5414840
  27.8850151  75.2897585   1.1542222  21.2025931  76.9856028  16.7556274
  21.9440616  77.5241072  16.4791098  20.4962917  77.6122317  16.9127826
  26.6781271  79.1285169  15.3528435  27.0864627  78.6867579  14.6083068
  25.9558533  78.5537796  15.6062628  23.0312341  74.0657776  12.7261992
  23.8773536  74.4897189  12.8696641  22.9710979  73.4091400  13.4200556
  27.0010086  79.6886360   9.1080724  26.3718948  79.8532074   8.4056792
  26.6135748  80.1027969   9.8791688  30.8799318  80.6240797   6.4625088
  30.1950356  81.0039699   5.9122121  30.9643167  81.2336124   7.1957036
  26.1811786  71.7262144  14.3843166  25.9372718  72.4804205  13.8477442
  26.4571717  72.1047492  15.2190413  28.1350249  78.2700756  13.0620432
  28.3467145  78.9132516  12.3854813  28.0879998  77.4363073  12.5942362
  25.7376478  70.8818577   9.9657004  24.8760957  71.1799831  10.2573741
  25.7638913  71.0988976   9.0338036  22.5538048  79.4260768   6.3730809
  23.0176393  79.7048471   5.5835432  22.2894846  78.5244212   6.1903900
  19.4462129  78.9732249   9.3110573  20.0163486  79.4019518   8.6728057
  20.0370241  78.6914834  10.0094758  21.4906934  75.5483920   3.1820375
  22.1930977  76.0004964   3.6494301  21.1587562  74.9067739   3.8100268
  19.9387295  74.1395677  17.5571584  19.3085956  74.8211958  17.7906981
  19.8323383  74.0278758  16.6124722  15.2332268  73.8067473   8.4837508
  14.4431322  74.0625001   8.0077619  15.7243515  74.6215811   8.5889549
  29.2496077  81.1472712  11.2342789  30.0713521  80.7452899  10.9525471
  29.2458480  81.0440946  12.1858905  23.0152681  80.6956755  13.3903499
  23.0797113  81.1577162  14.2261671  22.3063605  80.0654120  13.5185809
  13.5169971  74.0597963  10.9152499  13.7678009  74.9444973  11.1810075
  14.0529519  73.8802565  10.1427591  37.3402070  77.4911460   7.5827760
  36.5865779  76.9218858   7.4271765  37.4749611  77.4574125   8.5298395
  19.2168038  68.4416443  19.9196835  18.8234984  67.8882641  20.5944479
  20.0334178  68.7527021  20.3103353  22.1335999  69.8574322  17.5117092
  22.8745712  70.4581475  17.4321554  22.3653922  69.1151959  16.9535134
  17.2777337  75.0430689  15.7895321  17.1630852  74.1415946  16.0902420
  16.4221855  75.2894386  15.4380138  24.3569175  82.9848429  17.3882822
  23.9133029  82.1984808  17.0703726  25.0186388  83.1727580  16.7226713
  19.1156296  84.5144231  11.9143500  19.6663721  84.3861294  11.1420494
  18.2767772  84.8139120  11.5638393  26.4550413  83.2651229  15.4164223
  26.4368888  84.0860110  14.9244492  27.3770333  83.1405304  15.6414364
  22.9123467  80.7795359  16.2587732  23.4451804  80.0183647  16.0287040
  22.3837548  80.4869010  17.0011886  26.0793162  65.8855425  11.7881373
  25.7357431  66.7757066  11.7120484  26.4472124  65.6957082  10.9250958
  26.0443445  75.8764036   0.2953808  25.5290068  76.6468640   0.5342196
  25.7720753  75.2029172   0.9186870  23.6290556  70.7213736   5.3539047
  22.7732152  70.3320587   5.1744685  24.0417507  70.8005697   4.4938832
  25.1589702  68.2560080   9.7530607  24.6554498  68.2190215   8.9398412
  25.4520309  69.1652822   9.8127263  21.4032588  68.3398809   8.7596788
  22.2685585  68.1441618   8.4002678  21.4710097  68.1109161   9.6866145
  31.0177719  78.6296390   2.2306982  30.2407162  78.2907550   1.7862144
  31.6969200  78.6349013   1.5561947  25.8329748  73.7491128   2.1213590
  25.5279883  74.0637277   2.9723733  26.7860190  73.8272548   2.1640923
  29.2569026  78.1030372   8.8873590  28.5992700  78.7929633   8.9753718
  30.0609425  78.4926803   9.2307576  19.0094907  70.5701017   6.1313155
  19.5838659  70.3476199   5.3986348  19.5965890  70.6389712   6.8841756
  28.0674484  76.4574744   6.9377532  28.5806366  77.0904736   7.4399241
  28.7175708  75.8575940   6.5720892  21.3117575  67.4442266   4.8588225
  20.6581987  67.1291283   4.2344839  21.2698049  66.8218007   5.5848047
  24.5455315  73.9324200   9.1835872  23.6277877  74.1539147   9.0257560
  24.9615459  74.0070510   8.3247579  25.3290363  75.3315615   4.3138552
  26.0762182  75.8437013   4.0045674  25.5981953  75.0099668   5.1742946
  28.8336281  81.4380746   5.0656674  28.3798608  80.5971656   5.1221865
  28.2030247  82.0742144   5.4031454  27.7769200  72.3672732   6.2957342
  27.0391957  71.8550118   6.6267584  28.0295974  71.9273113   5.4840619
  27.2769220  83.2757242   6.0006492  27.5692194  83.8362299   5.2818858
  27.7867840  83.5685803   6.7559651  27.8780828  65.1448984   6.8899111
  28.1839704  64.2846347   6.6025026  28.6033432  65.7366604   6.6898105
  22.1501907  75.4402777   7.3975302  22.2050517  74.4876613   7.3217779
  21.3393109  75.5962216   7.8816600  20.0894267  74.0579837   5.1565681
  19.2762133  74.3574007   5.5630873  20.5853261  73.6635525   5.8740163
  25.6868479  74.5221661  13.9880575  26.0417867  74.7493134  14.8475041
  26.3340610  74.8540038  13.3657830  31.4166216  77.6440097   4.6929904
  31.2784114  77.8341693   3.7651093  31.0602435  78.4059480   5.1497955
  19.5808342  71.6298192  10.7726916  20.2207721  71.4886951  10.0749879
  18.7485873  71.3432705  10.3965518  31.4435595  79.7116624   9.7041175
  31.8772102  79.6191913  10.5524229  32.1567176  79.6874124   9.0661191
  25.1763490  83.3118718  11.2374276  25.2300513  83.8809654  12.0051992
  24.3078272  83.4820603  10.8728313  16.5836958  71.5998517   5.5499903
  16.8443776  72.5143850   5.4409063  17.4054131  71.1322960   5.6996515
  18.0561884  73.0136274  12.7198727  18.7284937  72.8053636  12.0711376
  17.2291670  72.8158360  12.2803959  32.3051145  79.7540325  12.2374061
  32.4987035  80.6586135  12.4833336  32.2051763  79.2947744  13.0712646
  23.9587456  69.6398215  14.7364388  23.3115371  70.3388165  14.6428864
  24.7288471  70.0734359  15.1040636  27.3666254  79.9047067  17.8114941
  27.2151760  79.6757619  16.8945025  27.3570933  80.8617669  17.8246286
  24.1351590  77.4778980  12.7961208  25.0643650  77.6290140  12.6230175
  23.7142620  77.5663001  11.9409854  22.9339922  81.5029644  10.5659745
  22.7951008  81.1348429  11.4385684  22.1454518  82.0177284  10.3943703
  24.4845137  80.8811247   7.9548583  24.1494970  80.8412017   8.8506233
  23.9849083  80.2155963   7.4818993  18.4589381  76.2878877  13.4801164
  18.3209179  75.5559116  14.0812703  19.3694304  76.1987777  13.1985352
  21.0871682  75.9998837  12.9684844  21.7971300  75.3592029  12.9271462
  21.0440990  76.2511731  13.8911025  29.0758460  82.9366190  15.8891423
  29.0171006  82.2525410  15.2222006  29.4777979  83.6785180  15.4372049
  19.8000616  72.9864054  14.7880483  19.2637973  72.5354793  15.4402080
  19.2117324  73.1209963  14.0450948  29.0775868  80.9005774  14.1205403
  28.1902646  80.5631696  14.2431802  29.6474419  80.1688805  14.3574168
  15.5339737  72.1220062  11.8733478  15.4497926  71.5145732  11.1383888
  14.7122443  72.6129080  11.8742974  22.6077021  85.5607226  11.0866646
  22.5347192  86.3662198  11.5985951  22.1654414  85.7599192  10.2614667
  25.7063451  70.6073626   7.2403673  26.2032150  69.8543588   6.9204743
  24.9350432  70.6437942   6.6746882  33.5593208  76.3113991   8.8821965
  33.5483084  77.1938707   8.5115898  32.6910588  75.9585542   8.6876502
  25.0675704  85.4594060  13.2424805  25.7803677  86.0941525  13.1700706
  24.5765733  85.5557926  12.4264807  26.7893231  79.3645313   4.8142096
  25.8549510  79.4846775   4.6446801  26.9669900  78.4617780   4.5502106
  22.2898419  72.7491009   6.9675358  21.9196207  72.1962049   7.6556263
  22.7857512  72.1449142   6.4150358  30.1765783  75.2062632   5.3492131
  30.6426235  76.0390624   5.2752433  30.6273283  74.7407614   6.0537389
  20.1187618  83.2088504  14.0630376  20.8197078  83.8424987  14.2159770
  19.6482733  83.5503235  13.3026015  28.2442014  81.5506453   2.3478283
  28.5201858  81.4363048   3.2572157  27.3746513  81.1523938   2.3090456
  28.1482446  67.5743219   9.3883032  27.2345525  67.8047446   9.5565239
  28.5775547  67.6581663  10.2397064  27.9188904  75.7633111  11.8882926
  27.2660354  76.0109019  11.2335379  28.2969284  74.9497249  11.5545403
  24.8796078  85.7992804   5.9911096  25.0618472  84.9814460   6.4538849
  25.7029064  86.0160497   5.5535986  23.9676477  76.5052922  18.3748963
  23.2917114  76.4047051  19.0451338  24.7904111  76.3492136  18.8384960
  22.7099260  87.8119850  12.6106579  23.2617568  87.9751471  13.3755664
  23.0505453  88.4024287  11.9386604  17.6863753  70.1594999  13.2128464
  17.7505080  71.0209830  12.8005861  17.6230873  69.5469001  12.4800822
  17.1616026  72.2318132  16.8601498  17.7888064  71.8495209  17.4739022
  16.3043945  72.0132334  17.2257190  27.5610134  82.6381107  18.4655233
  28.1050038  83.2511065  17.9710188  26.9796979  83.1960686  18.9822246
  25.8467647  85.7601825   9.5970261  25.7218787  84.9591565   9.0881207
  26.5046738  86.2548018   9.1084231  17.4675815  72.1150558   8.7747401
  16.7462401  72.7286525   8.6354875  18.2569071  72.6508322   8.6964047
  27.9102556  83.5610845  11.2249811  26.9632891  83.4416196  11.1528138
  28.2585329  82.6733343  11.3076073  20.2702129  69.4504984  15.0488053
  20.7936531  69.6967281  15.8114362  20.0514462  70.2825019  14.6291190
  24.9148989  83.3563561   7.4254163  24.7673951  82.4280269   7.6061734
  25.7402482  83.3783652   6.9411239  28.5183111  84.1792120   8.5119036
  29.4429658  83.9734981   8.3743487  28.3498414  83.9308521   9.4208378
  21.4754674  70.3918679  12.7337724  21.1351494  69.5926492  13.1358404
  20.7693680  70.6920390  12.1614557  22.1271146  67.4767992  11.1865047
  22.9497215  67.0028470  11.0643937  22.3709209  68.2558475  11.6863733
  20.7679380  70.5056250   1.4827948  21.4887743  70.8837503   0.9791665
  20.1444684  71.2245127   1.5862926  24.9110503  71.2101399   2.4186281
  25.1274118  72.0926037   2.1175109  24.4304570  70.8187612   1.6891923
  19.6509725  74.1687112   8.9957025  19.5054305  74.4827415   9.8881307
  19.1734928  74.7872013   8.4427924  21.5106107  71.1589660   9.0437915
  21.4967676  70.2630754   8.7070213  22.2278536  71.1660324   9.6776201
  23.3632238  71.5927000  11.0891042  23.1050016  72.5144071  11.0875373
  22.8317279  71.1957435  11.7791506  28.3078427  84.6977788   3.8681128
  28.4815304  84.1324210   3.1154980  28.8007318  85.4978682   3.6860618
  14.1255387  76.7092457  11.9344686  13.5808855  77.4852265  12.0664961
  15.0034737  77.0563261  11.7763808  20.9143003  70.0404041   4.3125485
  21.0358915  69.1120687   4.5116372  20.6245046  70.0542727   3.4003800
  23.7834194  67.7258951   7.4492205  23.8055891  67.7898284   6.4944184
  24.2002253  66.8863460   7.6432711  34.1617818  77.4614211   5.4871427
  34.6048964  76.7121536   5.0890551  33.2844328  77.4524347   5.1045159
  14.9121409  75.8362353  14.8274843  14.1703145  75.9844988  15.4139474
  14.5914153  76.0970619  13.9641593  31.1945023  81.4644258   2.4965357
  31.7196347  81.8031530   1.7714677  31.1067375  80.5291273   2.3128491
  22.8565071  85.3778331  14.6255233  23.1652198  85.1327478  15.4977933
  23.6540553  85.5824970  14.1374104  20.3259555  83.0754250   8.9282912
  19.7039565  82.4124955   8.6285139  20.9964422  83.1015382   8.2456559
  20.3984083  71.5536038  18.5215418  20.4472238  72.4298161  18.1393187
  20.9406597  71.0113431  17.9487061  30.8838929  82.0977161  17.8016555
  30.0934472  82.0801300  17.2621054  30.6472283  82.6365455  18.5565591
  31.0036804  78.9469628  15.1149283  31.0534809  78.7819635  16.0564806
  30.8950727  78.0796887  14.7247164  28.2940566  74.9300556  16.4308590
  29.1950429  74.7907020  16.1392588  28.3688541  75.0955010  17.3706767
  22.6283371  72.3067410  15.2761776  21.7586681  72.6000976  15.0044365
  22.8642852  72.8907855  15.9969040  32.5055000  81.3666569  15.3591305
  32.2139809  81.7296550  16.1954766  31.8927132  80.6533577  15.1804637
  33.7050683  78.9319449   7.8793875  34.5397574  79.3709253   8.0431435
  33.8409812  78.4558102   7.0602121  30.7542189  76.4899184  13.8271363
  31.2296310  76.6826830  13.0190214  29.8307754  76.5458370  13.5814746
  25.3322405  68.5247027  12.7927197  25.8504349  69.2608054  12.4673685
  24.9777538  68.8311021  13.6273956  25.5834999  64.9447310   8.3128093
  25.8636753  64.2770499   8.9388520  26.3685606  65.1376405   7.8002757
  29.4543858  73.3664944  12.0599668  30.4061281  73.4663041  12.0811892
  29.2847308  72.5743212  12.5697753  27.4758237  70.4520527  12.2459069
  26.8808169  70.7325540  11.5505558  27.1907934  70.9414428  13.0175810
  31.9331935  76.5871063  11.1741968  31.9008256  75.6487064  11.3601652
  32.5432559  76.6655100  10.4407793  32.0826424  73.3782107  11.2200251
  31.5665473  72.5940564  11.0330180  32.9666373  73.0500824  11.3846771
  29.7437151  67.1223122   7.1796064  29.5461972  66.8138211   8.0639396
  30.3536856  67.8484761   7.3093994  37.7508485  77.6487070  10.3148005
  38.4811874  77.3872358  10.8755708  37.1415431  76.9115792  10.3550073
  35.8323782  75.7894933  10.9122456  35.1056946  75.6550898  10.3038948
  35.4171069  76.0971762  11.7179174  23.6553959  79.5084863  18.6769829
  24.5756968  79.6863462  18.8709876  23.6203542  78.5640908  18.5249528
  16.6516031  77.4185897  11.3192610  16.8702041  78.3503005  11.3380644
  17.0641805  77.0593872  12.1047414  23.5720249  67.9253983   3.3068299
  22.7620978  67.5801068   3.6823545  24.2604666  67.6161526   3.8955910
  25.5010798  67.0032029   4.9292595  26.0541836  67.4227483   5.5882618
  25.7380884  66.0767777   4.9715551  21.5243897  72.9919103  20.7095359
  21.4240624  73.9413460  20.6407450  21.3065439  72.6637342  19.8371429
  28.8789605  69.1132555   4.4371259  28.2988274  69.7717359   4.0549312
  28.6125537  68.2909899   4.0258677  27.3293171  68.5137612   6.6392580
  27.8292949  68.6254147   5.8306899  27.9728779  68.2098665   7.2793388
  21.3875167  76.4216242  19.5260421  20.9042249  77.2216602  19.7324310
  21.4736106  76.4324187  18.5727865  17.3148504  80.3120777  11.5628855
  18.2691758  80.2804719  11.4958786  17.1161028  79.8511400  12.3779080
  17.9047886  78.8821893  14.1299652  18.7240775  79.3765971  14.1534489
  18.1784694  77.9653861  14.1017220  27.6614483  71.2732645   3.4927608
  26.7740338  71.5582296   3.2747802  28.0768472  71.1126408   2.6454885
  31.0129019  71.2979166   7.2081947  31.7889409  71.7875618   7.4806564
  30.2877153  71.7237220   7.6653816  33.4501577  72.0106785   8.2655888
  34.0446068  71.7702521   7.5549196  33.5228161  71.2913916   8.8929424
  27.6355506  76.7887181   3.7077898  27.5790708  77.2455732   2.8685530
  28.1883849  76.0277865   3.5300741  31.4460312  72.5776913   4.5328017
  31.1897247  72.1773548   5.3636225  30.8213180  73.2920707   4.4078157
  35.7572650  75.3172986   7.0399309  35.1972208  75.3866175   7.8130871
  35.1516154  75.1413971   6.3198805  28.3690286  77.9791962   1.0030427
  28.3139089  77.8136234   0.0618871  27.7436341  78.6867995   1.1592617
  13.1582801  73.2160026  14.8291849  13.8041664  72.7058980  15.3179074
  12.9499952  73.9528708  15.4035275  25.6836193  80.2840874  20.3283990
  26.5527352  80.4581526  19.9670625  25.2042944  81.1035291  20.2059719
  21.6786411  67.4800071   0.5815745  21.6665081  68.4241911   0.7384016
  22.5709833  67.2970216   0.2875207  19.8522373  87.4037975  12.0073423
  20.7549620  87.4361585  12.3239918  19.6259743  86.4738426  12.0219759
  25.4938531  64.0742848   4.8361682  24.7270926  63.5201334   4.9818365
  25.9049236  64.1464716   5.6975834  17.4980292  70.3627644  18.9266864
  18.3611753  70.0064448  19.1370188  16.9245702  70.0241538  19.6142268
  37.3428669  91.9929500   9.7329265  37.9807079  91.8736247   9.0292605
  37.2249511  92.9410344   9.7917217  34.1518375  91.9456928   9.6690789
  33.8136886  91.8297993   8.7811324  35.0208143  91.5448093   9.6491795
  34.6338158  93.0991780  15.6276995  34.6226799  92.7044578  14.7557498
  34.7958797  92.3657852  16.2210766  31.3545419  95.8828892  14.5756179
  31.0635285  96.7874522  14.4602845  31.9902403  95.9245419  15.2900248
  32.2801626  93.2605740  11.1657538  32.8765198  93.0361762  10.4514501
  32.3376597  92.5190486  11.7682986  36.8969937  89.7180954   6.8082473
  37.6833026  89.3000377   6.4572890  37.1608641  90.6227046   6.9764121
  42.2978364  89.6556187   7.7115451  43.0303536  89.0855404   7.9453281
  41.5417720  89.2677787   8.1521957  33.9154484  92.0783428   4.9078794
  33.5512691  91.5514049   5.6191715  34.7721600  91.6881897   4.7345279
  39.8203785  83.3677761  12.1710060  39.4887109  84.2373172  11.9471275
  39.2249398  83.0514045  12.8504090  36.3135304  95.5690307  11.5705972
  36.0136027  96.4715346  11.4621780  35.9686364  95.3022490  12.4227125
  29.7647786  92.0204104   7.6042677  28.8398282  91.8880318   7.8120369
  30.0132199  92.7998323   8.1012619  39.7132448  88.0872847   9.2503410
  38.8049325  88.0188256   8.9562171  39.6620044  88.5644792  10.0785235
  33.7873314  89.5062493  17.1938307  33.0106648  90.0656413  17.1841172
  34.4263877  89.9919276  17.7153177  41.5794094  86.2889286  11.0281284
  40.9368475  86.5821819  10.3821078  41.0749023  86.1742206  11.8334480
  39.2334258  90.0352459   1.7167143  40.1452114  90.2679846   1.5414840
  38.7243905  90.6189503   1.1542222  32.0419686  92.3147946  16.7556274
  32.7834370  92.8532990  16.4791098  31.3356671  92.9414235  16.9127826
  37.5175026  94.4577087  15.3528435  37.9258382  94.0159497  14.6083068
  36.7952287  93.8829714  15.6062628  33.8706096  89.3949693  12.7261992
  34.7167291  89.8189107  12.8696641  33.8104733  88.7383318  13.4200556
  37.8403840  95.0178277   9.1080724  37.2112703  95.1823991   8.4056792
  37.4529502  95.4319887   9.8791688  41.7193072  95.9532715   6.4625088
  41.0344110  96.3331616   5.9122121  41.8036921  96.5628042   7.1957036
  37.0205541  87.0554062  14.3843166  36.7766473  87.8096122  13.8477442
  37.2965471  87.4339409  15.2190413  38.9744004  93.5992674  13.0620432
  39.1860899  94.2424434  12.3854813  38.9273752  92.7654991  12.5942362
  36.5770233  86.2110495   9.9657004  35.7154712  86.5091748  10.2573741
  36.6032667  86.4280894   9.0338036  33.3931802  94.7552685   6.3730809
  33.8570148  95.0340388   5.5835432  33.1288600  93.8536130   6.1903900
  30.2855883  94.3024167   9.3110573  30.8557240  94.7311435   8.6728057
  30.8763995  94.0206752  10.0094758  32.3300688  90.8775838   3.1820375
  33.0324732  91.3296881   3.6494301  31.9981317  90.2359657   3.8100268
  30.7781050  89.4687594  17.5571584  30.1479710  90.1503875  17.7906981
  30.6717138  89.3570676  16.6124722  26.0726022  89.1359390   8.4837508
  25.2825076  89.3916919   8.0077619  26.5637270  89.9507728   8.5889549
  40.0889832  96.4764630  11.2342789  40.9107275  96.0744817  10.9525471
  40.0852235  96.3732864  12.1858905  33.8546435  96.0248673  13.3903499
  33.9190868  96.4869080  14.2261671  33.1457359  95.3946038  13.5185809
  24.3563725  89.3889881  10.9152499  24.6071764  90.2736891  11.1810075
  24.8923274  89.2094482  10.1427591  48.1795825  92.8203378   7.5827760
  47.4259533  92.2510776   7.4271765  48.3143366  92.7866043   8.5298395
  30.0561792  83.7708360  19.9196835  29.6628738  83.2174559  20.5944479
  30.8727933  84.0818939  20.3103353  32.9729753  85.1866239  17.5117092
  33.7139467  85.7873392  17.4321554  33.2047676  84.4443877  16.9535134
  28.1171091  90.3722607  15.7895321  28.0024607  89.4707864  16.0902420
  27.2615609  90.6186303  15.4380138  35.1962929  98.3140347  17.3882822
  34.7526783  97.5276725  17.0703726  35.8580143  98.5019497  16.7226713
  29.9550050  99.8436148  11.9143500  30.5057475  99.7153212  11.1420494
  29.1161526 100.1431037  11.5638393  37.2944167  98.5943147  15.4164223
  37.2762643  99.4152028  14.9244492  38.2164087  98.4697222  15.6414364
  33.7517221  96.1087276  16.2587732  34.2845558  95.3475564  16.0287040
  33.2231303  95.8160928  17.0011886  36.9186916  81.2147342  11.7881373
  36.5751186  82.1048984  11.7120484  37.2865879  81.0249000  10.9250958
  36.8837199  91.2055953   0.2953808  36.3683823  91.9760558   0.5342196
  36.6114508  90.5321089   0.9186870  34.4684310  86.0505654   5.3539047
  33.6125906  85.6612504   5.1744685  34.8811262  86.1297615   4.4938832
  35.9983457  83.5851997   9.7530607  35.4948252  83.5482133   8.9398412
  36.2914064  84.4944740   9.8127263  32.2426343  83.6690727   8.7596788
  33.1079339  83.4733536   8.4002678  32.3103852  83.4401079   9.6866145
  41.8571473  93.9588308   2.2306982  41.0800916  93.6199467   1.7862144
  42.5362954  93.9640931   1.5561947  36.6723502  89.0783045   2.1213590
  36.3673638  89.3929195   2.9723733  37.6253944  89.1564465   2.1640923
  40.0962780  93.4322289   8.8873590  39.4386455  94.1221551   8.9753718
  40.9003179  93.8218721   9.2307576  29.8488662  85.8992935   6.1313155
  30.4232414  85.6768117   5.3986348  30.4359644  85.9681630   6.8841756
  38.9068239  91.7866662   6.9377532  39.4200121  92.4196654   7.4399241
  39.5569463  91.1867857   6.5720892  32.1511329  82.7734184   4.8588225
  31.4975742  82.4583201   4.2344839  32.1091804  82.1509924   5.5848047
  35.3849070  89.2616117   9.1835872  34.4671631  89.4831064   9.0257560
  35.8009213  89.3362428   8.3247579  36.1684118  90.6607533   4.3138552
  36.9155936  91.1728930   4.0045674  36.4375707  90.3391586   5.1742946
  39.6730035  96.7672663   5.0656674  39.2192362  95.9263573   5.1221865
  39.0424002  97.4034062   5.4031454  38.6162955  87.6964649   6.2957342
  37.8785712  87.1842036   6.6267584  38.8689728  87.2565031   5.4840619
  38.1162974  98.6049160   6.0006492  38.4085949  99.1654217   5.2818858
  38.6261595  98.8977721   6.7559651  38.7174582  80.4740901   6.8899111
  39.0233459  79.6138265   6.6025026  39.4427187  81.0658522   6.6898105
  32.9895662  90.7694694   7.3975302  33.0444272  89.8168531   7.3217779
  32.1786864  90.9254134   7.8816600  30.9288022  89.3871754   5.1565681
  30.1155887  89.6865925   5.5630873  31.4247016  88.9927443   5.8740163
  36.5262233  89.8513579  13.9880575  36.8811621  90.0785052  14.8475041
  37.1734365  90.1831955  13.3657830  42.2559970  92.9732015   4.6929904
  42.1177869  93.1633611   3.7651093  41.8996189  93.7351397   5.1497955
  30.4202096  86.9590110  10.7726916  31.0601476  86.8178869  10.0749879
  29.5879627  86.6724623  10.3965518  42.2829350  95.0408542   9.7041175
  42.7165857  94.9483831  10.5524229  42.9960931  95.0166042   9.0661191
  36.0157245  98.6410636  11.2374276  36.0694267  99.2101572  12.0051992
  35.1472026  98.8112521  10.8728313  27.4230713  86.9290435   5.5499903
  27.6837530  87.8435768   5.4409063  28.2447885  86.4614877   5.6996515
  28.8955638  88.3428192  12.7198727  29.5678692  88.1345554  12.0711376
  28.0685425  88.1450278  12.2803959  43.1444899  95.0832242  12.2374061
  43.3380790  95.9878053  12.4833336  43.0445518  94.6239661  13.0712646
  34.7981210  84.9690133  14.7364388  34.1509125  85.6680082  14.6428864
  35.5682226  85.4026277  15.1040636  38.2060008  95.2338985  17.8114941
  38.0545515  95.0049537  16.8945025  38.1964688  96.1909586  17.8246286
  34.9745345  92.8070898  12.7961208  35.9037405  92.9582057  12.6230175
  34.5536375  92.8954919  11.9409854  33.7733676  96.8321562  10.5659745
  33.6344762  96.4640347  11.4385684  32.9848273  97.3469202  10.3943703
  35.3238891  96.2103165   7.9548583  34.9888724  96.1703935   8.8506233
  34.8242837  95.5447881   7.4818993  29.2983135  91.6170795  13.4801164
  29.1602933  90.8851034  14.0812703  30.2088059  91.5279695  13.1985352
  31.9265436  91.3290754  12.9684844  32.6365055  90.6883946  12.9271462
  31.8834744  91.5803649  13.8911025  39.9152215  98.2658108  15.8891423
  39.8564761  97.5817328  15.2222006  40.3171733  99.0077098  15.4372049
  30.6394370  88.3155972  14.7880483  30.1031727  87.8646711  15.4402080
  30.0511079  88.4501881  14.0450948  39.9169622  96.2297691  14.1205403
  39.0296401  95.8923613  14.2431802  40.4868173  95.4980723  14.3574168
  26.3733491  87.4511980  11.8733478  26.2891680  86.8437649  11.1383888
  25.5516198  87.9420998  11.8742974  33.4470775 100.8899144  11.0866646
  33.3740947 101.6954115  11.5985951  33.0048169 101.0891110  10.2614667
  36.5457205  85.9365543   7.2403673  37.0425905  85.1835506   6.9204743
  35.7744187  85.9729860   6.6746882  44.3986963  91.6405909   8.8821965
  44.3876839  92.5230624   8.5115898  43.5304342  91.2877460   8.6876502
  35.9069459 100.7885978  13.2424805  36.6197431 101.4233443  13.1700706
  35.4159488 100.8849844  12.4264807  37.6286986  94.6937231   4.8142096
  36.6943265  94.8138693   4.6446801  37.8063654  93.7909697   4.5502106
  33.1292174  88.0782926   6.9675358  32.7589961  87.5253967   7.6556263
  33.6251266  87.4741060   6.4150358  41.0159537  90.5354550   5.3492131
  41.4819989  91.3682541   5.2752433  41.4667038  90.0699531   6.0537389
  30.9581373  98.5380421  14.0630376  31.6590832  99.1716904  14.2159770
  30.4876488  98.8795153  13.3026015  39.0835768  96.8798371   2.3478283
  39.3595612  96.7654966   3.2572157  38.2140267  96.4815856   2.3090456
  38.9876200  82.9035137   9.3883032  38.0739280  83.1339364   9.5565239
  39.4169301  82.9873581  10.2397064  38.7582658  91.0925029  11.8882926
  38.1054109  91.3400936  11.2335379  39.1363038  90.2789167  11.5545403
  35.7189832 101.1284722   5.9911096  35.9012227 100.3106378   6.4538849
  36.5422818 101.3452414   5.5535986  34.8070232  91.8344840  18.3748963
  34.1310869  91.7338969  19.0451338  35.6297865  91.6784054  18.8384960
  33.5493014 103.1411767  12.6106579  34.1011322 103.3043389  13.3755664
  33.8899208 103.7316205  11.9386604  28.5257508  85.4886917  13.2128464
  28.5898834  86.3501748  12.8005861  28.4624628  84.8760919  12.4800822
  28.0009780  87.5610050  16.8601498  28.6281819  87.1787127  17.4739022
  27.1437699  87.3424252  17.2257190  38.4003889  97.9673025  18.4655233
  38.9443793  98.5802983  17.9710188  37.8190734  98.5252603  18.9822246
  36.6861402 101.0893743   9.5970261  36.5612541 100.2883483   9.0881207
  37.3440493 101.5839936   9.1084231  28.3069570  87.4442475   8.7747401
  27.5856156  88.0578443   8.6354875  29.0962826  87.9800240   8.6964047
  38.7496310  98.8902763  11.2249811  37.8026646  98.7708114  11.1528138
  39.0979083  98.0025261  11.3076073  31.1095883  84.7796902  15.0488053
  31.6330285  85.0259198  15.8114362  30.8908217  85.6116937  14.6291190
  35.7542743  98.6855479   7.4254163  35.6067706  97.7572187   7.6061734
  36.5796237  98.7075570   6.9411239  39.3576865  99.5084038   8.5119036
  40.2823413  99.3026899   8.3743487  39.1892169  99.2600439   9.4208378
  32.3148428  85.7210597  12.7337724  31.9745249  84.9218410  13.1358404
  31.6087435  86.0212308  12.1614557  32.9664900  82.8059909  11.1865047
  33.7890970  82.3320388  11.0643937  33.2102964  83.5850393  11.6863733
  31.6073135  85.8348168   1.4827948  32.3281497  86.2129421   0.9791665
  30.9838439  86.5537045   1.5862926  35.7504258  86.5393317   2.4186281
  35.9667872  87.4217955   2.1175109  35.2698325  86.1479530   1.6891923
  30.4903479  89.4979030   8.9957025  30.3448060  89.8119333   9.8881307
  30.0128683  90.1163930   8.4427924  32.3499862  86.4881578   9.0437915
  32.3361431  85.5922671   8.7070213  33.0672290  86.4952242   9.6776201
  34.2025993  86.9218918  11.0891042  33.9443770  87.8435989  11.0875373
  33.6711033  86.5249353  11.7791506  39.1472181 100.0269705   3.8681128
  39.3209059  99.4616128   3.1154980  39.6401073 100.8270600   3.6860618
  24.9649141  92.0384374  11.9344686  24.4202609  92.8144182  12.0664961
  25.8428491  92.3855179  11.7763808  31.7536758  85.3695958   4.3125485
  31.8752669  84.4412604   4.5116372  31.4638800  85.3834644   3.4003800
  34.6227948  83.0550869   7.4492205  34.6449645  83.1190202   6.4944184
  35.0396007  82.2155377   7.6432711  45.0011573  92.7906128   5.4871427
  45.4442719  92.0413453   5.0890551  44.1238083  92.7816265   5.1045159
  25.7515163  91.1654271  14.8274843  25.0096899  91.3136906  15.4139474
  25.4307907  91.4262536  13.9641593  42.0338777  96.7936175   2.4965357
  42.5590101  97.1323448   1.7714677  41.9461130  95.8583191   2.3128491
  33.6958826 100.7070249  14.6255233  34.0045952 100.4619396  15.4977933
  34.4934308 100.9116887  14.1374104  31.1653310  98.4046168   8.9282912
  30.5433319  97.7416873   8.6285139  31.8358177  98.4307299   8.2456559
  31.2377837  86.8827956  18.5215418  31.2865993  87.7590078  18.1393187
  31.7800352  86.3405349  17.9487061  41.7232683  97.4269079  17.8016555
  40.9328227  97.4093218  17.2621054  41.4866038  97.9657373  18.5565591
  41.8430558  94.2761545  15.1149283  41.8928563  94.1111553  16.0564806
  41.7344481  93.4088804  14.7247164  39.1334321  90.2592473  16.4308590
  40.0344183  90.1198938  16.1392588  39.2082295  90.4246928  17.3706767
  33.4677126  87.6359328  15.2761776  32.5980435  87.9292894  15.0044365
  33.7036606  88.2199773  15.9969040  43.3448755  96.6958487  15.3591305
  43.0533563  97.0588467  16.1954766  42.7320886  95.9825495  15.1804637
  44.5444437  94.2611367   7.8793875  45.3791329  94.7001171   8.0431435
  44.6803566  93.7850020   7.0602121  41.5935943  91.8191101  13.8271363
  42.0690065  92.0118748  13.0190214  40.6701509  91.8750287  13.5814746
  36.1716160  83.8538945  12.7927197  36.6898104  84.5899972  12.4673685
  35.8171292  84.1602938  13.6273956  36.4228754  80.2739227   8.3128093
  36.7030508  79.6062417   8.9388520  37.2079361  80.4668323   7.8002757
  40.2937612  88.6956861  12.0599668  41.2455035  88.7954959  12.0811892
  40.1241063  87.9035130  12.5697753  38.3151992  85.7812445  12.2459069
  37.7201924  86.0617457  11.5505558  38.0301688  86.2706346  13.0175810
  42.7725690  91.9162981  11.1741968  42.7402010  90.9778982  11.3601652
  43.3826314  91.9947018  10.4407793  42.9220178  88.7074025  11.2200251
  42.4059227  87.9232481  11.0330180  43.8060127  88.3792741  11.3846771
  40.5830905  82.4515040   7.1796064  40.3855727  82.1430128   8.0639396
  41.1930611  83.1776679   7.3093994  48.5902240  92.9778988  10.3148005
  49.3205628  92.7164276  10.8755708  47.9809185  92.2407710  10.3550073
  46.6717537  91.1186851  10.9122456  45.9450701  90.9842816  10.3038948
  46.2564824  91.4263679  11.7179174  34.4947713  94.8376780  18.6769829
  35.4150723  95.0155379  18.8709876  34.4597296  93.8932826  18.5249528
  27.4909786  92.7477815  11.3192610  27.7095796  93.6794923  11.3380644
  27.9035560  92.3885789  12.1047414  34.4114004  83.2545900   3.3068299
  33.6014732  82.9092985   3.6823545  35.0998421  82.9453444   3.8955910
  36.3404552  82.3323947   4.9292595  36.8935591  82.7519400   5.5882618
  36.5774638  81.4059695   4.9715551  32.3637651  88.3211021  20.7095359
  32.2634378  89.2705378  20.6407450  32.1459193  87.9929260  19.8371429
  39.7183359  84.4424472   4.4371259  39.1382028  85.1009276   4.0549312
  39.4519292  83.6201817   4.0258677  38.1686925  83.8429530   6.6392580
  38.6686704  83.9546064   5.8306899  38.8122533  83.5390583   7.2793388
  32.2268921  91.7508160  19.5260421  31.7436003  92.5508520  19.7324310
  32.3129860  91.7616104  18.5727865  28.1542259  95.6412694  11.5628855
  29.1085512  95.6096637  11.4958786  27.9554782  95.1803318  12.3779080
  28.7441641  94.2113810  14.1299652  29.5634530  94.7057889  14.1534489
  29.0178449  93.2945778  14.1017220  38.5008237  86.6024563   3.4927608
  37.6134092  86.8874213   3.2747802  38.9162226  86.4418326   2.6454885
  41.8522773  86.6271084   7.2081947  42.6283163  87.1167536   7.4806564
  41.1270907  87.0529138   7.6653816  44.2895332  87.3398703   8.2655888
  44.8839823  87.0994439   7.5549196  44.3621916  86.6205833   8.8929424
  38.4749261  92.1179099   3.7077898  38.4184462  92.5747650   2.8685530
  39.0277603  91.3569783   3.5300741  42.2854067  87.9068830   4.5328017
  42.0291001  87.5065466   5.3636225  41.6606935  88.6212624   4.4078157
  46.5966405  90.6464904   7.0399309  46.0365963  90.7158093   7.8130871
  45.9909908  90.4705888   6.3198805  39.2084040  93.3083880   1.0030427
  39.1532844  93.1428151   0.0618871  38.5830095  94.0159913   1.1592617
  23.9976555  88.5451944  14.8291849  24.6435419  88.0350898  15.3179074
  23.7893706  89.2820626  15.4035275  36.5229947  95.6132792  20.3283990
  37.3921107  95.7873444  19.9670625  36.0436699  96.4327208  20.2059719
  32.5180166  82.8091989   0.5815745  32.5058835  83.7533829   0.7384016
  33.4103587  82.6262134   0.2875207  30.6916128 102.7329893  12.0073423
  31.5943374 102.7653503  12.3239918  30.4653498 101.8030344  12.0219759
  36.3332285  79.4034765   4.8361682  35.5664681  78.8493252   4.9818365
  36.7442990  79.4756634   5.6975834  28.3374046  85.6919561  18.9266864
  29.2005508  85.3356366  19.1370188  27.7639457  85.3533456  19.6142268
  48.1822423 107.3221418   9.7329265  48.8200833 107.2028165   9.0292605
  48.0643266 108.2702262   9.7917217  44.9912129 107.2748846   9.6690789
  44.6530641 107.1589910   8.7811324  45.8601898 106.8740011   9.6491795
  45.4731912 108.4283697  15.6276995  45.4620553 108.0336496  14.7557498
  45.6352552 107.6949770  16.2210766  42.1939173 111.2120809  14.5756179
  41.9029039 112.1166440  14.4602845  42.8296158 111.2537337  15.2900248
  43.1195380 108.5897658  11.1657538  43.7158953 108.3653680  10.4514501
  43.1770352 107.8482403  11.7682986  47.7363692 105.0472871   6.8082473
  48.5226781 104.6292295   6.4572890  48.0002396 105.9518964   6.9764121
  50.6597539  98.6969679  12.1710060  50.3280864  99.5665090  11.9471275
  50.0643152  98.3805963  12.8504090  47.1529059 110.8982225  11.5705972
  46.8529782 111.8007264  11.4621780  46.8080118 110.6314408  12.4227125
  40.6041540 107.3496022   7.6042677  39.6792037 107.2172236   7.8120369
  40.8525953 108.1290241   8.1012619  50.5526202 103.4164765   9.2503410
  49.6443080 103.3480173   8.9562171  50.5013798 103.8936710  10.0785235
  44.6267068 104.8354410  17.1938307  43.8500402 105.3948331  17.1841172
  45.2657631 105.3211193  17.7153177  52.4187849 101.6181203  11.0281284
  51.7762229 101.9113736  10.3821078  51.9142777 101.5034124  11.8334480
  42.8813440 107.6439864  16.7556274  43.6228125 108.1824908  16.4791098
  42.1750426 108.2706153  16.9127826  48.3568780 109.7869004  15.3528435
  48.7652136 109.3451415  14.6083068  47.6346042 109.2121632  15.6062628
  44.7099850 104.7241611  12.7261992  45.5561045 105.1481025  12.8696641
  44.6498488 104.0675235  13.4200556  47.8599295 102.3845979  14.3843166
  47.6160227 103.1388040  13.8477442  48.1359226 102.7631327  15.2190413
  49.8137758 108.9284592  13.0620432  50.0254653 109.5716352  12.3854813
  49.7667506 108.0946908  12.5942362  47.4163987 101.5402412   9.9657004
  46.5548466 101.8383666  10.2573741  47.4426422 101.7572811   9.0338036
  41.1249638 109.6316085   9.3110573  41.6950995 110.0603353   8.6728057
  41.7157750 109.3498669  10.0094758  41.6174804 104.7979512  17.5571584
  40.9873465 105.4795793  17.7906981  41.5110892 104.6862594  16.6124722
  36.9119777 104.4651308   8.4837508  36.1218831 104.7208837   8.0077619
  37.4031024 105.2799646   8.5889549  44.6940190 111.3540591  13.3903499
  44.7584622 111.8160998  14.2261671  43.9851114 110.7237955  13.5185809
  35.1957480 104.7181798  10.9152499  35.4465518 105.6028808  11.1810075
  35.7317028 104.5386400  10.1427591  40.8955547  99.1000278  19.9196835
  40.5022492  98.5466476  20.5944479  41.7121687  99.4110856  20.3103353
  43.8123508 100.5158157  17.5117092  44.5533221 101.1165310  17.4321554
  44.0441431  99.7735795  16.9535134  38.9564846 105.7014524  15.7895321
  38.8418361 104.7999781  16.0902420  38.1009364 105.9478221  15.4380138
  46.0356684 113.6432265  17.3882822  45.5920538 112.8568643  17.0703726
  46.6973897 113.8311415  16.7226713  40.7943805 115.1728066  11.9143500
  41.3451230 115.0445129  11.1420494  39.9555281 115.4722955  11.5638393
  48.1337922 113.9235064  15.4164223  48.1156397 114.7443945  14.9244492
  49.0557842 113.7989140  15.6414364  44.5910976 111.4379194  16.2587732
  45.1239313 110.6767482  16.0287040  44.0625057 111.1452846  17.0011886
  47.7580671  96.5439260  11.7881373  47.4144940  97.4340902  11.7120484
  48.1259633  96.3540918  10.9250958  45.3078065 101.3797572   5.3539047
  44.4519661 100.9904422   5.1744685  45.7205016 101.4589533   4.4938832
  46.8377211  98.9143915   9.7530607  46.3342007  98.8774050   8.9398412
  47.1307818  99.8236658   9.8127263  43.0820097  98.9982645   8.7596788
  43.9473094  98.8025453   8.4002678  43.1497606  98.7692997   9.6866145
  40.6882416 101.2284853   6.1313155  41.2626168 101.0060034   5.3986348
  41.2753399 101.2973547   6.8841756  42.9905084  98.1026102   4.8588225
  42.3369496  97.7875119   4.2344839  42.9485558  97.4801842   5.5848047
  46.2242824 104.5908035   9.1835872  45.3065386 104.8122982   9.0257560
  46.6402968 104.6654346   8.3247579  49.5568337  95.8032819   6.8899111
  49.8627213  94.9430183   6.6025026  50.2820941  96.3950439   6.6898105
  43.8289416 106.0986612   7.3975302  43.8838026 105.1460449   7.3217779
  43.0180618 106.2546051   7.8816600  41.7681776 104.7163672   5.1565681
  40.9549642 105.0157842   5.5630873  42.2640770 104.3219361   5.8740163
  47.3655988 105.1805496  13.9880575  47.7205376 105.4076969  14.8475041
  48.0128119 105.5123873  13.3657830  41.2595851 102.2882027  10.7726916
  41.8995230 102.1470787  10.0749879  40.4273381 102.0016541  10.3965518
  46.8550999 113.9702553  11.2374276  46.9088022 114.5393490  12.0051992
  45.9865781 114.1404438  10.8728313  38.2624467 102.2582352   5.5499903
  38.5231285 103.1727686   5.4409063  39.0841640 101.7906795   5.6996515
  39.7349393 103.6720110  12.7198727  40.4072446 103.4637472  12.0711376
  38.9079179 103.4742196  12.2803959  45.6374965 100.2982050  14.7364388
  44.9902880 100.9972000  14.6428864  46.4075980 100.7318194  15.1040636
  49.0453763 110.5630903  17.8114941  48.8939269 110.3341454  16.8945025
  49.0358442 111.5201504  17.8246286  45.8139099 108.1362815  12.7961208
  46.7431159 108.2873975  12.6230175  45.3930129 108.2246836  11.9409854
  44.6127431 112.1613480  10.5659745  44.4738517 111.7932264  11.4385684
  43.8242027 112.6761119  10.3943703  40.1376890 106.9462713  13.4801164
  39.9996688 106.2142951  14.0812703  41.0481813 106.8571613  13.1985352
  42.7659191 106.6582672  12.9684844  43.4758809 106.0175864  12.9271462
  42.7228499 106.9095567  13.8911025  50.7545969 113.5950025  15.8891423
  50.6958515 112.9109245  15.2222006  51.1565488 114.3369015  15.4372049
  41.4788125 103.6447890  14.7880483  40.9425482 103.1938628  15.4402080
  40.8904833 103.7793799  14.0450948  50.7563377 111.5589609  14.1205403
  49.8690155 111.2215531  14.2431802  51.3261928 110.8272640  14.3574168
  37.2127246 102.7803897  11.8733478  37.1285435 102.1729567  11.1383888
  36.3909952 103.2712916  11.8742974  47.3850960 101.2657461   7.2403673
  47.8819659 100.5127423   6.9204743  46.6137941 101.3021778   6.6746882
  46.7463213 116.1177896  13.2424805  47.4591186 116.7525360  13.1700706
  46.2553242 116.2141762  12.4264807  43.9685928 103.4074844   6.9675358
  43.5983716 102.8545884   7.6556263  44.4645021 102.8032977   6.4150358
  41.7975127 113.8672339  14.0630376  42.4984587 114.5008822  14.2159770
  41.3270242 114.2087071  13.3026015  49.8269954  98.2327054   9.3883032
  48.9133034  98.4631281   9.5565239  50.2563056  98.3165499  10.2397064
  49.5976413 106.4216946  11.8882926  48.9447863 106.6692854  11.2335379
  49.9756793 105.6081085  11.5545403  45.6463986 107.1636757  18.3748963
  44.9704623 107.0630887  19.0451338  46.4691620 107.0075971  18.8384960
  39.3651262 100.8178835  13.2128464  39.4292589 101.6793666  12.8005861
  39.3018382 100.2052836  12.4800822  38.8403535 102.8901967  16.8601498
  39.4675573 102.5079045  17.4739022  37.9831453 102.6716169  17.2257190
  49.2397643 113.2964942  18.4655233  49.7837547 113.9094901  17.9710188
  48.6584488 113.8544521  18.9822246  39.1463324 102.7734393   8.7747401
  38.4249910 103.3870361   8.6354875  39.9356580 103.3092158   8.6964047
  41.9489638 100.1088819  15.0488053  42.4724040 100.3551116  15.8114362
  41.7301971 100.9408854  14.6291190  43.1542183 101.0502515  12.7337724
  42.8139003 100.2510328  13.1358404  42.4481189 101.3504225  12.1614557
  43.8058655  98.1351827  11.1865047  44.6284724  97.6612305  11.0643937
  44.0496718  98.9142311  11.6863733  41.3297234 104.8270948   8.9957025
  41.1841814 105.1411251   9.8881307  40.8522437 105.4455848   8.4427924
  43.1893616 101.8173496   9.0437915  43.1755185 100.9214589   8.7070213
  43.9066045 101.8244159   9.6776201  45.0419747 102.2510836  11.0891042
  44.7837525 103.1727906  11.0875373  44.5104788 101.8541270  11.7791506
  35.8042896 107.3676292  11.9344686  35.2596364 108.1436100  12.0664961
  36.6822246 107.7147097  11.7763808  42.5930512 100.6987876   4.3125485
  42.7146424  99.7704522   4.5116372  42.3032555 100.7126562   3.4003800
  45.4621703  98.3842786   7.4492205  45.4843400  98.4482119   6.4944184
  45.8789762  97.5447295   7.6432711  36.5908918 106.4946188  14.8274843
  35.8490654 106.6428824  15.4139474  36.2701662 106.7554454  13.9641593
  44.5352580 116.0362167  14.6255233  44.8439707 115.7911313  15.4977933
  45.3328062 116.2408805  14.1374104  42.0771592 102.2119873  18.5215418
  42.1259747 103.0881996  18.1393187  42.6194106 101.6697266  17.9487061
  52.5626438 112.7560997  17.8016555  51.7721981 112.7385135  17.2621054
  52.3259792 113.2949290  18.5565591  52.6824313 109.6053463  15.1149283
  52.7322318 109.4403470  16.0564806  52.5738236 108.7380722  14.7247164
  49.9728075 105.5884391  16.4308590  50.8737938 105.4490856  16.1392588
  50.0476050 105.7538846  17.3706767  44.3070880 102.9651246  15.2761776
  43.4374190 103.2584812  15.0044365  44.5430361 103.5491691  15.9969040
  54.1842509 112.0250404  15.3591305  53.8927318 112.3880385  16.1954766
  53.5714641 111.3117413  15.1804637  52.4329698 107.1483019  13.8271363
  52.9083819 107.3410665  13.0190214  51.5095263 107.2042205  13.5814746
  47.0109914  99.1830863  12.7927197  47.5291858  99.9191890  12.4673685
  46.6565047  99.4894856  13.6273956  47.2622508  95.6031145   8.3128093
  47.5424262  94.9354334   8.9388520  48.0473115  95.7960241   7.8002757
  51.1331367 104.0248779  12.0599668  52.0848790 104.1246877  12.0811892
  50.9634817 103.2327048  12.5697753  49.1545746 101.1104362  12.2459069
  48.5595678 101.3909375  11.5505558  48.8695443 101.5998263  13.0175810
  53.6119444 107.2454899  11.1741968  53.5795765 106.3070900  11.3601652
  54.2220068 107.3238936  10.4407793  53.7613933 104.0365942  11.2200251
  53.2452982 103.2524399  11.0330180  54.6453881 103.7084659  11.3846771
  51.4224660  97.7806958   7.1796064  51.2249481  97.4722046   8.0639396
  52.0324365  98.5068597   7.3093994  45.3341468 110.1668698  18.6769829
  46.2544477 110.3447297  18.8709876  45.2991051 109.2224743  18.5249528
  38.3303540 108.0769733  11.3192610  38.5489550 109.0086840  11.3380644
  38.7429314 107.7177707  12.1047414  45.2507758  98.5837818   3.3068299
  44.4408487  98.2384903   3.6823545  45.9392175  98.2745362   3.8955910
  47.1798306  97.6615865   4.9292595  47.7329345  98.0811318   5.5882618
  47.4168393  96.7351613   4.9715551  43.2031406 103.6502938  20.7095359
  43.1028133 104.5997295  20.6407450  42.9852948 103.3221177  19.8371429
  49.0080680  99.1721448   6.6392580  49.5080458  99.2837982   5.8306899
  49.6516288  98.8682500   7.2793388  43.0662676 107.0800077  19.5260421
  42.5829757 107.8800437  19.7324310  43.1523615 107.0908022  18.5727865
  38.9936013 110.9704612  11.5628855  39.9479267 110.9388554  11.4958786
  38.7948537 110.5095236  12.3779080  39.5835395 109.5405728  14.1299652
  40.4028284 110.0349807  14.1534489  39.8572203 108.6237696  14.1017220
  52.6916528 101.9563001   7.2081947  53.4676918 102.4459454   7.4806564
  51.9664662 102.3821055   7.6653816  34.8370310 103.8743862  14.8291849
  35.4829173 103.3642816  15.3179074  34.6287461 104.6112543  15.4035275
  47.3623702 110.9424709  20.3283990  48.2314861 111.1165362  19.9670625
  46.8830453 111.7619126  20.2059719  41.5309882 118.0621810  12.0073423
  42.4337129 118.0945421  12.3239918  41.3047252 117.1322261  12.0219759
  47.1726040  94.7326683   4.8361682  46.4058435  94.1785170   4.9818365
  47.5836745  94.8048552   5.6975834  39.1767801 101.0211479  18.9266864
  40.0399262 100.6648284  19.1370188  38.6033211 100.6825374  19.6142268
  51.7349301 114.4292196  19.9196835  51.3416247 113.8758394  20.5944479
  52.5515442 114.7402774  20.3103353  54.6517262 115.8450075  17.5117092
  55.3926976 116.4457228  17.4321554  54.8835185 115.1027712  16.9535134
  49.6797289 118.2193885  16.8601498  50.3069328 117.8370962  17.4739022
  48.8225208 118.0008087  17.2257190  52.9165346 117.5411791  18.5215418
  52.9653502 118.4173914  18.1393187  53.4587861 116.9989184  17.9487061
  54.0425160 118.9794856  20.7095359  53.9421887 119.9289213  20.6407450
  53.8246702 118.6513095  19.8371429  45.6764064 119.2035779  14.8291849
  46.3222928 118.6934733  15.3179074  45.4681215 119.9404461  15.4035275
  50.0161555 116.3503397  18.9266864  50.8793017 115.9940201  19.1370188
  49.4426966 116.0117291  19.6142268  24.3569176  59.9910552   4.1128129
  23.9133030  59.2046930   3.7949033  25.0186390  60.1789702   3.4472019
  26.4550414  60.2713352   2.1409530  26.4368889  61.0922233   1.6489799
  27.3770334  60.1467427   2.3659671  27.3666255  56.9109190   4.5360248
  27.2151761  56.6819742   3.6190332  27.3570934  57.8679791   4.5491593
  29.0758462  59.9428312   2.6136730  29.0171008  59.2587533   1.9467313
  29.4777980  60.6847302   2.1617356  27.5610135  59.6443230   5.1900540
  28.1050039  60.2573188   4.6955495  26.9796980  60.2022808   5.7067553
  30.8838930  59.1039284   4.5261861  30.0934474  59.0863423   3.9866361
  30.6472284  59.6427577   5.2810898  32.5055002  58.3728692   2.0836611
  32.2139810  58.7358672   2.9200072  31.8927133  57.6595700   1.9049943
  25.6836194  57.2902997   7.0529296  26.5527354  57.4643649   6.6915931
  25.2042946  58.1097413   6.9305026  37.3428670  68.9991622  -3.5425429
  37.9807080  68.8798370  -4.2462089  37.2249513  69.9472466  -3.4837477
  34.1518376  68.9519051  -3.6063904  33.8136888  68.8360115  -4.4943369
  35.0208144  68.5510216  -3.6262898  34.6338159  70.1053902   2.3522301
  34.6226800  69.7106701   1.4802805  34.7958799  69.3719975   2.9456073
  31.3545420  72.8891014   1.3001485  31.0635286  73.7936645   1.1848152
  31.9902405  72.9307542   2.0145555  32.2801627  70.2667863  -2.1097155
  32.8765199  70.0423885  -2.8240192  32.3376599  69.5252608  -1.5071707
  42.2978365  66.6618310  -5.5639242  43.0303537  66.0917526  -5.3301413
  41.5417721  66.2739910  -5.1232737  39.8203786  60.3739884  -1.1044634
  39.4887111  61.2435295  -1.3283419  39.2249399  60.0576168  -0.4250603
  36.3135305  72.5752430  -1.7048721  36.0136028  73.4777468  -1.8132914
  35.9686365  72.3084613  -0.8527568  39.7132449  65.0934970  -4.0251284
  38.8049326  65.0250378  -4.3192523  39.6620045  65.5706915  -3.1969458
  33.7873315  66.5124615   3.9183614  33.0106649  67.0718536   3.9086478
  34.4263878  66.9981398   4.4398484  41.5794096  63.2951408  -2.2473410
  40.9368476  63.5883941  -2.8933615  41.0749024  63.1804329  -1.4420213
  32.0419687  69.3210069   3.4801581  32.7834372  69.8595113   3.2036404
  31.3356673  69.9476358   3.6373132  37.5175027  71.4639209   2.0773742
  37.9258383  71.0221620   1.3328374  36.7952288  70.8891837   2.3307935
  33.8706097  66.4011816  -0.5492701  34.7167292  66.8251230  -0.4058052
  33.8104735  65.7445440   0.1445862  37.8403842  72.0240400  -4.1673969
  37.2112704  72.1886114  -4.8697901  37.4529504  72.4382009  -3.3963005
  41.7193073  72.9594838  -6.8129605  41.0344112  73.3393739  -7.3632572
  41.8036923  73.5690164  -6.0797657  37.0205542  64.0616184   1.1088473
  36.7766474  64.8158245   0.5722748  37.2965473  64.4401532   1.9435720
  38.9744005  70.6054797  -0.2134262  39.1860900  71.2486557  -0.8899881
  38.9273753  69.7717113  -0.6812332  33.3931803  71.7614808  -6.9023884
  33.8570149  72.0402511  -7.6919261  33.1288601  70.8598253  -7.0850793
  30.2855884  71.3086289  -3.9644121  30.8557242  71.7373558  -4.6026636
  30.8763996  71.0268874  -3.2659935  30.7781051  66.4749717   4.2816891
  30.1479712  67.1565998   4.5152287  30.6717139  66.3632799   3.3370029
  40.0889833  73.4826752  -2.0411904  40.9107277  73.0806939  -2.3229223
  40.0852236  73.3794986  -1.0895789  33.8546436  73.0310795   0.1148806
  33.9190869  73.4931203   0.9506978  33.1457360  72.4008160   0.2431116
  48.1795826  69.8265501  -5.6926933  47.4259534  69.2572899  -5.8482928
  48.3143367  69.7928165  -4.7456298  30.0561794  60.7770483   6.6442142
  29.6628739  60.2236681   7.3189786  30.8727934  61.0881061   7.0348659
  32.9729755  62.1928362   4.2362398  33.7139468  62.7935515   4.1566861
  33.2047678  61.4506000   3.6780441  28.1171093  67.3784729   2.5140628
  28.0024608  66.4769986   2.8147727  27.2615610  67.6248426   2.1625444
  35.1962930  75.3202469   4.1128129  34.7526785  74.5338848   3.7949033
  35.8580144  75.5081620   3.4472019  29.9550052  76.8498271  -1.3611193
  30.5057477  76.7215334  -2.1334199  29.1161528  77.1493160  -1.7116300
  37.2944169  75.6005269   2.1409530  37.2762644  76.4214150   1.6489799
  38.2164089  75.4759345   2.3659671  33.7517223  73.1149399   2.9833038
  34.2845559  72.3537687   2.7532346  33.2231304  72.8223051   3.7257193
  40.0962781  70.4384412  -4.3881104  39.4386456  71.1283673  -4.3000975
  40.9003181  70.8280844  -4.0447117  38.9068240  68.7928785  -6.3377162
  39.4200122  69.4258776  -5.8355452  39.5569464  68.1929980  -6.7033802
  35.3849071  66.2678240  -4.0918821  34.4671632  66.4893187  -4.2497133
  35.8009215  66.3424551  -4.9507114  39.6730036  73.7734786  -8.2098019
  39.2192364  72.9325696  -8.1532829  39.0424003  74.4096184  -7.8723239
  38.1162976  75.6111283  -7.2748201  38.4085950  76.1716340  -7.9935835
  38.6261596  75.9039844  -6.5195042  36.5262235  66.8575701   0.7125881
  36.8811622  67.0847174   1.5720347  37.1734366  67.1894078   0.0903137
  42.2559972  69.9794137  -8.5824790  42.1177870  70.1695733  -9.5103600
  41.8996190  70.7413520  -8.1256738  42.2829351  72.0470664  -3.5713518
  42.7165858  71.9545953  -2.7230464  42.9960932  72.0228165  -4.2093502
  36.0157246  75.6472758  -2.0380417  36.0694268  76.2163695  -1.2702702
  35.1472027  75.8174643  -2.4026380  28.8955639  65.3490314  -0.5555966
  29.5678693  65.1407677  -1.2043317  28.0685426  65.1512400  -0.9950734
  43.1444901  72.0894365  -1.0380633  43.3380791  72.9940175  -0.7921358
  43.0445519  71.6301784  -0.2042048  34.7981211  61.9752255   1.4609695
  34.1509127  62.6742205   1.3674171  35.5682227  62.4088399   1.8285943
  38.2060009  72.2401108   4.5360248  38.0545516  72.0111659   3.6190332
  38.1964689  73.1971709   4.5491593  34.9745346  69.8133020  -0.4793486
  35.9037406  69.9644180  -0.6524518  34.5536376  69.9017041  -1.3344839
  33.7733678  73.8383685  -2.7094948  33.6344763  73.4702469  -1.8369010
  32.9848274  74.3531324  -2.8810990  35.3238893  73.2165287  -5.3206110
  34.9888725  73.1766057  -4.4248460  34.8242838  72.5510003  -5.7935700
  29.2983137  68.6232917   0.2046471  29.1602935  67.8913156   0.8058010
  30.2088060  68.5341818  -0.0769341  31.9265437  68.3352877  -0.3069849
  32.6365056  67.6946069  -0.3483231  31.8834746  68.5865772   0.6156331
  39.9152216  75.2720230   2.6136730  39.8564762  74.5879450   1.9467313
  40.3171734  76.0139220   2.1617356  30.6394371  65.3218095   1.5125790
  30.1031728  64.8708833   2.1647386  30.0511080  65.4564004   0.7696254
  39.9169623  73.2359814   0.8450710  39.0296402  72.8985736   0.9677108
  40.4868174  72.5042845   1.0819475  33.4470777  77.8961266  -2.1888047
  33.3740948  78.7016238  -1.6768743  33.0048170  78.0953232  -3.0140026
  44.3986964  68.6468031  -4.3932729  44.3876840  69.5292747  -4.7638796
  43.5304343  68.2939582  -4.5878192  35.9069460  77.7948100  -0.0329889
  36.6197432  78.4295565  -0.1053987  35.4159489  77.8911966  -0.8489887
  37.6286987  71.6999353  -8.4612597  36.6943266  71.8200816  -8.6307893
  37.8063656  70.7971820  -8.7252587  41.0159538  67.5416672  -7.9262563
  41.4819991  68.3744664  -8.0002260  41.4667039  67.0761654  -7.2217304
  30.9581374  75.5442544   0.7875682  31.6590833  76.1779027   0.9405076
  30.4876489  75.8857275   0.0271321  38.7582660  68.0987151  -1.3871767
  38.1054110  68.3463059  -2.0419315  39.1363040  67.2851290  -1.7209290
  35.7189834  78.1346845  -7.2843597  35.9012228  77.3168500  -6.8215845
  36.5422820  78.3514537  -7.7218707  34.8070233  68.8406962   5.0994270
  34.1310870  68.7401092   5.7696645  35.6297867  68.6846176   5.5630267
  33.5493016  80.1473890  -0.6648114  34.1011324  80.3105511   0.1000971
  33.8899209  80.7378328  -1.3368090  28.0009781  64.5672172   3.5846805
  28.6281820  64.1849250   4.1984329  27.1437700  64.3486374   3.9502497
  38.4003890  74.9735147   5.1900540  38.9443794  75.5865106   4.6955495
  37.8190735  75.5314726   5.7067553  36.6861403  78.0955865  -3.6784432
  36.5612542  77.2945605  -4.1873487  37.3440494  78.5902059  -4.1670462
  38.7496311  75.8964885  -2.0504882  37.8026647  75.7770237  -2.1226555
  39.0979084  75.0087384  -1.9678621  31.1095885  61.7859024   1.7733360
  31.6330286  62.0321321   2.5359669  30.8908218  62.6179059   1.3536497
  35.7542745  75.6917602  -5.8500530  35.6067707  74.7634309  -5.6692960
  36.5796238  75.7137692  -6.3343455  39.3576866  76.5146160  -4.7635657
  40.2823414  76.3089022  -4.9011206  39.1892170  76.2662562  -3.8546316
  32.3148430  62.7272720  -0.5416970  31.9745250  61.9280533  -0.1396290
  31.6087436  63.0274430  -1.1140137  34.2025994  63.9281041  -2.1863651
  33.9443772  64.8498111  -2.1879321  33.6711034  63.5311475  -1.4963187
  39.1472183  77.0331828  -9.4073566  39.3209060  76.4678250 -10.1599713
  39.6401074  77.8332723  -9.5894076  24.9649142  69.0446497  -1.3410007
  24.4202611  69.8206305  -1.2089733  25.8428492  69.3917301  -1.4990885
  45.0011574  69.7968251  -7.7883266  45.4442720  69.0475576  -8.1864143
  44.1238084  69.7878387  -8.1709534  25.7515164  68.1716393   1.5520150
  25.0096900  68.3199029   2.1384780  25.4307909  68.4324659   0.6886899
  42.0338778  73.7998298 -10.7789337  42.5590102  74.1385571 -11.5040017
  41.9461131  72.8645313 -10.9626202  33.6958827  77.7132371   1.3500540
  34.0045953  77.4681518   2.2223240  34.4934309  77.9179010   0.8619410
  31.1653311  75.4108290  -4.3471782  30.5433320  74.7478995  -4.6469554
  31.8358178  75.4369422  -5.0298134  31.2377839  63.8890078   5.2460724
  31.2865994  64.7652201   4.8638494  31.7800353  63.3467471   4.6732367
  41.7232684  74.4331201   4.5261861  40.9328228  74.4155340   3.9866361
  41.4866039  74.9719495   5.2810898  41.8430559  71.2823668   1.8394590
  41.8928564  71.1173675   2.7810113  41.7344483  70.4150927   1.4492471
  39.1334322  67.2654596   3.1553897  40.0344185  67.1261061   2.8637894
  39.2082296  67.4309051   4.0952074  33.4677127  64.6421451   2.0007083
  32.5980437  64.9355017   1.7289671  33.7036607  65.2261896   2.7214347
  43.3448756  73.7020609   2.0836611  43.0533565  74.0650590   2.9200072
  42.7320887  72.9887618   1.9049943  44.5444439  71.2673489  -5.3960818
  45.3791330  71.7063293  -5.2323258  44.6803567  70.7912142  -6.2152573
  41.5935944  68.8253224   0.5516669  42.0690066  69.0180870  -0.2564479
  40.6701510  68.8812410   0.3060053  36.1716161  60.8601068  -0.4827497
  36.6898105  61.5962094  -0.8081008  35.8171294  61.1665061   0.3519262
  40.2937613  65.7018984  -1.2155025  41.2455036  65.8017082  -1.1942801
  40.1241064  64.9097253  -0.7056941  38.3151993  62.7874567  -1.0295624
  37.7201925  63.0679580  -1.7249135  38.0301690  63.2768468  -0.2578883
  42.7725691  68.9225104  -2.1012725  42.7402011  67.9841104  -1.9153042
  43.3826315  69.0009140  -2.8346900  42.9220180  65.7136147  -2.0554442
  42.4059228  64.9294604  -2.2424513  43.8060128  65.3854864  -1.8907923
  48.5902241  69.9841111  -2.9606689  49.3205630  69.7226399  -2.3998985
  47.9809187  69.2469833  -2.9204621  46.6717538  68.1248973  -2.3632237
  45.9450702  67.9904938  -2.9715746  46.2564825  68.4325802  -1.5575519
  34.4947715  71.8438903   5.4015136  35.4150724  72.0217502   5.5955182
  34.4597298  70.8994948   5.2494835  27.4909787  69.7539938  -1.9562083
  27.7095797  70.6857045  -1.9374049  27.9035561  69.3947912  -1.1707279
  32.3637652  65.3273143   7.4340666  32.2634379  66.2767500   7.3652757
  32.1459195  64.9991382   6.5616736  32.2268923  68.7570282   6.2505727
  31.7436004  69.5570642   6.4569616  32.3129862  68.7678227   5.2973171
  28.1542260  72.6474817  -1.7125839  29.1085514  72.6158759  -1.7795907
  27.9554784  72.1865441  -0.8975613  28.7441642  71.2175933   0.8544959
  29.5634531  71.7120012   0.8779796  29.0178450  70.3007901   0.8262526
  41.8522775  63.6333206  -6.0672746  42.6283165  64.1229659  -5.7948130
  41.1270909  64.0591260  -5.6100877  44.2895333  64.3460825  -5.0098806
  44.8839824  64.1056561  -5.7205498  44.3621917  63.6267956  -4.3825269
  46.5966406  67.6527026  -6.2355385  46.0365964  67.7220216  -5.4623823
  45.9909909  67.4768011  -6.9555888  23.9976556  65.5514067   1.5537156
  24.6435420  65.0413021   2.0424381  23.7893708  66.2882748   2.1280581
  36.5229949  72.6194914   7.0529296  37.3921108  72.7935567   6.6915931
  36.0436700  73.4389331   6.9305026  30.6916129  79.7392015  -1.2681270
  31.5943376  79.7715625  -0.9514775  30.4653499  78.8092466  -1.2534934
  28.3374047  62.6981684   5.6512170  29.2005509  62.3418489   5.8615495
  27.7639458  62.3595579   6.3387574  48.1822424  84.3283540  -3.5425429
  48.8200834  84.2090288  -4.2462089  48.0643267  85.2764384  -3.4837477
  44.9912131  84.2810968  -3.6063904  44.6530642  84.1652033  -4.4943369
  45.8601899  83.8802133  -3.6262898  45.4731914  85.4345820   2.3522301
  45.4620554  85.0398618   1.4802805  45.6352553  84.7011893   2.9456073
  42.1939175  88.2182932   1.3001485  41.9029041  89.1228563   1.1848152
  42.8296159  88.2599459   2.0145555  43.1195382  85.5959780  -2.1097155
  43.7158954  85.3715803  -2.8240192  43.1770353  84.8544526  -1.5071707
  47.7363693  82.0534994  -6.4672221  48.5226782  81.6354417  -6.8181804
  48.0002397  82.9581086  -6.2990572  50.6597540  75.7031801  -1.1044634
  50.3280865  76.5727212  -1.3283419  50.0643154  75.3868085  -0.4250603
  47.1529060  87.9044347  -1.7048721  46.8529783  88.8069386  -1.8132914
  46.8080119  87.6376531  -0.8527568  40.6041541  84.3558144  -5.6712017
  39.6792038  84.2234358  -5.4634325  40.8525955  85.1352363  -5.1742074
  50.5526204  80.4226887  -4.0251284  49.6443081  80.3542296  -4.3192523
  50.5013799  80.8998832  -3.1969458  44.6267069  81.8416533   3.9183614
  43.8500403  82.4010453   3.9086478  45.2657632  82.3273316   4.4398484
  52.4187850  78.6243326  -2.2473410  51.7762230  78.9175859  -2.8933615
  51.9142779  78.5096246  -1.4420213  42.8813442  84.6501986   3.4801581
  43.6228126  85.1887030   3.2036404  42.1750427  85.2768275   3.6373132
  48.3568781  86.7931127   2.0773742  48.7652137  86.3513537   1.3328374
  47.6346043  86.2183754   2.3307935  44.7099851  81.7303734  -0.5492701
  45.5561047  82.1543147  -0.4058052  44.6498489  81.0737358   0.1445862
  47.8599297  79.3908102   1.1088473  47.6160229  80.1450163   0.5722748
  48.1359227  79.7693450   1.9435720  49.8137759  85.9346714  -0.2134262
  50.0254655  86.5778474  -0.8899881  49.7667508  85.1009031  -0.6812332
  47.4163988  78.5464535  -3.3097690  46.5548467  78.8445789  -3.0180952
  47.4426423  78.7634934  -4.2416657  41.1249639  86.6378207  -3.9644121
  41.6950996  87.0665476  -4.6026636  41.7157751  86.3560792  -3.2659935
  41.6174805  81.8041635   4.2816891  40.9873466  82.4857915   4.5152287
  41.5110893  81.6924716   3.3370029  36.9119778  81.4713431  -4.7917185
  36.1218832  81.7270959  -5.2677075  37.4031025  82.2861769  -4.6865145
  44.6940191  88.3602713   0.1148806  44.7584623  88.8223120   0.9506978
  43.9851115  87.7300078   0.2431116  35.1957481  81.7243921  -2.3602194
  35.4465519  82.6090931  -2.0944618  35.7317029  81.5448523  -3.1327103
  40.8955548  76.1062400   6.6442142  40.5022494  75.5528599   7.3189786
  41.7121689  76.4172979   7.0348659  43.8123509  77.5220280   4.2362398
  44.5533223  78.1227433   4.1566861  44.0441432  76.7797917   3.6780441
  38.9564847  82.7076647   2.5140628  38.8418362  81.8061904   2.8147727
  38.1009365  82.9540344   2.1625444  46.0356685  90.6494387   4.1128129
  45.5920539  89.8630766   3.7949033  46.6973899  90.8373538   3.4472019
  40.7943806  92.1790189  -1.3611193  41.3451231  92.0507252  -2.1334199
  39.9555282  92.4785078  -1.7116300  48.1337923  90.9297187   2.1409530
  48.1156398  91.7506068   1.6489799  49.0557843  90.8051262   2.3659671
  44.5910977  88.4441317   2.9833038  45.1239314  87.6829605   2.7532346
  44.0625058  88.1514968   3.7257193  47.7580672  73.5501382  -1.4873320
  47.4144942  74.4403024  -1.5634209  48.1259635  73.3603040  -2.3503735
  45.3078066  78.3859694  -7.9215647  44.4519662  77.9966545  -8.1010008
  45.7205018  78.4651655  -8.7815861  46.8377213  75.9206038  -3.5224087
  46.3342008  75.8836173  -4.3356282  47.1307819  76.8298780  -3.4627430
  43.0820098  76.0044767  -4.5157905  43.9473095  75.8087576  -4.8752016
  43.1497607  75.7755119  -3.5888548  40.6882417  78.2346975  -7.1441538
  41.2626169  78.0122157  -7.8768345  41.2753400  78.3035670  -6.3912937
  42.9905085  75.1088224  -8.4166469  42.3369498  74.7937241  -9.0409854
  42.9485559  74.4863965  -7.6906646  46.2242826  81.5970158  -4.0918821
  45.3065387  81.8185105  -4.2497133  46.6402969  81.6716468  -4.9507114
  49.5568338  72.8094942  -6.3855582  49.8627215  71.9492305  -6.6729667
  50.2820943  73.4012562  -6.5856588  43.8289418  83.1048735  -5.8779391
  43.8838027  82.1522571  -5.9536915  43.0180620  83.2608174  -5.3938093
  41.7681777  81.7225794  -8.1189012  40.9549643  82.0219965  -7.7123820
  42.2640772  81.3281483  -7.4014530  47.3655989  82.1867619   0.7125881
  47.7205377  82.4139092   1.5720347  48.0128120  82.5185996   0.0903137
  41.2595852  79.2944150  -2.5027778  41.8995232  79.1532909  -3.2004814
  40.4273383  79.0078663  -2.8789176  46.8551001  90.9764676  -2.0380417
  46.9088023  91.5455612  -1.2702702  45.9865782  91.1466561  -2.4026380
  38.2624469  79.2644475  -7.7254791  38.5231286  80.1789808  -7.8345630
  39.0841641  78.7968918  -7.5758178  39.7349394  80.6782232  -0.5555966
  40.4072447  80.4699594  -1.2043317  38.9079180  80.4804318  -0.9950734
  45.6374966  77.3044173   1.4609695  44.9902881  78.0034123   1.3674171
  46.4075981  77.7380317   1.8285943  49.0453764  87.5693025   4.5360248
  48.8939270  87.3403577   3.6190332  49.0358443  88.5263627   4.5491593
  45.8139100  85.1424938  -0.4793486  46.7431160  85.2936098  -0.6524518
  45.3930130  85.2308959  -1.3344839  44.6127432  89.1675602  -2.7094948
  44.4738518  88.7994387  -1.8369010  43.8242028  89.6823242  -2.8810990
  40.1376891  83.9524835   0.2046471  39.9996689  83.2205074   0.8058010
  41.0481815  83.8633735  -0.0769341  42.7659192  83.6644794  -0.3069849
  43.4758810  83.0237987  -0.3483231  42.7228500  83.9157689   0.6156331
  50.7545971  90.6012148   2.6136730  50.6958517  89.9171368   1.9467313
  51.1565489  91.3431138   2.1617356  41.4788126  80.6510012   1.5125790
  40.9425483  80.2000751   2.1647386  40.8904834  80.7855921   0.7696254
  50.7563378  88.5651732   0.8450710  49.8690157  88.2277654   0.9677108
  51.3261929  87.8334763   1.0819475  37.2127247  79.7866020  -1.4021215
  37.1285436  79.1791690  -2.1370805  36.3909953  80.2775038  -1.4011719
  47.3850961  78.2719584  -6.0351020  47.8819660  77.5189546  -6.3549950
  46.6137942  78.3083900  -6.6007811  46.7463215  93.1240018  -0.0329889
  47.4591187  93.7587483  -0.1053987  46.2553243  93.2203884  -0.8489887
  43.9685930  80.4136967  -6.3079336  43.5983717  79.8608007  -5.6198430
  44.4645022  79.8095100  -6.8604336  41.7975128  90.8734462   0.7875682
  42.4984588  91.5070945   0.9405076  41.3270243  91.2149193   0.0271321
  49.8269956  75.2389177  -3.8871661  48.9133036  75.4693404  -3.7189455
  50.2563057  75.3227621  -3.0357629  49.5976414  83.4279069  -1.3871767
  48.9447864  83.6754976  -2.0419315  49.9756794  82.6143207  -1.7209290
  45.6463987  84.1698880   5.0994270  44.9704624  84.0693009   5.7696645
  46.4691621  84.0138094   5.5630267  39.3651263  77.8240957  -0.0626230
  39.4292590  78.6855788  -0.4748832  39.3018384  77.2114959  -0.7953871
  38.8403536  79.8964090   3.5846805  39.4675575  79.5141167   4.1984329
  37.9831455  79.6778292   3.9502497  49.2397644  90.3027065   5.1900540
  49.7837548  90.9157023   4.6955495  48.6584489  90.8606643   5.7067553
  39.1463326  79.7796516  -4.5007292  38.4249911  80.3932483  -4.6399819
  39.9356581  80.3154280  -4.5790646  41.9489639  77.1150942   1.7733360
  42.4724041  77.3613239   2.5359669  41.7301972  77.9470977   1.3536497
  43.1542184  78.0564637  -0.5416970  42.8139005  77.2572450  -0.1396290
  42.4481190  78.3566348  -1.1140137  43.8058656  75.1413950  -2.0889647
  44.6284725  74.6674428  -2.2110756  44.0496720  75.9204433  -1.5890960
  41.3297235  81.8333070  -4.2797668  41.1841816  82.1473373  -3.3873387
  40.8522438  82.4517971  -4.8326769  43.1893618  78.8235618  -4.2316779
  43.1755186  77.9276712  -4.5684481  43.9066046  78.8306282  -3.5978492
  45.0419748  79.2572958  -2.1863651  44.7837526  80.1790029  -2.1879321
  44.5104789  78.8603393  -1.4963187  35.8042897  84.3738415  -1.3410007
  35.2596365  85.1498223  -1.2089733  36.6822247  84.7209219  -1.4990885
  42.5930514  77.7049999  -8.9629208  42.7146425  76.7766645  -8.7638321
  42.3032556  77.7188684  -9.8750893  45.4621704  75.3904909  -5.8262489
  45.4843401  75.4544242  -6.7810509  45.8789763  74.5509418  -5.6321982
  36.5908919  83.5008311   1.5520150  35.8490655  83.6490946   2.1384780
  36.2701663  83.7616577   0.6886899  44.5352581  93.0424289   1.3500540
  44.8439708  92.7973436   2.2223240  45.3328063  93.2470928   0.8619410
  42.0771593  79.2181996   5.2460724  42.1259749  80.0944119   4.8638494
  42.6194107  78.6759389   4.6732367  52.5626439  89.7623119   4.5261861
  51.7721983  89.7447258   3.9866361  52.3259793  90.3011413   5.2810898
  52.6824314  86.6115586   1.8394590  52.7322319  86.4465593   2.7810113
  52.5738237  85.7442845   1.4492471  49.9728076  82.5946514   3.1553897
  50.8737939  82.4552978   2.8637894  50.0476051  82.7600968   4.0952074
  44.3070882  79.9713368   2.0007083  43.4374191  80.2646934   1.7289671
  44.5430362  80.5553813   2.7214347  54.1842511  89.0312527   2.0836611
  53.8927319  89.3942508   2.9200072  53.5714642  88.3179535   1.9049943
  52.4329699  84.1545142   0.5516669  52.9083821  84.3472788  -0.2564479
  51.5095264  84.2104327   0.3060053  47.0109915  76.1892985  -0.4827497
  47.5291859  76.9254012  -0.8081008  46.6565048  76.4956979   0.3519262
  47.2622510  72.6093268  -4.9626600  47.5424263  71.9416457  -4.3366174
  48.0473117  72.8022363  -5.4751936  51.1331368  81.0310902  -1.2155025
  52.0848791  81.1308999  -1.1942801  50.9634818  80.2389170  -0.7056941
  49.1545747  78.1166485  -1.0295624  48.5595680  78.3971498  -1.7249135
  48.8695444  78.6060386  -0.2578883  53.6119446  84.2517021  -2.1012725
  53.5795766  83.3133022  -1.9153042  54.2220069  84.3301058  -2.8346900
  53.7613934  81.0428065  -2.0554442  53.2452983  80.2586521  -2.2424513
  54.6453883  80.7146781  -1.8907923  51.4224661  74.7869080  -6.0958630
  51.2249482  74.4784169  -5.2115298  52.0324367  75.5130719  -5.9660700
  45.3341469  87.1730821   5.4015136  46.2544479  87.3509420   5.5955182
  45.2991052  86.2286866   5.2494835  38.3303542  85.0831855  -1.9562083
  38.5489551  86.0148963  -1.9374049  38.7429315  84.7239830  -1.1707279
  45.2507759  75.5899940  -9.9686395  44.4408488  75.2447025  -9.5931149
  45.9392176  75.2807484  -9.3798783  47.1798308  74.6677987  -8.3462098
  47.7329346  75.0873441  -7.6872075  47.4168394  73.7413735  -8.3039142
  43.2031407  80.6565061   7.4340666  43.1028134  81.6059418   7.3652757
  42.9852949  80.3283300   6.5616736  49.0080681  76.1783570  -6.6362114
  49.5080460  76.2900105  -7.4447795  49.6516289  75.8744623  -5.9961305
  43.0662677  84.0862200   6.2505727  42.5829759  84.8862560   6.4569616
  43.1523616  84.0970145   5.2973171  38.9936015  87.9766734  -1.7125839
  39.9479268  87.9450677  -1.7795907  38.7948538  87.5157358  -0.8975613
  39.5835397  86.5467851   0.8544959  40.4028286  87.0411929   0.8779796
  39.8572204  85.6299819   0.8262526  52.6916529  78.9625124  -6.0672746
  53.4676919  79.4521576  -5.7948130  51.9664663  79.3883178  -5.6100877
  34.8370311  80.8805984   1.5537156  35.4829175  80.3704938   2.0424381
  34.6287462  81.6174666   2.1280581  47.3623703  87.9486832   7.0529296
  48.2314863  88.1227484   6.6915931  46.8830455  88.7681249   6.9305026
  41.5309883  95.0683933  -1.2681270  42.4337130  95.1007543  -0.9514775
  41.3047253  94.1384384  -1.2534934  47.1726041  71.7388806  -8.4393011
  46.4058437  71.1847292  -8.2936329  47.5836746  71.8110674  -7.5778859
  39.1767802  78.0273601   5.6512170  40.0399263  77.6710406   5.8615495
  38.6033213  77.6887496   6.3387574  51.7349303  91.4354318   6.6442142
  51.3416248  90.8820517   7.3189786  52.5515443  91.7464897   7.0348659
  54.6517264  92.8512197   4.2362398  55.3926977  93.4519350   4.1566861
  54.8835186  92.1089835   3.6780441  49.6797290  95.2256008   3.5846805
  50.3069329  94.8433085   4.1984329  48.8225209  95.0070210   3.9502497
  52.9165348  94.5473914   5.2460724  52.9653503  95.4236036   4.8638494
  53.4587862  94.0051307   4.6732367  54.0425161  95.9856979   7.4340666
  53.9421888  96.9351336   7.3652757  53.8246704  95.6575218   6.5616736
  45.6764065  96.2097902   1.5537156  46.3222929  95.6996856   2.0424381
  45.4681217  96.9466584   2.1280581  50.0161556  93.3565519   5.6512170
  50.8793018  93.0002324   5.8615495  49.4426967  93.0179414   6.3387574
  46.0356686  67.6556510  -9.1626565  45.5920540  66.8692888  -9.4805660
  46.6973900  67.8435660  -9.8282674  48.1337924  67.9359310 -11.1345164
  48.1156400  68.7568191 -11.6264894  49.0557844  67.8113385 -10.9095022
  49.0453765  64.5755148  -8.7394445  48.8939272  64.3465700  -9.6564362
  49.0358445  65.5325749  -8.7263100  50.7545972  67.6074270 -10.6617964
  50.6958518  66.9233491 -11.3287381  51.1565490  68.3493260 -11.1137338
  49.2397646  67.3089188  -8.0854153  49.7837550  67.9219146  -8.5799199
  48.6584491  67.8668766  -7.5687140  52.5626440  66.7685242  -8.7492832
  51.7721984  66.7509381  -9.2888333  52.3259795  67.3073535  -7.9943795
  54.1842512  66.0374650 -11.1918082  53.8927320  66.4004630 -10.3554621
  53.5714643  65.3241658 -11.3704750  47.3623704  64.9548954  -6.2225397
  48.2314864  65.1289607  -6.5838762  46.8830456  65.7743371  -6.3449668
  51.7349304  68.4416441  -6.6312552  51.3416249  67.8882639  -5.9564907
  52.5515444  68.7527019  -6.2406034  54.6517265  69.8574320  -9.0392295
  55.3926978  70.4581473  -9.1187833  54.8835188  69.1151958  -9.5974253
  49.6797292  72.2318130  -9.6907889  50.3069330  71.8495207  -9.0770364
  48.8225210  72.0132332  -9.3252196  52.9165349  71.5536036  -8.0293969
  52.9653504  72.4298159  -8.4116200  53.4587863  71.0113429  -8.6022326
  54.0425163  72.9919101  -5.8414028  53.9421890  73.9413458  -5.9101937
  53.8246705  72.6637340  -6.7137958  45.6764067  73.2160025 -11.7217537
  46.3222930  72.7058979 -11.2330312  45.4681218  73.9528706 -11.1474112
  50.0161558  70.3627642  -7.6242523  50.8793019  70.0064447  -7.4139199
  49.4426968  70.0241537  -6.9367119
 122.8631128 122.8631128 122.8631128 109.4712190 109.4712190 109.4712190
