
45868  0.0000000e+00
  35.7123375  67.9142237  63.8006592  35.7654500  67.8088522  62.7975798
  36.4106297  68.5860395  64.0855265  34.8188019  68.3642244  63.9391804
  35.7016754  66.5905666  64.4811296  35.5984855  66.7991257  65.5460024
  34.5030117  65.8044481  64.0335131  34.7834277  65.3448009  63.0857801
  33.9819694  64.7331238  65.0009966  33.3669877  65.1464796  65.8003998
  33.2723236  64.1261005  64.4388342  34.8746991  64.2426252  65.3889942
  33.3792758  66.6814184  63.7324476  32.6816893  66.0329247  63.6123228
  36.9969249  65.7815123  64.3147326  37.2694969  65.2413464  63.2924271
  37.7257919  65.6786203  65.3674936  37.3328161  66.0819435  66.2059498
  38.9922690  64.9248695  65.4848242  39.8330116  65.4064035  64.9854422
  39.4284725  65.0241947  66.9934940  39.4865680  66.0546350  67.3440790
  38.5808754  64.6185112  67.5458670  40.6316757  64.2546272  67.4359083
  41.0462379  63.3703661  66.7765808  41.1448717  64.3822670  68.6264515
  42.1206999  64.1840649  68.7954998  40.8526182  65.2106619  69.1248989
  38.7932515  63.4169340  65.0692511  39.5990229  62.8180313  64.3872643
  37.7850890  62.7195311  65.5069733  37.0812798  63.1420851  66.0953665
  37.4776506  61.3691616  65.0470924  38.2787871  60.6627560  65.2645063
  36.3353395  60.9070063  65.9969044  35.6311774  61.7146921  65.7971573
  35.9643960  59.9365139  65.6673002  36.8167615  60.8375835  67.5193930
  36.4124179  59.9141836  67.9340410  37.9036379  60.7586336  67.5430918
  36.2991142  62.0536232  68.2880974  35.9025264  63.0461645  67.7861404
  36.2357306  62.0321178  69.5780945  35.8561063  62.7964020  70.1183319
  36.5788841  61.2288094  70.0850916  37.1785975  61.1882925  63.5655546
  37.7028894  60.2328491  62.9934597  36.5168548  62.2039938  62.9696751
  36.2717581  63.0196190  63.5126114  36.2600923  62.1090460  61.4928150
  36.0164714  61.0843182  61.2123108  35.0744486  62.9559374  61.0741758
  34.6462035  63.5249805  61.8993378  35.3252006  63.6391497  60.2627325
  33.8425922  62.3241425  60.4953289  33.4975433  61.6478491  61.2774229
  32.7543378  63.4607410  60.2407122  32.4845409  63.8324404  61.2292194
  33.2066822  64.1468859  59.5246887  31.9233537  62.9993534  59.7071552
  33.9634418  61.4668989  59.2714882  34.7020698  60.6658363  59.3001890
  33.0413747  60.8858204  59.2870140  34.0880394  62.0004272  58.3291864
  37.4732423  62.4694633  60.6035376  37.7082109  61.8531322  59.5705128
  38.1425524  63.5885572  60.9806013  37.7691436  64.0023708  61.8228722
  39.4810128  63.9865398  60.4273844  39.3754172  64.1566944  59.3559408
  39.9876142  65.2822495  61.1853886  39.9944687  65.1588106  62.2683525
  41.0174894  65.4707098  60.8821583  39.1661167  66.4752674  60.6568575
  39.3600154  66.6245985  59.5946884  38.1189919  66.1741495  60.6256962
  39.3730712  67.7347136  61.4637136  39.9364686  67.7734852  62.5900793
  38.8355494  68.8368559  60.9661961  38.8410425  69.6174049  61.6071415
  38.3795714  68.7805939  60.0667429  40.5205059  62.8217697  60.4973698
  41.1204529  62.4134064  59.5095825  40.7742500  62.1601868  61.6642523
  40.3260279  62.4720335  62.5139284  41.5630484  60.9427643  61.7801476
  42.5391626  61.2195969  61.3818169  41.6831875  60.4732370  63.2287598
  42.1022511  61.2769127  63.8342285  40.7234764  60.2887869  63.7114954
  42.5091457  59.2810154  63.5798597  43.9611006  59.3542194  63.6527586
  44.5735073  60.2228785  63.4609461  44.6636057  58.1157494  63.9764214
  45.7342243  58.0783796  64.1134834  43.9018393  56.9884205  64.3203831
  44.5611715  55.8538628  64.7306252  43.9177036  55.1417828  64.7527933
  42.5048923  56.9177055  64.1028452  41.9353724  56.0185957  64.2862654
  41.7977715  58.0812216  63.7392092  40.7438326  58.0509567  63.5053396
  41.1041784  59.7711945  60.8937359  41.9472265  58.9887905  60.3515053
  39.8256040  59.6237898  60.6442928  39.1600013  60.1178312  61.2213516
  39.2536020  58.6021709  59.7049379  39.6468878  57.6293230  59.9998856
  37.8104496  58.4984159  59.6974087  37.5542212  58.2996845  60.7380581
  37.3631501  59.4147873  59.3123245  37.2441769  57.3736143  58.8237190
  36.1655021  57.3644972  58.9801836  37.3964739  57.6331615  57.7760839
  37.9065299  55.7279587  59.3007183  36.7713308  55.4264307  60.5948019
  36.6343379  56.3379908  61.1765146  35.8014536  55.0982904  60.2209520
  37.1007514  54.6389675  61.2726593  39.6940994  58.8479614  58.2655382
  40.0737429  57.9547548  57.5586081  39.7931170  60.0715971  57.7701235
  39.2266989  60.7473803  58.2626581  40.3116703  60.4285622  56.4164114
  40.1811600  59.6846914  55.6304598  39.5295715  61.6775608  56.0345364
  38.4974766  61.4237261  55.7927799  39.5283818  62.3315954  56.9065094
  40.0242090  62.4161100  54.7954464  41.0855675  62.5801182  54.9817944
  39.8295975  61.8252516  53.9003897  39.4310617  63.8374376  54.5939493
  38.4955001  64.2664623  55.2422380  39.9864554  64.5789146  53.6793184
  39.8371792  65.5626917  53.8525105  40.7726574  64.2423344  53.1419992
  41.8145418  60.6522703  56.3504648  42.5329161  60.3000975  55.4449558
  42.4106884  61.1585903  57.4309826  41.7888355  61.5203047  58.1399012
  43.8543558  61.5478325  57.4623823  44.0195417  61.9729710  56.4723969
  44.2313099  62.6616383  58.5194683  44.0135717  62.2933340  59.5219851
  45.2946377  62.9004002  58.4986353  43.4698915  63.9524412  58.3608913
  42.9616785  64.2638350  57.2458601  43.2955790  64.7615719  59.3981791
  42.7083063  65.5825806  59.3642330  43.5015917  64.3564606  60.3001499
  44.8005819  60.3684616  57.5829315  45.9742594  60.3473091  57.0205164
  44.4902134  59.4258833  58.4797764  43.5401058  59.3914223  58.8206625
  45.2747917  58.2320642  58.7484741  46.2301207  58.2800770  58.2258463
  45.5195713  58.2249594  60.2749968  44.5717669  58.0227327  60.7738733
  46.4701700  57.0704842  60.5997419  47.3705482  57.2549200  60.0137329
  46.7028522  56.9812059  61.6608715  46.1570787  56.0706615  60.2990341
  46.1006212  59.5531368  60.8636475  47.1451616  59.7702742  60.6403065
  45.5191422  60.3842974  60.4646921  46.1207533  59.4668055  61.9500351
  44.5843410  56.9015741  58.4117460  45.2669811  56.1072445  57.6957941
  43.3383512  56.6135597  58.8711119  42.9333639  57.3369551  59.4479847
  42.7810287  55.2091932  59.0200233  43.5335875  54.7302151  59.6463919
  41.3509798  55.0356722  59.6954679  40.6323814  55.5746269  59.0780210
  40.9339285  53.5522604  59.6873856  39.9159002  53.5193586  60.0755215
  40.8922720  53.1390238  58.6796188  41.5762711  52.9726267  60.3503513
  41.2727737  55.5581808  61.1050797  42.0604229  55.0447035  61.6564846
  41.3248873  56.6394043  61.2328959  40.3312206  55.3076077  61.5937424
  42.6834917  54.6622324  57.5917721  43.4571600  53.7804985  57.2338343
  41.9719982  55.3568172  56.7005062  41.4875269  56.1764336  57.0375776
  41.8453455  55.0026989  55.2684975  41.5257072  53.9608717  55.2914953
  40.7633209  55.8564758  54.6100664  39.9079227  55.7349157  55.2746105
  41.1990643  57.3797226  54.2427731  42.0880508  57.2809410  53.6198378
  40.2968359  57.8586340  53.8623333  41.3329268  57.8769493  55.2034712
  40.2903032  55.2404547  53.2558680  39.4112206  55.8130646  52.9601908
  41.0849190  55.3901768  52.5249243  39.9477553  54.2109919  53.3606195
  43.1705570  55.0114489  54.5562172  43.4243584  54.0276861  53.8159084
  44.0481901  56.0051489  54.7558546  43.6737871  56.7194319  55.3639030
  45.3472137  56.0529995  54.1033220  45.1775455  56.0750246  53.0268288
  46.1289263  57.3886204  54.4653034  46.2467527  57.5247574  55.5403328
  47.1208572  57.2434664  54.0373898  45.6468105  58.6442661  53.7829399
  45.4500818  58.3967400  52.7398062  44.7672033  59.0104723  54.3123579
  46.6991568  59.7544622  53.7425327  47.1824360  59.7556353  54.7195435
  47.3982334  59.4730568  52.9550028  46.1635685  61.1182308  53.3772039
  45.4590654  61.0880709  52.5460196  45.7815361  61.6053677  54.2743397
  47.2292709  62.0789242  52.8558445  46.9136763  62.9952574  52.5715303
  47.8980064  62.1173811  53.6117601  47.5561047  61.6573095  51.9982195
  46.2089682  54.7932005  54.4495106  46.9176865  54.2938566  53.5485744
  46.1892605  54.2524576  55.7153273  45.6069994  54.7274637  56.3901854
  46.9376421  53.0583334  56.1694050  47.9656649  53.1411743  55.8166981
  46.8582439  53.0200243  57.7342415  45.8463240  53.0435371  58.1386805
  47.5877428  51.8038654  58.3592749  47.6863909  51.7352962  59.4426346
  47.0136547  50.9339046  58.0403757  48.5774326  51.7347908  57.9077911
  47.4831247  54.1318130  58.3039236  47.1975565  54.9029541  57.8085423
  46.3868093  51.7073107  55.5734825  47.0997000  50.7509327  55.3615999
  45.0985575  51.6991377  55.2330017  44.5851660  52.4757767  55.6246185
  44.4415855  50.5968046  54.5114422  44.7451305  49.6123600  54.8675776
  42.9630518  50.5854464  54.8700857  42.4865866  51.4110374  54.3414259
  42.6307535  49.6638107  54.3923140  42.5437880  50.6316280  56.3419914
  43.1481028  51.3303041  56.9205713  41.0314465  50.8879757  56.4348888
  40.6609154  50.9348536  57.4589062  40.8863115  51.8383884  55.9213209
  40.4758978  50.0512314  56.0114241  42.8590202  49.3906403  57.0645857
  42.4354601  48.5470772  56.5195131  43.9125299  49.1129112  57.0976114
  42.5519133  49.4103146  58.1102419  44.6415567  50.7591391  52.9580832
  44.5632458  49.8101234  52.1971989  44.9369621  51.9848013  52.4804497
  45.0533819  52.6979923  53.1860781  45.1660156  52.3517895  51.0730791
  44.5909691  51.6606474  50.4568434  44.7673225  53.8076210  50.7726717
  43.8343048  53.8900375  51.3301611  45.3701210  54.6162939  51.1859274
  44.2801189  54.1125631  49.3815565  44.9803829  54.7077894  48.4047222
  45.9938622  55.0495577  48.5545588  44.2093182  54.7147560  47.2921991
  44.5887613  55.0097513  46.4038849  42.9409552  54.2418003  47.4425364
  41.8417025  54.0946627  46.6520929  41.7441845  54.5430899  45.6744385
  40.7121325  53.4060431  47.0484495  39.8838496  53.3568525  46.3571310
  40.7290077  52.8539371  48.3388853  39.9143672  52.2270536  48.6702204
  41.8370676  52.9771948  49.2112732  41.8881083  52.4625349  50.1593876
  42.9984760  53.7004137  48.8109255  46.6859531  52.1216774  50.6462193
  47.0473289  52.5012255  49.4953585  47.4343204  51.3460636  51.4970827
  47.1193743  51.0230875  52.4007368  48.8400793  51.0164547  51.2946653
  48.9785862  51.0639429  50.2145433  49.7570181  52.0089483  52.0473003
  49.3222761  52.2205639  53.0241919  50.7288122  51.5325737  52.1768332
  50.0088501  53.3662319  51.3624239  50.2163553  53.2295227  50.3011274
  49.0689993  53.9088297  51.4642525  51.0855341  54.2041159  52.0860672
  52.0293760  53.6676693  51.9886637  51.2008190  55.1436186  51.5455580
  50.7878637  54.5032120  53.6125422  50.7451582  53.5946035  54.2131281
  51.6547298  55.0341320  54.0059471  49.5572186  55.3271151  53.6571980
  49.6714354  55.9851265  52.8995180  48.7175083  54.7892952  53.4967566
  49.3865919  55.8594513  54.4983912  49.0743351  49.5754623  51.8048334
  49.7376585  49.3484306  52.8535795  48.4624434  48.5853100  51.2036180
  47.9162550  48.7987900  50.3813028  48.4313488  47.2299242  51.6348124
  49.3605280  47.0551014  52.1771860  47.1672058  47.1186447  52.5564098
  47.2348881  47.8754187  53.3379507  46.2529087  47.4791241  52.0850086
  46.8448687  45.7471275  53.1510067  46.5108824  44.5665884  52.4988937
  46.5327930  43.6373854  53.4358692  46.2053680  42.6170731  53.3011103
  46.6900444  44.1511583  54.6367788  46.6110420  43.6736917  55.5232811
  46.8212605  45.4887342  54.4761753  46.9842625  46.2470293  55.2277184
  48.3714819  46.2805319  50.4317379  47.5994968  46.3521862  49.4980240
  49.1466570  45.2065229  50.5113411  49.5109272  45.0132132  51.4333153
  49.3296480  44.1631699  49.4562244  49.8818159  44.7194481  48.6987495
  50.3322792  43.0573273  49.9753904  51.2743521  43.4920120  50.3095198
  49.9838018  42.4520683  50.8122444  50.6733418  42.0442629  48.8837576
  51.1349344  41.1855841  49.3713045  49.7894239  41.5221786  48.5173941
  51.5324593  42.4802113  47.6981163  51.5317154  43.6019182  47.3249340
  52.2575808  41.5742826  47.0206165  52.8617144  41.8375301  46.2552214
  52.2751760  40.5978441  47.2782135  48.0137920  43.5567284  48.8194370
  47.8578281  43.4234285  47.6121283  47.0736837  43.2886839  49.7189713
  47.1904850  43.6983871  50.6347227  45.8508015  42.5511980  49.4715643
  45.9017849  42.0810032  48.4895182  45.8860397  41.2139463  50.2953672
  46.0288620  41.4742279  51.3441515  44.9465370  40.6639767  50.2408123
  46.9447994  40.1843786  49.9251366  46.7468214  39.3504930  48.7722158
  45.8530903  39.5696998  48.2068825  47.7574587  38.4136105  48.4421492
  47.5645161  37.8312421  47.5533152  48.8986921  38.3230996  49.2524195
  49.6407175  37.5986552  48.9507914  49.0272522  39.0541077  50.4399061
  49.9342299  38.9894414  51.0226727  48.0394888  39.9623108  50.7882738
  48.1944132  40.5055904  51.7087317  44.5101404  43.2741785  49.6173286
  43.4635544  42.6995802  49.4587898  44.5938158  44.5965052  49.8002911
  45.5102539  44.9847269  49.9721193  43.3717585  45.3936863  49.9827862
  42.5834131  44.8656607  50.5192566  43.7339211  46.6075182  50.7883120
  42.8679419  47.1378756  51.1844206  44.2643595  46.3560438  51.7067337
  44.3532896  47.2719193  50.1857710  42.7310419  45.7772350  48.6816454
  41.5574932  46.0311985  48.6170816  43.5217571  45.6101179  47.6044512
  44.4729710  45.4019642  47.8727245  43.0887079  45.7864857  46.2021494
  43.0806637  46.8534517  45.9793901  44.1199589  45.1084089  45.2075291
  44.0149784  45.6336308  44.2582035  45.1237345  45.3949976  45.5212069
  44.0595961  43.6170626  44.8476982  45.0051785  42.7266121  45.2618217
  45.7761002  42.9327917  45.9895372  44.6705198  41.4496899  44.7971153
  45.0820732  40.5365467  44.9270773  43.5126734  41.4966154  44.0009165
  42.8212023  40.4923248  43.2862091  43.0925035  39.4557571  43.4215975
  41.7668438  40.8497953  42.5280857  41.2018394  40.2156305  41.8610001
  41.3477707  42.2155285  42.5071383  40.4512024  42.5231314  41.9895029
  42.0583105  43.2110596  43.1765318  41.7242146  44.2323732  43.0683374
  43.1209755  42.8587389  44.0245485  41.6592264  45.2896023  45.7827520
  40.9407711  46.0386610  45.0695515  41.1419487  44.1398239  46.2582493
  41.7474413  43.0900335  47.1400833  41.6119385  43.4274578  48.1676483
  42.7485609  42.8681326  46.7704725  40.9661150  41.8278503  46.8248844
  40.9905863  41.1710501  47.6944351  41.4534712  41.2978315  46.0065603
  39.5874906  42.3131466  46.4033747  38.8743877  42.4023581  47.2229052
  39.2015386  41.7438412  45.5577803  39.7244263  43.7588501  45.9429216
  39.7315645  43.8271618  44.8550892  38.6072373  44.6993876  46.5311480
  37.4409270  44.6770811  46.1137152  38.9957547  45.6302118  47.3504972
  39.9518728  45.9342241  47.2342396  38.1375718  46.4609480  48.2048512
  37.1082187  46.1300230  48.0668879  38.3913589  46.3757753  49.7041035
  39.3623257  46.7804861  49.9896383  37.5815153  46.9488716  50.1555681
  38.2862496  44.9423552  50.2385187  37.0393014  44.3743563  50.2820492
  36.1754751  44.9379587  49.9617910  36.7959571  43.0113554  50.6083679
  35.7928610  42.6163101  50.6726933  37.9099894  42.1825933  50.7661819
  37.8981924  41.1035681  50.8105373  39.2198324  42.7130175  50.7674170
  40.0926685  42.0772886  50.7878590  39.4135976  44.1050529  50.4398775
  40.4203463  44.4952583  50.4153013  38.2257199  47.9137421  47.6390982
  37.3667240  48.7429523  47.9854870  39.1798496  48.3720446  46.7853022
  39.6316934  47.5988531  46.3182688  39.4357967  49.7692347  46.3745070
  39.3012404  50.3450918  47.2901392  40.9451962  49.9314690  45.9408045
  41.1336470  49.5152950  44.9511671  41.0851479  50.9977770  45.7633162
  42.0347786  49.5808697  46.9371462  41.7763805  49.6798849  48.3295298
  40.7949114  49.8081589  48.7615776  42.8827477  49.6250772  49.2255068
  42.7363968  49.6794605  50.2941656  44.2188168  49.4979763  48.7777805
  45.2400684  49.4577646  49.6975040  44.9627495  49.6072483  50.6043386
  44.3741083  49.5082378  47.3406506  45.3828049  49.4360781  46.9615316
  43.3209085  49.5064259  46.4322996  43.5536242  49.6307373  45.3850222
  38.4449911  50.2767134  45.3332710  38.3150482  51.4871311  45.1756859
  37.6485157  49.3729782  44.7509670  37.6120067  48.4526825  45.1654911
  36.6656685  49.7299767  43.6628437  36.3626051  50.7574034  43.8644600
  37.3938465  49.6197748  42.3415279  36.7469954  50.1391315  41.6344547
  38.2803440  50.2536297  42.3627234  37.7022171  48.2102442  41.8584251
  36.8099523  47.6009750  42.0024920  37.8967190  48.2524157  40.7867432
  38.8632894  47.5983429  42.5162649  39.8661208  48.2031155  42.6399946
  38.7862968  46.3833761  42.9558802  39.5015764  45.9917498  43.5517931
  37.9473662  45.8327150  42.8415775  35.4021025  48.8818884  43.7811613
  35.5620074  47.8586912  44.4115496  34.1657829  49.2539930  43.2235146
  33.8467312  50.4228592  42.4557352  34.2001939  50.2687120  41.4362240
  34.3466067  51.2801743  42.9065609  32.3363280  50.5424500  42.5853157
  31.8410277  51.1160088  41.8018579  32.0156670  51.0371065  43.5021591
  31.9195914  49.1019869  42.5327063  31.8452430  48.7537575  41.5025091
  30.8735633  49.0468121  42.8341770  32.9597449  48.3314037  43.3576393
  32.7628970  48.2475376  44.4264317  33.1329823  46.9446278  42.7932215
  33.8676882  46.7298412  41.8210745  32.3515415  45.9600925  43.3425045
  31.5800214  46.2307692  43.9354563  32.5020194  44.5890427  42.8035688
  33.5633492  44.3631554  42.7003479  31.9795156  43.4558821  43.7058449
  30.8915782  43.4893990  43.7639046  32.3523831  42.0811510  43.1594801
  31.8350863  41.2696409  43.6712933  31.9110441  42.0003700  42.1661043
  33.4395337  42.0068026  43.1334877  32.4739075  43.4430552  45.1741171
  32.2963881  44.3267155  45.7870913  32.1002722  42.5759745  45.7187891
  33.5606980  43.4456921  45.2576780  31.7319465  44.5706558  41.4841557
  30.5353308  44.8095655  41.4763117  32.4186492  44.4994164  40.3812218
  33.4198856  44.3667459  40.3859329  31.8595028  44.8511553  39.0161514
  31.0195160  45.5457783  39.0108418  32.8698826  45.5567026  38.1016064
  33.3720660  46.3451719  38.6621690  33.5561633  44.7618103  37.8096080
  32.2338820  46.2700081  36.8702936  33.0306029  46.8565369  36.0720491
  30.9890127  46.4411306  36.8583655  31.3112068  43.5353231  38.3492255
  31.8782997  42.7877617  37.5680828  30.0906920  43.1955767  38.8011289
  29.5480585  43.7732744  39.4271564  29.5814133  41.7684603  38.6592150
  30.3147125  41.0472775  39.0201521  28.2975364  41.6200972  39.4700027
  27.7904439  40.6616592  39.3588400  28.4198308  41.9097424  40.5136728
  27.5967360  42.3671627  39.0973496  29.3670392  41.4230919  37.1500301
  29.1584611  40.2985001  36.8270016  29.3234396  42.3774099  36.2355232
  29.4192600  43.3130121  36.6037250  29.3714261  42.0401764  34.7826171
  28.7843680  41.1310387  34.6524811  28.7339067  43.1705046  33.9423060
  29.2691445  44.1023159  34.1249275  28.9046788  42.8773165  32.5356674
  28.4288001  41.9413996  32.2429419  28.5073233  43.7199116  31.9697642
  29.9598932  42.7726221  32.2833443  27.2814941  43.3552313  34.2600322
  26.7379284  42.4218512  34.1136026  27.1399736  43.5898018  35.3150439
  26.4634085  44.3757296  33.5167933  26.9468307  45.3480244  33.6118770
  26.4283729  44.2141819  32.4393988  25.4133320  44.2532969  33.7822151
  30.7696939  41.6613626  34.3492079  31.0428500  40.6262970  33.7140727
  31.7137861  42.5518942  34.6135831  31.3732457  43.2715797  35.2350211
  33.2115483  42.4500513  34.2409730  33.2730007  42.3528767  33.1570530
  33.9025283  43.7299299  34.6362162  33.4356833  44.5266628  34.0571022
  33.6207509  43.8464642  35.6826973  35.4377294  43.8648319  34.4233441
  35.8438420  44.7564983  34.9009514  35.8880830  43.0378628  34.9723458
  35.9144711  43.8465500  32.9563808  36.9955277  43.8475323  33.0957222
  35.3779936  43.0428123  32.4521041  35.4644632  45.1141787  32.4086094
  34.3747067  45.1104116  32.4313951  35.9187198  45.9430218  32.9515362
  35.7240272  45.1868534  30.9561038  36.6814446  45.0216579  30.6801224
  35.1325369  44.5065641  30.5006337  35.4096317  46.0347414  30.5062819
  33.8126063  41.2420082  34.8899937  34.5974946  40.6159782  34.1981721
  33.5305691  40.9022999  36.1481833  32.8985953  41.4835405  36.6800427
  33.8367438  39.7105479  36.9638109  34.7734809  39.2952728  36.5920973
  34.0339184  40.0966358  38.4408259  33.0188155  40.4173756  38.6749029
  34.2214179  39.1725135  38.9875841  35.0466299  41.1325741  38.9078593
  34.9218345  42.0036554  38.2646370  34.7830844  41.4662266  40.3374100
  33.8627577  42.0330811  40.4780340  34.7811103  40.6440258  41.0530138
  35.5529094  42.1472931  40.7001972  36.4300179  40.5738878  38.7214327
  36.4876270  39.6281886  39.2603421  36.6618490  40.2761650  37.6988316
  37.2347307  41.2301445  39.0529084  32.9421020  38.4687853  36.7956758
  33.2040358  37.4325204  37.4658179  31.8463182  38.6999726  36.0335469
  31.6292834  39.5724773  35.5734038  30.8668828  37.6234818  35.6892228
  29.9854589  38.0007005  35.1706672  31.4585304  36.7833591  34.6017075
  31.8931699  37.3297238  33.7646389  32.2643399  36.1996961  35.0467992
  30.4883599  35.8066416  34.0301394  30.8744740  34.7800088  33.4829068
  29.2760777  36.2170315  33.8613486  28.6110520  35.7046628  33.2998133
  29.0072036  37.1142292  34.2392898  30.3474641  36.8175364  36.9251633
  30.1765680  35.6405377  36.8116641  30.0281906  37.4336839  38.0566525
  30.2842879  38.4046578  38.1649280  29.3582964  36.9154954  39.2222190
  29.8177528  35.9651089  39.4938350  29.5444584  37.8168797  40.3825045
  29.1646791  38.7826991  40.0492477  28.9934516  37.4024463  41.2267447
  30.9527087  37.9785562  40.8764410  31.5184999  38.3821154  40.0367260
  31.1740804  39.0041804  41.9581366  32.2588396  39.0996289  42.0059490
  30.7211447  39.9745083  41.7546368  30.6151390  38.7064242  42.8452826
  31.7082524  36.7509079  41.3481283  32.7855825  36.9015551  41.2790728
  31.3825512  36.5287423  42.3643303  31.4832139  35.9319019  40.6649828
  27.8659630  36.6413450  38.8688159  27.1727085  37.5906944  38.5721564
  27.3607850  35.3955126  39.0899467  28.0621266  34.1179109  39.2612815
  28.0713916  33.8028574  40.3047180  29.1312981  34.1926622  39.0628242
  27.3607278  33.1733370  38.2465339  27.5773764  32.1490836  38.5499668
  27.6093793  33.3622146  37.2022176  25.9199071  33.5494900  38.4429026
  25.6117201  32.9938459  39.3285561  25.5086160  33.2317495  37.4847889
  25.9374237  35.0939155  38.7122440  25.8054543  35.6435847  37.7802849
  24.9526668  35.5327296  39.7621012  23.8313580  35.9095001  39.4670534
  25.2995920  35.7293987  41.0346842  26.1819100  35.3029704  41.2791681
  24.3581891  35.9887457  42.1344995  23.4261942  36.3868666  41.7332649
  23.9226580  34.6942997  42.7981567  23.2029009  34.8894715  43.5931158
  23.3701062  34.1225863  42.0525503  25.0307608  33.7248659  43.2122850
  24.7320175  32.6989388  43.8488770  26.2340045  33.9800906  42.9556227
  24.6185327  37.1267486  43.0784178  23.9170170  37.3303461  44.0586805
  25.7088685  37.8459120  42.7879572  26.3163066  37.5579071  42.0341825
  26.2159944  38.8438916  43.7259340  26.4174390  38.3284473  44.6649981
  27.5567627  39.4701838  43.3731031  28.2930160  38.6680412  43.3220959
  27.4311471  39.8620486  42.3637676  27.9769278  40.5307436  44.3251371
  27.8711534  41.9032001  43.9457607  27.4531078  42.1192455  42.9736662
  28.3783436  42.9477310  44.8053741  28.3546257  43.9989281  44.5587397
  28.8893104  42.5821829  46.0606480  29.4397545  43.5207319  46.9108868
  29.8547888  44.2045736  46.3801289  29.0330458  41.1974382  46.4373064
  29.4745827  40.9187937  47.3827219  28.5898590  40.1509523  45.5526543
  28.8466787  39.1485143  45.8617878  25.2270222  39.9884367  44.1512966
  24.9321485  40.0631809  45.3585005  24.7560716  40.9005833  43.2915449
  25.0781131  40.8146429  42.3381281  23.6980295  41.8941545  43.5767365
  23.9946413  42.4830198  44.4446993  23.4632134  42.8533745  42.4319744
  23.1313634  42.3370504  41.5312052  22.6925778  43.5711813  42.7130032
  24.6254301  43.6388016  42.0080042  25.3404951  44.6267223  42.7248621
  26.3926125  45.0829220  41.9161224  27.1247339  45.7942295  42.2688866
  26.4260936  44.3700027  40.7885599  26.9456339  44.6743059  39.9776483
  25.3348327  43.4748650  40.8420897  25.0005674  42.8388023  40.0358057
  22.2996998  41.3165331  44.0402031  21.6327667  41.9185638  44.7903252
  21.9745684  40.1462221  43.5285616  22.6070762  39.6406913  42.9248476
  20.7552671  39.3488741  43.8945484  19.9081874  40.0266600  43.7888813
  20.5448508  38.1226635  42.9251814  20.4968381  38.5177159  41.9104242
  21.3479233  37.3947906  42.8095341  19.2511034  37.2651410  43.1269073
  19.1627991  37.0261455  44.1867113  18.3888149  37.8113222  42.7444887
  19.3810439  35.9134603  42.3756361  19.7695661  35.9990263  41.3608313
  20.1416612  35.2826786  42.8357220  17.9773533  35.3024054  42.3865652
  17.2214746  35.9626055  41.9612598  18.0274904  34.4827080  41.6698503
  17.4779427  34.8672843  43.6486673  17.3689997  35.6820130  44.2355633
  16.5783393  34.4082618  43.6380100  18.1139040  34.1789341  44.0252686
  20.7465100  38.9868808  45.3589058  19.7063446  39.0536642  45.9946251
  21.9313502  38.8261724  45.9733725  22.7875662  38.9643192  45.4557753
  22.0674658  38.5242391  47.4513102  21.0922551  38.1388450  47.7488661
  23.2309294  37.5146937  47.6369190  24.1115713  37.9007030  47.1235275
  23.4275031  37.1956301  49.1687346  23.6222219  38.1338763  49.6882343
  22.5740051  36.6343737  49.5490456  24.0794015  36.3317585  49.2985535
  22.8982329  36.1742067  47.0179081  22.1757412  35.6345844  47.6302099
  22.4911904  36.3249040  46.0180569  24.1731024  35.3926492  46.7314100
  23.9224696  34.4289422  46.2880707  24.7982502  35.9442306  46.0292339
  24.7922683  35.1558709  47.5966692  22.2590423  39.8341489  48.2846928
  21.6757727  40.0401497  49.3987513  23.1189370  40.7576752  47.7963114
  23.4773850  40.6528854  46.8578863  23.7558389  41.8504763  48.5918140
  23.7705708  41.5511322  49.6398020  25.2122593  41.9621420  48.1889725
  25.2359009  42.0880938  47.1065331  25.9516525  43.1393385  48.8777256
  26.2347484  42.8162098  49.8794937  26.7684817  43.3493996  48.1872416
  25.2388334  43.9637518  48.8958645  25.9696913  40.6467962  48.3466101
  25.5716705  39.9609876  47.5987148  27.0172310  40.8434248  48.1183672
  25.8892560  40.0799990  49.7600031  26.5991545  39.2944312  50.0189161
  26.0936928  40.7989216  50.5533838  24.8817158  39.7564340  50.0212812
  22.9429150  43.1526232  48.4426641  22.9499340  43.8631439  47.4320412
  22.1133924  43.4585667  49.4731522  22.0718431  42.7856541  50.2251959
  21.2460065  44.7078133  49.4928885  20.5992627  44.6627808  48.6166430
  20.3596878  44.6819830  50.7920599  20.9333515  44.8703194  51.6995478
  19.5315850  45.3730345  50.6346083  19.6186984  43.4157181  51.0595846
  19.2019689  43.0621862  50.1164770  20.3677535  42.7311707  51.4575958
  18.4698260  43.5145283  52.0781660  18.7635183  43.8139868  53.0842304
  17.8051805  44.3361568  51.8111801  17.7466714  42.1691370  52.0224333
  17.1148396  42.2011471  51.1348152  18.4934580  41.3752508  52.0350790
  17.0652485  41.8927050  53.2548904  16.7608178  42.7598858  53.6737299
  16.2600231  41.3407564  52.9959249  17.6362503  41.3558578  53.8919497
  21.9205523  46.0797501  49.4935846  21.3707733  47.0509958  48.9784622
  23.1648445  46.1091232  50.0949526  23.5123897  45.2489853  50.4942989
  23.9609790  47.2936153  50.2081490  23.5182929  48.0302095  49.5376539
  23.7362933  47.9903269  51.5617990  24.1304111  47.3233461  52.3285484
  24.3620944  48.8805485  51.6248941  22.2733593  48.3895493  51.8343067
  21.7981267  49.4139671  51.4892149  21.5252757  47.5292683  52.4718189
  20.5709815  47.8157520  52.6371956  21.9019246  46.6756010  52.8584719
  25.4405808  47.1300077  49.7925854  26.3088632  47.0281267  50.6289673
  25.7600975  46.9992733  48.4473085  24.7887588  47.0175552  47.3304033
  24.0994477  47.8123474  47.6154470  24.3500757  46.0200787  47.3038816
  25.6192327  47.2962570  46.1234856  25.8659744  48.3459473  45.9642124
  25.1478529  46.9688892  45.1968098  26.8435001  46.4457655  46.4418793
  27.7345514  46.7269039  45.8805513  26.5795517  45.4136467  46.2112665
  27.0614767  46.6927099  47.9603910  27.4601293  45.8309841  48.4957504
  27.9601836  47.9131794  48.2385921  27.7205014  49.0290117  47.7983904
  29.1808152  47.6683426  48.7696409  29.2703366  46.7346048  49.1440916
  30.0388122  48.7694740  49.1994429  29.7654629  49.6911907  48.6858130
  29.7636747  48.9404440  50.7440281  28.6906433  49.1261578  50.7910299
  29.9498940  47.9633951  51.1898947  30.5664921  49.9981594  51.4498997
  30.0910163  50.0543880  52.4291134  31.6217995  49.8316145  51.6659737
  30.4309773  51.6648912  50.6634760  28.6573124  51.7195702  50.6298447
  28.3960962  51.1918879  49.7125530  28.3271885  51.3016415  51.5808678
  28.2632113  52.7357340  50.6158447  31.4825296  48.4584379  48.9321423
  31.8352127  47.3141241  48.6913538  32.3460340  49.4554186  49.0352154
  32.0375013  50.3771544  49.3096638  33.7646818  49.3607950  48.5831833
  34.0821862  48.3557510  48.8610029  34.0130663  49.4646692  47.0900774
  35.0873494  49.3467522  46.9482756  33.6175489  48.5298586  46.6928530
  33.4332657  50.7363558  46.4031839  32.1841550  50.9313869  46.3743067
  34.3018961  51.5058136  46.0597086  34.5168829  50.5655575  49.2291927
  34.0083361  51.7067099  49.4595194  35.8035135  50.3056335  49.6557474
  36.1790371  49.3777037  49.5214748  36.6877699  51.2065220  50.3437233
  36.2233186  51.5329313  51.2742329  38.1159854  50.5497789  50.6880474
  37.9017568  49.5703506  51.1157417  38.7013555  50.4407501  49.7750568
  38.9716887  51.3818550  51.6498423  39.1086864  52.3192835  51.1108065
  38.4018779  51.6996431  52.5230169  40.5964088  50.7355261  51.9921970
  40.2185631  49.1013288  52.7998400  39.4708443  48.4576130  52.3365498
  41.1522245  48.5797215  53.0103254  39.7798085  49.2699766  53.7832832
  36.9436145  52.4301767  49.4589520  37.1720958  53.5013247  49.9852514
  36.8006110  52.3026848  48.1450176  36.3724041  51.4481640  47.8186131
  36.7843628  53.4238195  47.2115898  37.7493262  53.9301872  47.1883440
  36.5829825  52.9612970  46.2453461  35.6773496  54.4635391  47.3990250
  35.9425402  55.6328630  47.5233984  34.4486046  54.0617323  47.5226164
  34.3674874  53.0961609  47.2376633  33.2366204  54.8217821  47.9259920
  33.1799650  55.6549597  47.2254848  31.9600582  53.9886856  47.8074598
  32.1039581  53.0856991  48.4007597  30.6930685  54.7715330  48.2254696
  30.7570934  55.1065445  49.2607307  30.5421209  55.6322241  47.5739098
  29.7891617  54.1985941  48.0186033  31.6432333  53.5323763  46.5663385
  32.0830154  52.6821423  46.4935827  33.4394240  55.4242945  49.3256140
  33.3699918  56.6240597  49.4661093  33.9576674  54.6858597  50.2422619
  33.9704919  53.6927032  50.0590181  34.2836523  55.1571178  51.6264009
  33.4345961  55.6794643  52.0672655  34.6157598  53.9125919  52.5180674
  35.5650926  53.5040331  52.1717310  34.9114537  54.3915844  53.9987421
  34.1346407  55.1337433  54.1827440  34.9734378  53.5053015  54.6302223
  35.7882261  55.0268173  54.1246414  33.3921170  52.9956770  52.5842237
  32.6755500  53.5044575  53.2290316  32.9379082  52.8534746  51.6036272
  33.6673069  51.5214252  53.0548096  32.7386284  51.0286808  53.3426619
  34.1211915  50.9565639  52.2405434  34.3846893  51.5249920  53.8754511
  35.4420805  56.2271595  51.6791105  35.3530192  57.2504997  52.3101759
  36.4228916  56.1047697  50.8487797  36.3867736  55.2371025  50.3330851
  37.5548935  57.0015192  50.7099342  37.8610802  57.3299026  51.7031670
  38.7385058  56.3514519  49.9998903  39.0207982  55.3737020  50.3903055
  38.4914303  56.2307310  48.9451504  39.9089050  57.2608042  50.2378416
  39.7001243  58.2356358  49.7971439  40.0754166  57.3889875  51.3073969
  41.0925007  56.5830326  49.5384789  41.3795519  55.7214832  50.1413345
  40.7802868  56.2796211  48.5391998  42.3879051  57.3759413  49.4423485
  42.5319910  57.8857136  50.3949642  43.1931925  56.6488075  49.3380117
  42.3525190  58.2756996  48.3109140  42.0270872  57.8347063  47.4625587
  41.7998028  59.0909672  48.5343885  43.3024645  58.5675907  48.1305885
  37.0575547  58.2849741  50.1203585  37.4101114  59.3836641  50.5665064
  36.2314749  58.2161188  49.0691328  36.0493660  57.3082781  48.6657047
  35.5677152  59.3780899  48.4415770  36.3324094  60.1543140  48.4701681
  34.9988461  58.9499378  47.0667601  34.3254280  58.1037331  47.2029352
  34.3642449  59.7489548  46.6834164  36.0833836  58.7925625  46.0051346
  36.5466857  59.7779465  46.0548639  36.7224288  57.9185820  46.1311388
  35.3814173  58.7247133  44.6641111  34.6557140  57.9201460  44.7829580
  34.8384261  59.6355152  44.4117165  36.3897514  58.3975601  43.4962463
  37.2570181  59.0573120  43.5222530  36.7667603  57.3774338  43.5691166
  35.6421447  58.5060310  42.2100163  35.4570723  59.4703627  41.9735384
  36.1839509  58.0390644  41.4969349  34.7470975  58.0507374  42.3181963
  34.4783473  60.0298119  49.2887592  34.6365452  61.1877823  49.4554520
  33.6203623  59.3151331  50.0384235  33.6508250  58.3110619  49.9334669
  32.6729178  59.8551798  51.0408211  32.0301104  60.5851126  50.5487871
  31.7443156  58.7660122  51.6478491  32.4366546  58.0309582  52.0582867
  31.1428142  59.1965866  52.4484158  30.7692504  58.2607603  50.5818129
  30.0777388  59.0651751  50.3311491  31.2614083  57.9460859  49.6615601
  29.9524093  57.0872927  51.1492634  30.5383682  56.1916304  51.3555193
  29.5426226  57.4141836  52.1049404  28.9044857  56.7244339  50.1741314
  28.7523198  57.3184252  49.3715572  27.9734254  55.7397747  50.4031038
  27.9829288  55.0132942  51.4804411  28.5596800  55.2388334  52.2783136
  27.1589375  54.4304466  51.5182257  26.9561720  55.6823874  49.5887423
  27.1007872  56.1613750  48.7113810  26.2425590  54.9867630  49.7529507
  33.4370065  60.6336594  52.1469021  32.8418708  61.5565634  52.7055120
  34.5971036  60.2246141  52.4939823  34.9003267  59.3833256  52.0245218
  35.4712033  60.9471607  53.4628344  34.8530722  61.2481737  54.3086576
  36.6263795  59.9798489  53.8143015  36.9893670  59.5252943  52.8924942
  37.4773788  60.5171537  54.2328739  36.2767458  58.8009071  54.8233843
  35.4092932  58.3255672  54.3654823  37.3691535  57.6703739  55.0011969
  36.8234587  56.8499231  55.4672194  37.7659535  57.2954321  54.0577602
  38.2556105  58.0116987  55.5357981  35.9008980  59.3025398  56.2391138
  35.1085806  60.0479031  56.1700439  35.4197264  58.5294294  56.8381739
  36.7835474  59.6731567  56.7603397  36.1095428  62.1835852  52.8456640
  35.8871388  63.2581472  53.4596205  36.6266036  62.0805311  51.6445637
  36.5699410  61.1561108  51.2416601  37.1096134  63.2712126  50.8790493
  37.9532814  63.7035227  51.4170408  37.8002501  62.7343607  49.5230532
  38.3182669  61.7934465  49.7086239  37.1301460  62.5206709  48.6903429
  38.8874888  63.7702703  49.1125154  39.2381525  63.6336279  48.0895472
  38.6011672  64.8219585  49.1039276  40.0575256  63.7008953  50.0697803
  40.5324554  64.7611189  50.5559444  40.5609941  62.6115036  50.3386641
  36.0086632  64.3066359  50.6690550  36.1779308  65.4837608  51.0461617
  34.8412228  63.9270782  50.1996851  34.6958971  62.9759645  49.8924923
  33.6266661  64.7323656  49.8095989  33.9580798  65.7274628  49.5128727
  32.9470968  64.1051579  48.6027241  32.5902200  63.1089497  48.8640928
  32.1149111  64.7062302  48.2362843  33.7997746  63.9484358  47.3640776
  34.1487336  62.8652096  46.8526220  34.2338514  64.9525499  46.6956139
  34.7546101  64.6832037  45.8731985  33.9740086  65.9024286  46.9198847
  32.6780272  64.9666977  51.0126543  31.5227437  65.3302002  50.8607388
  33.1813049  64.9114370  52.2401476  34.1730857  64.7491407  52.3408318
  32.4533510  65.5214310  53.3540821  33.0444121  65.2096701  54.2152214
  32.2235394  67.0396614  53.0758810  31.3127136  67.2124863  52.5026274
  32.0009255  67.5036383  54.0367508  33.3957529  67.8410387  52.5566769
  34.5200610  67.7242947  53.0184889  33.2142496  68.6824322  51.5491104
  33.9459491  69.1563797  51.0391235  32.3190546  68.6376667  51.0835791
  31.0892105  64.8215055  53.6976767  30.2062607  65.4668236  54.2608166
  30.8393049  63.5432768  53.3622122  31.5902042  63.0158615  52.9402065
  29.5147920  62.8711700  53.3142948  28.8239908  63.4413433  52.6931715
  29.7848487  61.5125847  52.7064419  30.2733970  61.6610765  51.7434406
  30.3937244  60.9118891  53.3821154  28.5873008  60.6476021  52.4738312
  28.3131671  59.5771408  53.3479643  28.8601279  59.5307255  54.2780638
  27.2400403  58.6372900  53.1242466  26.9877625  57.8967237  53.8687706
  26.5284014  58.7047434  51.9053650  25.4816031  57.9719305  51.5424299
  25.2927780  57.2916794  52.1929693  26.8843985  59.7140312  51.0120249
  26.3274193  59.8715591  50.1002359  27.9061127  60.6662798  51.2587595
  28.1578517  61.3472700  50.4592085  28.8397908  62.5857353  54.7070265
  27.5840116  62.6180077  54.7911024  29.6621370  62.2262812  55.6592560
  30.6526399  62.2078514  55.4626083  29.2027569  61.7724133  56.9848537
  28.2731962  61.2155104  56.8670511  30.1482725  60.7276630  57.6315260
  31.0932446  61.2288857  57.8410578  29.8059225  60.4409218  58.6258459
  30.4071832  59.5157099  56.7979336  29.3737721  58.6286926  56.5511942
  28.4245133  58.7212801  57.0578861  29.6236968  57.5244570  55.7087946
  28.8778496  56.7715740  55.5007553  30.8654571  57.4297190  54.9852800
  31.0434628  56.5029573  54.0329885  30.3543663  55.8709192  53.8155556
  31.8819714  58.3973789  55.2837086  32.8230715  58.3564091  54.7554541
  31.6839194  59.4479895  56.1519718  32.5245237  60.0421095  56.4788008
  29.0746856  62.9338932  57.9793072  29.9210811  63.8484144  57.8856707
  28.1178594  62.8453636  58.9144135  27.4766088  62.0650482  58.9106417
  28.0229521  63.8301945  60.0512123  28.3850884  64.8097563  59.7390938
  26.5499401  63.9812279  60.4428148  26.5165710  64.8158979  61.1430359
  25.9988546  64.4629765  59.6351528  25.7995939  62.8053331  61.0566235
  24.8257351  62.0689106  60.3936386  24.5695949  62.3273277  59.3767738
  24.4702363  60.9448290  61.1573029  23.9251399  60.1811123  60.7835245
  24.9283767  61.0930490  62.4696541  24.7767639  60.3453922  63.6324167
  24.0419793  59.5631027  63.7529087  25.4048824  60.7920170  64.7897625
  25.1102686  60.2438688  65.6724501  26.1360526  62.0080853  64.7929621
  26.5915775  62.4158812  65.6832457  26.3263440  62.7146912  63.5709286
  26.9776869  63.5755253  63.5374880  25.7287955  62.2938347  62.3734093
  28.7750483  63.3066988  61.2845993  29.0119529  64.0541983  62.2380877
  29.1430640  62.0197725  61.3252735  28.9198422  61.4363527  60.5316162
  30.0100946  61.3502455  62.3251867  30.8098578  61.9917011  62.6953506
  29.1625404  60.9611320  63.5279894  28.9163280  61.9211483  63.9816952
  28.2629776  60.5351210  63.0836773  29.7595596  59.9581146  64.3274260
  29.0896940  59.3552542  64.6582365  30.8509016  60.1527357  61.8557787
  30.4257083  59.4316530  60.9648275  32.0377970  59.9069118  62.3509121
  32.3815489  60.5108547  63.0838490  32.9116130  58.7326193  62.0489693
  33.1182289  58.7861919  60.9800720  34.2804384  58.8116884  62.7183771
  34.8233128  59.6787357  62.3420572  34.1719604  58.6605024  63.7923765
  34.8109341  57.9511356  62.3107862  32.3053217  57.4278164  62.5949287
  32.6383901  56.3408041  62.1386099  31.2851739  57.5098085  63.4275579
  31.0729599  58.4128428  63.8270473  30.3143120  56.3100719  63.6602736
  30.9599710  55.5119848  64.0267277  29.2726350  56.6532087  64.7104740
  28.7421107  55.7134581  64.8638201  29.8325396  57.0248699  65.5686569
  28.3178592  57.6197290  64.2619085  27.6041150  57.2837591  63.7148333
  29.6748018  55.8130646  62.3850250  29.6727467  54.6063900  62.1910429
  29.1494918  56.7408085  61.5565252  29.1376638  57.7429199  61.6819620
  28.4253931  56.3414621  60.3007174  27.7430677  55.5161381  60.5041265
  27.6694798  57.5808668  59.6813202  28.4052372  58.2818031  59.2870522
  27.0965433  57.3446798  58.7846279  26.6929793  58.3030176  60.6436491
  27.3503733  58.9521456  61.2220669  26.0315681  58.9113617  60.0267601
  26.0353446  57.3169422  61.5314865  25.4969716  56.3568020  60.9127331
  26.1453056  57.3835945  62.7731657  29.4508481  55.7325983  59.2922258
  29.1337252  54.9208784  58.3928537  30.7035351  56.2127447  59.3557501
  30.8857703  56.9428682  60.0294018  31.8373156  55.6214046  58.5699606
  31.6494751  55.7237625  57.5011587  33.1199217  56.4666224  58.7601948
  32.9338026  57.4829483  58.4130001  33.3806777  56.4295149  59.8178911
  34.4430590  55.8243513  57.6605749  34.4806623  54.5232201  57.9614687
  32.0547199  54.1112614  58.8657761  32.2902298  53.2170391  58.0130625
  32.0901155  53.7352943  60.1975298  32.1015167  54.4179344  60.9418249
  32.1701908  52.3578310  60.7363749  33.0693746  51.9594765  60.2663851
  32.4343085  52.2251415  62.2249317  31.6169643  52.7545786  62.7145720
  32.3953700  51.1800146  62.5319910  33.8231587  52.7755642  62.6699209
  34.5811105  52.2833490  62.0605469  33.8915467  53.8600016  62.5838137
  34.2898989  52.4755526  64.3868828  34.3676758  50.6628942  64.4805384
  34.5823097  50.2355242  63.5010529  35.0589013  50.3475618  65.2621222
  33.4181786  50.2152300  64.7740555  31.0495448  51.5090561  60.2158356
  31.3841629  50.3517199  59.8760033  29.8381901  52.0087194  60.0725269
  29.6582389  52.8610945  60.5835724  28.7912774  51.3166046  59.3721819
  28.6388469  50.3393936  59.8303556  27.4720955  52.0632982  59.5005226
  27.5119472  52.5999260  60.4484367  27.4310184  52.8113747  58.7088156
  26.1928248  51.2381792  59.3646526  25.3721404  51.9290400  59.1715574
  26.3534808  50.6280136  58.4758377  26.0021567  50.2820063  60.5046177
  26.2709212  50.6700039  61.6300821  25.5086899  49.0259647  60.3340197
  25.6301570  48.3732033  61.0951042  25.2825785  48.7142086  59.4003296
  29.1471314  50.9000540  57.8725958  28.9689159  49.7177219  57.4896717
  29.5824337  51.8237352  57.0302105  29.6413541  52.8070498  57.2531891
  29.8340058  51.5089989  55.5983877  28.9939666  50.9362459  55.2054644
  30.1412487  52.7560663  54.7274828  31.0263681  53.2475758  55.1313257
  30.4301953  52.2498035  53.8064480  28.9325547  53.6902094  54.5550060
  27.8045750  53.3226681  54.8651981  29.0857387  54.7221184  53.8382006
  30.9994125  50.5075502  55.4839373  30.7883763  49.4597483  54.8553324
  32.1571875  50.6615114  56.2270069  32.2691488  51.5279865  56.7337561
  33.1602550  49.5315981  56.4034843  33.5730863  49.3187332  55.4173994
  34.3451643  49.9043894  57.3634863  33.9372230  50.3521729  58.2696724
  34.9148393  48.9907265  57.5331593  35.4643488  50.8212996  56.8732023
  35.4947615  52.1613312  57.2453117  34.6986628  52.5620556  57.8552723
  36.5453100  52.9989958  56.7877245  36.4654064  54.0620995  56.9604158
  37.6010847  52.4573660  55.9909487  38.4248281  53.0813551  55.6771183
  37.6550412  51.0127926  55.7634020  38.5081220  50.5866432  55.2563953
  36.5782571  50.2566814  56.1954880  36.7229152  49.1975117  56.0417700
  32.5749731  48.1975794  56.9310522  32.8306079  47.0588303  56.4677763
  31.6945076  48.2267618  57.9787779  31.6916299  49.0856838  58.5101366
  31.1628175  46.9526911  58.5576963  31.9470143  46.2222099  58.7565327
  30.4936171  47.3179245  59.9171591  31.0665131  47.8091717  60.7036495
  29.7798824  48.1157637  59.7119093  29.8154211  46.0519791  60.5039787
  28.6337256  45.7945776  60.2351665  30.5775499  45.2628899  61.2304878
  30.1544547  44.4089079  61.5648651  31.5464926  45.5111217  61.3706064
  30.2388978  46.2017298  57.5205231  30.1376343  44.9505758  57.5805807
  29.6124291  47.0023584  56.6302204  29.6613908  48.0064774  56.7274618
  28.7387013  46.5142679  55.5433035  28.0009222  45.7894945  55.8875179
  27.9769111  47.7231979  54.9345732  28.6778784  48.4392405  54.5055914
  26.8614721  47.2693205  53.9669275  27.2676682  46.6784906  53.1459427
  26.1043501  46.6850376  54.4898796  26.4059138  48.1907797  53.6043406
  27.3177409  48.4759760  55.8905220  27.9367113  49.1004038  56.2759686
  29.4880342  45.7846928  54.4661713  29.2052436  44.6465635  54.0677071
  30.6356955  46.3986969  54.0277100  30.8286333  47.3616171  54.2636395
  31.6077924  45.7298899  53.1481075  31.1928511  45.6254673  52.1456003
  32.7732301  46.7048120  52.8326559  32.4247694  47.6977158  52.5483704
  33.4234619  46.8709469  53.6915493  33.7784433  46.2392998  51.7829323
  34.3285751  45.3734064  52.1512985  33.2668924  46.0582542  50.8376074
  35.0866461  47.3793268  51.5494204  36.1090684  46.8404245  52.9489899
  36.9878125  47.4825430  52.8890324  35.5940366  46.9138193  53.9068270
  36.4268827  45.8048248  52.8280544  32.1446872  44.3936014  53.6668587
  32.1778989  43.3931780  52.9755783  32.6164079  44.3877506  54.9333143
  32.5646973  45.2173901  55.5070066  33.1527686  43.1798029  55.5508423
  33.8980579  42.7517843  54.8804331  33.8791370  43.4165192  56.8299866
  33.3178186  44.0094471  57.5521088  34.1215014  42.4892282  57.3491096
  35.1365280  44.3011045  56.7008448  36.1127877  43.9333534  55.7350206
  35.9283471  43.0915642  55.0840378  37.2005510  44.7894526  55.5070019
  37.9334044  44.5395470  54.7540903  37.2487164  45.9973240  56.2447023
  38.0370307  46.7274427  56.1356449  36.3593578  46.3007069  57.2639179
  36.4494967  47.2543716  57.7627182  35.2891517  45.4101181  57.5277138
  34.6007109  45.6264782  58.3312273  32.1224165  42.1050644  55.6458664
  32.2312307  41.0024023  55.1402807  30.9734750  42.4346495  56.2605095
  30.8617306  43.3988237  56.5397596  29.7598577  41.6029119  56.3548899
  30.0673509  40.7887506  57.0111609  28.5437155  42.3245525  56.8578720
  28.3639550  43.1463766  56.1647701  27.2099614  41.6252565  57.0650196
  26.5820670  42.3416710  57.5947380  26.7902374  41.4355421  56.0771179
  27.1494484  40.6355238  57.5176430  28.7955070  42.7708578  58.1639099
  29.4647050  43.4464169  58.0320072  29.4208407  41.0020256  54.9288368
  29.2147613  39.7668815  54.7907925  29.3787026  41.7874193  53.8294268
  29.7320819  42.7248240  53.9578629  29.0354347  41.3267708  52.5519609
  28.0474305  40.8675146  52.5840950  28.9084721  42.4247599  51.4929342
  29.8575115  42.9607105  51.5068293  28.6566854  41.7735195  50.6559229
  27.8103113  43.4440899  51.7829990  26.7955184  43.0672598  52.3352337
  27.9374480  44.6616745  51.4179134  27.1850801  45.2998400  51.6342211
  28.7114716  44.9951839  50.8613586  29.9784875  40.2968168  51.9115543
  29.5135045  39.2627239  51.4011669  31.3439679  40.4083633  52.1193171
  31.6937518  41.1054945  52.7610016  32.2819471  39.3338203  51.7817163
  32.3173690  39.1943073  50.7012653  33.6842656  39.7757292  52.3032904
  34.0640736  40.6563234  51.7852211  33.6210871  39.9058104  53.3836603
  34.8466849  38.4173226  51.9800425  35.8920312  38.7574816  52.7392769
  31.7827511  38.0397534  52.5272655  31.7169285  37.0119023  51.7996788
  31.4414263  38.0408263  53.8007164  31.4473629  38.9006329  54.3306208
  31.1021018  36.8455338  54.5855141  31.7677736  36.0028219  54.3989038
  31.1993194  37.1331286  56.0833025  30.3357434  37.7712607  56.2707138
  31.1596227  36.2235761  56.6826677  32.5185537  37.9161358  56.4538050
  33.8418508  37.7098823  55.9236383  34.0095949  36.9797754  55.1456881
  35.0276852  38.3680129  56.3996315  35.9930468  38.1975913  55.9463835
  34.8352361  39.3774176  57.3641491  35.8819723  40.0087500  57.8448439
  35.5812669  40.4944706  58.6163712  33.5327148  39.6464968  57.8512192
  33.3995676  40.4132652  58.6000443  32.4181676  38.9798808  57.4036264
  31.4575887  39.0562773  57.8913260  29.6985865  36.2012768  54.2801189
  29.4719052  34.9818826  54.4509363  28.7400031  36.9502378  53.8088083
  28.9951754  37.9207802  53.6946297  27.4578929  36.5604281  53.2358980
  26.9689393  35.9316063  53.9799452  26.4625788  37.7723455  53.1124163
  26.9223380  38.5828257  52.5468636  25.1236129  37.3732996  52.3124266
  24.3302178  38.1148314  52.4059820  25.3757620  37.0947623  51.2892246
  24.8503160  36.4697981  52.8574896  25.8946157  38.4492612  54.4030380
  24.9887347  37.9081559  54.6763372  26.6855669  38.4773779  55.1525068
  25.4936504  39.9231195  54.1354465  24.6306062  39.9378371  53.4698296
  25.2326298  40.3736877  55.0930262  26.3226795  40.5562592  53.8193083
  27.6205587  35.7528472  51.9822788  27.0156002  34.7106218  51.9259024
  28.3138943  36.2584162  50.9716940  28.7121487  37.1691108  51.1509371
  28.4387660  35.6069088  49.6662998  27.4922395  35.1846242  49.3288612
  29.0393186  36.6618252  48.6832762  28.6660576  37.6774216  48.8149738
  30.1052046  36.7677450  48.8851881  28.9622760  36.3950825  47.1906185
  27.6865911  36.2950993  46.5410376  26.7983413  36.4909935  47.1233130
  27.6454425  35.9339809  45.2019358  26.7231774  35.8082366  44.6541977
  28.8082719  35.7346344  44.4734478  28.6141324  35.3567362  43.1981802
  27.8178239  34.8271012  43.1145859  30.0673795  35.8196449  45.0882149
  30.9788775  35.6779361  44.5265293  30.1339531  36.0512924  46.4698362
  31.0763192  36.2109923  46.9726706  29.4174004  34.4372201  49.6585083
  29.2940474  33.5229564  48.8662624  30.4123545  34.4207454  50.4990625
  30.5587077  35.2667260  51.0310364  31.5969396  33.5277033  50.5130148
  31.6216731  32.9692006  49.5772982  32.8620839  34.3337941  50.3935719
  32.9612327  34.8990297  51.3202715  33.6723232  33.6051226  50.3680134
  32.9475689  35.2002859  49.1408014  33.2895279  34.6733022  48.0893278
  32.8533387  36.5089726  49.2789698  33.1100297  37.0983124  48.4999371
  32.6172495  36.9613051  50.1506090  31.5993595  32.5846601  51.7996073
  31.2054896  32.8623033  52.9462624  32.2055745  31.4430523  51.6131163
  32.5210690  31.1366725  50.7038879  32.3700905  30.3708386  52.5923347
  31.4707351  30.3902149  53.2078695  32.3510456  29.0200758  51.8651390
  33.0961514  29.0917301  51.0728121  32.5421166  28.1789231  52.5315189
  30.9768796  28.6379218  51.0954380  30.2576733  28.6096954  51.9140053
  30.7057142  29.5085669  50.4983234  30.9930682  27.3455405  50.2297783
  31.8606901  27.3834133  49.5710707  31.0875678  26.5405393  50.9585714
  29.6397638  27.2668457  49.5193768  28.8099480  27.1770024  50.2203989
  29.5263219  28.1850195  48.9430189  29.4390011  26.0337615  48.8111401
  28.4528136  26.0425472  48.5932922  29.8817348  26.0592699  47.9037046
  29.6794415  25.1865101  49.3055582  33.5919642  30.6965852  53.5023737
  34.4843650  31.4911652  53.1303120  33.6231446  30.1648617  54.7655773
  32.8044319  29.0802217  55.3059578  33.2871008  28.1100225  55.1882696
  31.8221593  29.0712118  54.8335600  32.6066470  29.5050406  56.7413282
  32.2204161  28.6764956  57.3349953  31.9475746  30.3732109  56.7387152
  34.0323639  29.9842191  57.1209621  34.6553373  29.0905118  57.0849895
  34.1216660  30.4861760  58.0843782  34.3821383  30.7964110  55.8790731
  34.0502357  31.8345523  55.8648205  35.9635210  30.7349730  55.7295799
  36.6179919  31.3007879  56.5986395  36.4611125  29.8891735  54.8471689
  35.8753419  29.3157744  54.2570972  37.8582788  29.7467232  54.5889473
  38.2861376  30.5722523  55.1577616  38.4686422  28.4027338  55.0693703
  39.4669342  28.2385468  54.6637106  38.5287523  28.3939242  56.6229343
  39.4427204  28.8738322  56.9728661  37.6163936  28.7878942  57.0706987
  38.6729288  27.3851991  57.0099545  37.6353478  27.3002672  54.6402264
  37.3958731  27.3263335  53.7109423  38.2903504  30.0683260  53.1284666
  39.4271469  29.7425032  52.7019072  37.3981071  30.5434942  52.3145914
  36.5222979  30.7155681  52.7872944  37.6544762  31.1530375  51.0292149
  38.2782435  30.5083156  50.4100657  36.4310622  31.4047694  50.1390362
  35.8415699  32.1517205  50.6706953  36.7195725  31.9180512  49.2217493
  35.4458451  30.2677178  49.8420334  35.6852221  29.0535331  50.1075125
  34.3916011  30.5317545  49.1698265  38.6408567  32.2568846  51.0754204
  38.5639977  32.9851174  52.0575762  39.6082330  32.3739767  50.1136398
  39.6472740  31.6530061  49.4073963  40.6845474  33.3262110  50.2249289
  41.3634634  33.1142092  51.0508966  41.5858793  33.3255243  48.9350843
  41.0191488  33.5767579  48.0385351  42.3522329  34.0864801  49.0825558
  42.3573160  31.9993782  48.7832212  42.4916887  31.4916825  47.6349258
  42.6508999  31.4068460  49.8358536  40.2237272  34.7930384  50.4668474
  40.8368349  35.4389977  51.2934351  39.0993381  35.1854920  49.8815680
  38.7214804  34.5262671  49.2161798  38.4915900  36.4971972  49.9923706
  39.2864323  37.1908903  49.7182941  37.4730277  36.7068887  48.9110708
  37.8673887  36.4380193  47.9311275  36.2578130  35.8144951  49.2511988
  36.4904213  34.8103166  49.6056271  35.5806303  36.1720943  50.0268602
  35.6685615  35.7179856  48.3392954  37.1078825  38.2209325  48.7486601
  36.3795447  38.2782626  47.9397440  36.6785979  38.5045004  49.7095966
  38.2911086  39.1128874  48.3929253  39.0382886  39.1343904  49.1862440
  38.7333441  38.8628769  47.4285460  37.8091526  40.0847626  48.2867002
  38.0404162  36.7503619  51.4660978  38.3963060  37.8294301  52.0277596
  37.4777603  35.6666470  52.1405554  37.5687122  34.7381330  51.7536592
  37.1969914  35.7439208  53.5534334  36.5488338  36.5816331  53.8108015
  36.3541269  34.4955063  53.9770842  36.9409633  33.5971570  53.7855244
  36.1191607  34.3993592  55.5278873  35.8984184  35.3276372  56.0548353
  35.2845335  33.7546515  55.8033180  37.1193743  34.1743827  55.8981085
  35.0117159  34.5420885  53.3017063  34.6162343  35.4999280  53.6396980
  35.1423407  34.5427990  52.2195625  34.3873787  33.6840343  53.5507917
  38.4147310  35.9393454  54.4752598  38.4884667  36.9072008  55.2602768
  39.4213200  35.0542164  54.2811537  39.3692374  34.5080161  53.4331799
  40.7777500  35.1736999  54.8794794  40.6582117  35.1146340  55.9612942
  41.7419577  34.0098453  54.5438242  41.9957733  34.1967106  53.5003901
  42.6298332  34.0311885  55.1757431  41.1523390  32.6098847  54.4602394
  40.2689505  32.7071834  53.8291645  41.9986391  31.4826441  53.7867546
  42.9059172  31.3535738  54.3769121  41.5134668  30.5290699  53.9950848
  42.0570660  31.6948986  52.7192163  40.7447147  32.0735979  55.8535576
  39.9183774  32.6737475  56.2344551  40.3769970  31.0483050  55.8943129
  41.6809702  32.0778012  56.4116907  41.4440203  36.5565157  54.5822048
  42.1723461  37.0287347  55.4957628  41.1213160  37.3037839  53.4918928
  40.5767727  36.8982935  52.7441311  41.6542053  38.6585331  53.2121801
  42.6380777  38.5818958  53.6750269  41.6549110  39.0153790  51.7533541
  40.6786156  38.8708687  51.2906885  41.8461275  40.0851822  51.6693354
  42.6857710  38.2630920  50.9539413  43.7014961  38.5375309  51.2386942
  42.5779200  37.1789193  50.9861422  42.6185131  38.5881782  49.1293621
  43.8369083  37.3610735  48.4100771  43.9930534  37.4929929  47.3394156
  44.7949696  37.5495124  48.8945532  43.6118031  36.3106012  48.5943079
  40.9289646  39.7589183  54.0095043  41.5721703  40.5604601  54.7099829
  39.5949244  39.7231865  53.8782740  39.2590427  38.9054418  53.3898306
  38.5906625  40.6755209  54.3085909  38.8548446  41.6845417  53.9920521
  37.2078228  40.4058218  53.8393259  36.9719672  39.3574882  54.0222597
  36.5218067  41.0527515  54.3861055  37.1799827  40.6604195  52.7798414
  38.7132621  40.6725931  55.8447599  38.8886404  41.7570734  56.3904858
  38.8990808  39.5011234  56.4968443  38.9424562  38.6863971  55.9014988
  39.0133405  39.3630314  57.9113293  38.2453656  39.9546170  58.4096622
  38.7182927  37.9677296  58.4155941  38.3191013  38.0916595  59.4222641
  37.8603840  37.5814390  57.8652525  39.8011208  36.9180036  58.3565187
  40.2365160  36.8924356  57.3575783  40.5516052  37.2779322  59.0603113
  39.4198942  35.4887319  58.7758780  38.2763314  35.1366305  58.9931107
  40.3453779  34.5726728  58.8206244  40.0627756  33.6113477  58.9474916
  41.3122511  34.6492791  58.5388613  40.3689528  39.9736571  58.4448290
  40.3523588  40.6350708  59.5008993  41.4884663  39.7015142  57.7171803
  41.4433002  39.3837810  56.7595243  42.7652740  40.2739620  58.1738091
  42.9016352  40.1054525  59.2420387  44.0067959  39.6904898  57.4505138
  43.8395357  40.0243235  56.4264584  44.9443054  40.0660992  57.8605080
  44.0317345  38.6020708  57.5037575  42.7432871  41.8104601  58.0984640
  43.1789064  42.4185467  59.0675211  42.2985458  42.3974133  56.9836092
  41.8582058  41.8181086  56.2831736  42.0815706  43.9014196  56.8319702
  43.0513620  44.3258095  57.0917845  41.8327570  44.0996838  55.3209782
  42.5567865  43.6502504  54.6413517  40.8974075  43.6127520  55.0450706
  41.5971136  45.6010103  54.8461390  40.8624554  46.0441017  55.5184793
  42.9003239  46.4661074  54.9303293  43.0583763  46.5955114  56.0010147
  43.6862993  45.9273815  54.4010639  42.7721786  47.4791861  54.5490837
  41.0665131  45.6101322  53.4096146  40.6140757  46.4884949  52.9493093
  41.8793297  45.3189087  52.7443123  40.2768230  44.8632145  53.3283043
  41.0144854  44.5010042  57.7490377  41.1734724  45.6919336  58.1454325
  40.0444126  43.7789869  58.2089472  39.8031712  42.8705835  57.8392029
  39.2400002  44.1173220  59.3521833  38.7720871  45.0837088  59.1644049
  38.0248761  43.1495047  59.3720913  37.5100446  43.0271482  58.4191608
  38.3480883  42.1415424  59.6321869  36.9721794  43.5813379  60.4730129
  37.4429655  43.3305311  61.4235687  36.8567085  44.6627569  60.5457926
  35.6932521  42.8013134  60.4358435  34.6463704  43.5065079  60.4305506
  35.7603526  41.5672445  60.3388405  39.9723101  44.2686033  60.7490730
  39.7290087  45.1633358  61.5390062  41.0842180  43.4661579  61.0344267
  41.2705183  42.7374887  60.3603029  41.8910980  43.5786200  62.2606039
  41.1059666  43.6065483  63.0161762  42.7773952  42.3594666  62.4334955
  43.3218479  42.2735834  61.4931250  43.4114122  42.5410748  63.3013391
  41.9141388  41.0996675  62.6776361  41.5215731  41.1008930  63.6944914
  41.0632944  41.0715151  61.9969177  42.7393341  39.8372579  62.4611473
  43.1167793  39.8314643  61.4385986  43.6047077  39.8476410  63.1238174
  41.9749022  38.5528350  62.9016542  41.7402649  38.6657786  63.9600945
  41.1541796  38.5221362  62.1850109  42.8485918  37.3571706  62.7300882
  42.2681236  36.5578437  62.9404116  43.1797886  37.3346686  61.7762041
  43.6850214  37.3084283  63.2941008  42.7465630  44.9209547  62.1386480
  42.6815701  45.7359695  63.0565882  43.4435320  45.2138376  61.0269260
  43.5841560  44.4597626  60.3698969  44.1022921  46.5801954  60.8033419
  44.8751211  46.8437624  61.5253973  44.8681355  46.5788651  59.4695520
  44.1653347  46.5370131  58.6374331  45.5760813  47.9693937  59.2740774
  46.4885759  48.0867004  59.8586178  45.8220768  48.1451464  58.2268381
  44.9648190  48.8453817  59.4911242  45.8015871  45.4371595  59.1255569
  45.3195763  44.4741488  58.9571142  46.1680126  45.6894064  58.1304598
  46.9214916  45.2555370  60.0663567  47.4887705  44.3934631  59.7154713
  47.6116228  46.0976028  60.1187420  46.4825821  45.0985003  61.0516500
  43.1011391  47.7725410  60.9157324  43.4307718  48.7512636  61.5498209
  41.9455910  47.7310324  60.2762556  41.6177225  46.9405079  59.7398996
  40.8484793  48.6980629  60.4009771  41.1609697  49.6325302  59.9348927
  39.7495294  48.2631493  59.4414711  40.0441170  48.3277655  58.3940220
  39.5719767  47.2000551  59.6039724  38.4444094  48.8791132  59.7263718
  38.1094646  50.2565241  59.5187998  38.8273501  50.9236813  59.0649939
  36.9229889  50.8205986  60.0023794  36.6926789  51.8754482  59.9768400
  35.9406519  49.9964666  60.5562162  35.0676990  50.3875208  61.0576534
  36.1999416  48.6129332  60.7342386  35.4456806  48.0299330  61.2417841
  37.4289012  48.0805588  60.3058147  37.5098634  47.0067596  60.3882837
  40.3330612  48.9598322  61.8488312  40.4205608  50.0916767  62.3568153
  39.9023390  47.9115295  62.6449871  39.9275970  46.9532013  62.3270750
  39.3927979  48.0931044  64.0007305  38.6227989  48.8545513  64.1248274
  38.9183021  46.7255497  64.5552492  39.7919297  46.0738850  64.5408583
  38.6012363  46.5992641  65.5904388  37.7479529  46.2535095  63.6747217
  37.8908467  46.4943027  62.6212978  37.4762607  44.7746563  63.9273691
  37.4771714  44.7110653  65.0155115  36.5159249  44.5682526  63.4548616
  38.1699777  44.1007566  63.4246540  36.4525700  46.9248056  64.0058184
  36.5055728  47.9973412  63.8188410  35.6281304  46.5682268  63.3883572
  36.3287091  46.8086004  65.0825071  40.5530930  48.5640287  64.9826384
  40.3287506  49.3702602  65.8867311  41.7252874  47.9523420  64.8639965
  41.8924141  47.3163080  64.0974236  42.9463911  48.4025908  65.6395340
  42.8282404  48.3313084  66.7207670  44.1247749  47.4651575  65.2842617
  44.3470716  47.4914694  64.2174959  45.0013351  47.8970003  65.7672262
  43.9906836  45.9925365  65.8194542  44.2009258  46.0050488  66.8889093
  42.9707766  45.6136322  65.7536650  44.9687052  45.0181341  65.2408600
  45.7185316  45.3251171  64.2911959  45.0690651  43.8397646  65.8109617
  45.6994295  43.2319164  65.3077030  44.4903040  43.5219145  66.5752268
  43.2900620  49.8635483  65.3174257  43.4643078  50.6513309  66.1946392
  43.3844757  50.1893473  64.0380907  43.3857298  49.4757366  63.3233452
  43.6422253  51.5959930  63.6353302  44.5286465  51.9215059  64.1797543
  44.0543985  51.6628456  62.2330475  44.6369410  50.7648420  62.0272923
  43.1590843  51.5411425  61.6233730  44.7711945  52.9542542  61.7508173
  44.7932100  52.9733038  60.6612015  44.1240263  53.7879086  62.0233870
  46.2268591  52.8561068  62.3317337  46.1431122  52.8969240  63.4177494
  46.7378807  51.9702911  61.9545221  47.0695257  54.0663147  61.9988155
  46.9811344  54.1509771  60.9157133  46.6999483  54.9626970  62.4968338
  48.4955311  53.7134171  62.2715473  48.8164473  52.9193020  61.7362833
  49.0419531  54.5460129  62.1033096  48.7049913  53.4496737  63.2237387
  42.5801992  52.5858879  64.1895151  42.9431391  53.7770796  64.2678976
  41.3669825  52.1634579  64.4760084  41.1410761  51.2343884  64.1505957
  40.3702307  52.9428434  65.1883698  40.4427719  53.9672232  64.8230076
  38.9362240  52.3890781  64.9455833  38.8262582  51.3127422  65.0779057
  37.9378438  53.1037283  65.8785486  38.1884575  54.1639566  65.9133196
  36.8803859  52.9873848  65.6411695  37.9579568  52.7515411  66.9098854
  38.5210323  52.7350807  63.5469055  39.0618253  52.1063089  62.8395891
  37.4668407  52.5962973  63.3070755  38.7321258  53.7756491  63.3004093
  40.6074810  52.9794598  66.7225409  40.6324005  54.1228676  67.2705650
  40.9155703  51.8265581  67.3923540  40.8575249  50.9291029  66.9326735
  41.0267115  51.8705463  68.9067841  40.1442194  52.1674538  69.4734907
  41.2435722  50.3973007  69.3181658  42.0152426  50.0418186  68.6353350
  41.7133331  50.3661203  70.3012514  40.3587770  49.7628736  69.3705225
  42.1925068  52.7317381  69.3564415  42.1524477  53.4121561  70.4090786
  43.2269955  52.7475262  68.6159849  43.1106663  52.1140051  67.8380251
  44.5601749  53.4208965  68.7223101  44.9468851  53.4096575  69.7413445
  45.5164099  52.7826118  67.6875591  44.8842716  52.4885368  66.8496895
  46.4392328  53.3375072  67.5184822  46.0407877  51.3834667  68.2346821
  46.7056417  51.4871597  69.0921926  45.1690483  50.8468103  68.6090708
  46.7605877  50.5533075  67.1425295  47.0192575  50.9940338  66.0472488
  47.0228386  49.2790461  67.3603630  47.5027370  48.6668062  66.7161846
  46.6489744  48.9122772  68.2239628  44.6250391  54.8886871  68.5579348
  45.6337786  55.5656910  68.9866161  43.5231113  55.5949593  68.1161642
  42.7581120  55.0112057  67.8093958  43.5055923  57.0143414  67.9680872
  44.0670347  57.2121525  67.0549870  42.0425606  57.3862696  67.7228403
  41.5702820  56.7813635  66.9488001  41.5414047  57.2857809  68.6855698
  41.8214655  58.7927961  67.2427893  41.9303846  59.4645643  68.0942392
  42.5554371  59.1956234  66.5448523  40.0926065  58.9756823  66.5262890
  39.0848494  58.2870722  67.8730726  38.0395198  58.1359816  67.6037025
  39.4738770  57.3032856  68.1356144  39.0975690  58.9899683  68.7060642
  44.1125393  57.9032087  69.0691090  43.5753441  57.8344154  70.1495123
  45.0621319  58.7528944  68.7722826  45.7819748  58.8057137  67.4340820
  45.1343679  59.0589094  66.5946770  46.0819769  57.7954483  67.1557474
  46.9789648  59.7192955  67.6243210  46.7950392  60.7118082  67.2129822
  47.8916264  59.3643188  67.1456385  47.1321440  59.8119307  69.1478872
  47.6566696  60.7011414  69.4975710  47.6710320  58.9073277  69.4296598
  45.7438707  59.5774078  69.8024940  45.8114719  59.0164471  70.7346201
  44.9366522  60.9183455  69.9751186  45.5087185  62.0235348  69.7412586
  43.7136316  60.8605433  70.4939842  43.4502506  59.9324560  70.7929611
  42.8182268  61.9249630  70.9862852  42.7125740  62.6408768  70.1711750
  41.4152575  61.3042402  71.2334061  41.1092043  60.7995605  70.3170347
  41.5033054  60.5727625  72.0367050  40.3113317  62.3314619  71.5760136
  40.5246353  62.6344633  72.6010942  40.4709387  63.2664919  71.0390329
  38.9113545  61.8258953  71.4853716  38.5802579  60.8414984  70.8604860
  38.0753613  62.3422194  72.3571873  37.2085786  61.8246460  72.3872614
  38.3128619  63.1078911  72.9715490  43.4191179  62.7232981  72.1878004
  43.1538057  63.9327955  72.2657251  44.1644430  62.1276760  73.0698395
  63.1884956  43.3152771  15.7080483  64.0805531  42.9495001  16.0089540
  62.8185892  42.7012300  14.9965608  62.5794315  43.2544994  16.5114462
  63.3300352  44.7322845  15.4223239  64.2625999  44.7697163  14.8592806
  62.2322464  45.1240921  14.4268274  61.9164944  44.2641830  13.8360965
  61.3516665  45.4416370  14.9852550  62.6086235  46.2715769  13.4557307
  62.9862070  47.0824718  14.0786123  63.3880281  45.9796095  12.7518964
  61.4117193  46.7021942  12.6285517  61.1441660  45.8087349  12.0644176
  60.6494474  46.9250011  13.3751500  61.7609215  47.8856182  11.7071867
  61.9937086  48.7609243  12.3136103  62.7247620  47.6209259  11.2723768
  60.8535528  48.2043934  10.6526577  61.0941696  48.8782883   9.9398619
  60.5762720  47.3351336  10.2195323  59.9458218  48.4564924  11.0167587
  63.4824419  45.6475163  16.6493070  62.7742672  45.3477621  17.6506734
  64.1489744  46.7887783  16.5693307  64.7271919  46.9534445  15.7577538
  64.1739559  47.8252983  17.5789726  63.9004946  47.4447966  18.5631144
  65.5370140  48.5122204  17.7680445  65.7716990  48.9323521  16.7900312
  65.4972458  49.2272663  18.5897660  66.7280912  47.6532602  18.1613803
  66.6677856  46.7963219  17.4904680  68.1138468  48.2197762  17.8959548
  68.2597113  48.2314014  16.8158209  68.0759668  49.2488432  18.2532847
  68.8378477  47.6309490  18.4591675  66.6666651  47.3389816  19.6463704
  66.8732977  48.2418251  20.2210617  65.6452799  47.0761776  19.9217165
  67.3568201  46.5231228  19.8612142  63.0524874  48.8185835  17.1640706
  62.9300070  49.1187286  15.9700632  62.5627756  49.4879484  18.1953549
  63.0189228  49.3009901  19.0768731  61.7026472  50.6968689  18.0997527
  62.2046471  51.4927578  17.5496113  60.3399038  50.4335880  17.5684977
  59.9032450  51.3442850  17.1585429  60.4137945  49.7082376  16.7582464
  59.4334364  49.9195147  18.6100256  58.6955976  49.5049286  18.1569123
  61.5991068  51.3453341  19.5278716  61.9159985  50.6685495  20.4742217
  61.0807657  52.5431061  19.6303666  60.7029200  53.0258560  18.8276899
  60.8643675  53.2262230  20.9237838  61.7131710  53.1452751  21.6028118
  60.4280424  54.6934175  20.5908966  59.9674034  54.6934700  19.6030140
  59.6198368  55.0344324  21.2379074  61.6378212  55.6299067  20.4524398
  62.3521233  55.2238131  19.7362256  61.3268042  56.6210747  20.1223445
  62.2860575  55.7215834  21.8551230  61.6459131  56.3019562  22.7387071
  63.3626509  55.1542807  22.1246576  59.6583700  52.5896263  21.6196036
  59.6815014  52.5129938  22.8663492  58.6512899  52.0619583  20.8766389
  58.6742830  52.1868038  19.8746455  57.6439333  51.3411760  21.4747858
  57.2891331  51.9511366  22.3055458  56.4720488  51.0756493  20.5015922
  56.8463945  50.7648754  19.5262003  55.8440065  50.2627850  20.8661723
  55.5022049  52.2367907  20.2743816  54.3531370  52.3087502  19.4284356
  53.9070940  53.5849380  19.5179212  53.0446482  53.9772749  18.9995968
  54.6928263  54.2673397  20.3943658  54.5409536  55.1948261  20.7642388
  55.6727934  53.4588003  20.8710957  56.4566088  53.7988663  21.5316916
  58.1354094  50.1448488  22.1692419  57.8842640  49.9801636  23.3688784
  58.9279556  49.2564249  21.4982128  59.1379070  49.5573616  20.5572248
  59.5534611  48.1876659  22.2663522  58.7316465  47.5945902  22.6675773
  60.3081608  47.1760845  21.3439441  61.1530972  47.7327251  20.9385633
  60.5841732  46.3340616  21.9787049  59.4112921  46.5605211  20.2553082
  59.3885994  47.3455191  19.4994199  60.0352764  45.2782583  19.6424329
  59.5787430  45.0128603  18.6888909  61.1195898  45.3258896  19.5419610
  59.9655247  44.4624329  20.3619242  57.9268265  46.2135506  20.6336761
  57.8297853  45.6865883  21.5828824  57.4281740  47.1774578  20.7352972
  57.4615240  45.7943583  19.7415578  60.3491020  48.6380053  23.5309124
  60.3079510  47.8893518  24.5881653  61.0876274  49.7803450  23.5113192
  61.0889196  50.2143383  22.5993156  61.8418074  50.3948164  24.6753573
  62.5237846  49.6350956  25.0572467  62.6483345  51.6918278  24.2957854
  63.1592417  51.6019726  23.3371401  61.9870520  52.5455284  24.1474295
  63.7669563  52.0064974  25.3079700  63.4262228  52.3525095  26.2838149
  64.3171072  51.0847712  25.4973316  64.7852898  53.0398273  24.7160864
  65.6214857  53.0114126  25.4147053  65.1275015  52.7253628  23.7301302
  64.1561317  54.3644190  24.5316005  63.9181519  54.5669508  23.5711575
  63.9270258  55.3022814  25.4581475  63.3519363  56.3678932  25.2329540
  62.7997637  56.4762020  24.3942213  63.1641436  57.0390415  25.9639740
  64.3955755  55.2051401  26.6594791  65.0313663  54.4524956  26.8817353
  64.2224026  55.9495354  27.3197722  60.8141613  50.6022835  25.8076382
  61.0824919  50.2386189  26.9364643  59.6625853  51.1720657  25.4993153
  59.4571066  51.5507174  24.5858026  58.5310888  51.3074780  26.5115380
  58.9348078  51.9507885  27.2933745  57.3495531  52.0757866  25.9651351
  57.6561069  53.0653858  25.6262851  56.9259310  51.4905643  25.1489496
  56.2201691  52.1662045  26.9387460  56.3298273  53.1376886  27.9990172
  57.2108650  53.7467575  28.1376243  55.1569128  53.2739305  28.8404560
  55.1777506  53.9533043  29.6797538  54.0299845  52.4842644  28.6733413
  52.8283548  52.7852297  29.2720246  52.1299458  52.2069931  28.9566445
  53.9543152  51.5281391  27.6079893  53.0281019  50.9851646  27.4909091
  55.0949574  51.3675404  26.7945576  55.0169325  50.6627607  25.9799457
  57.9642630  49.9491835  27.0321369  57.7089500  49.7983265  28.2233930
  57.9105234  48.9028597  26.1952615  58.1891632  49.1608047  25.2593517
  57.2689819  47.6129770  26.5161562  56.2988710  47.8001070  26.9765639
  56.9989634  46.8213511  25.2350402  57.9468155  46.5768242  24.7555757
  56.4738464  45.9405661  25.6045938  55.8123922  47.7845478  24.1840219
  56.6494846  48.6936331  23.6763430  58.1461191  46.8425035  27.5504708
  57.5228930  46.0377073  28.2510424  59.4748354  47.0201063  27.6813126
  59.9137974  47.7190685  27.0991945  60.1731396  46.5509319  28.8367367
  60.2699900  45.4701757  28.7333846  61.5393925  47.1788311  28.8150382
  61.5553761  48.2481194  29.0259099  62.1157885  46.6950655  29.6036124
  62.3902464  46.9742060  27.5601220  62.4226952  45.8267689  26.9880104
  63.1291914  47.8801394  27.0908117  59.5923042  47.0480013  30.2108026
  59.4302034  46.2214375  31.0964155  59.2333460  48.2881021  30.3524899
  59.1911125  48.9612722  29.6007180  58.5730934  48.7810230  31.5412092
  59.2282343  48.5212708  32.3727250  58.3399105  50.3373528  31.5366101
  58.0748224  50.6323385  32.5518990  59.2059803  50.9512091  31.2892199
  57.2587490  50.7684135  30.7087207  57.5687599  50.6660080  29.8059416
  57.2011852  48.1340837  31.8323779  56.8067932  47.9292774  32.9577136
  56.4901352  47.6379061  30.8422375  56.6996050  47.8945112  29.8880982
  55.2190495  46.9140530  31.0121727  54.5841789  47.4601650  31.7098880
  54.3543196  46.7509508  29.7227883  54.7482014  46.0297823  29.0066361
  52.9643250  46.1971998  30.1676822  52.6155758  46.9040346  30.9205818
  52.2704411  46.0304642  29.3437719  53.1086922  45.3173923  30.7947397
  54.1649199  48.0781412  29.0818501  53.4486198  48.6576128  29.6642852
  55.1022196  48.6006212  28.8905978  53.4354067  47.9248428  27.7164769
  53.3780003  48.8650513  27.1680164  53.9352274  47.1666718  27.1136022
  52.3668861  47.7366543  27.8211308  55.4379082  45.5321789  31.6591072
  54.6810722  45.1773310  32.5679135  56.2834787  44.6698284  31.1415172
  56.7419577  44.9907255  30.3007269  56.8734789  43.5488081  31.8299437
  56.0203171  42.9036570  32.0397162  57.9091978  42.8002739  30.9934855
  58.3806896  43.6229801  30.4559445  58.6890125  42.3228359  31.5868115
  57.4974775  41.8572807  29.9149275  58.4412479  41.4455223  29.5573640
  56.6681767  40.6701803  30.4026318  57.1614695  40.2881193  31.2963820
  55.6689596  40.9640598  30.7240462  56.6349030  39.9566436  29.5793080
  56.9236422  42.6106882  28.6716080  57.0758009  41.9879723  27.7900362
  55.8462763  42.7221489  28.7939286  57.4306297  43.5672665  28.5450172
  57.2936201  43.8911200  33.2505012  56.9837999  43.0576086  34.1627026
  58.0583429  44.9502182  33.4976530  58.2515907  45.5156183  32.6833534
  58.4955072  45.2380753  34.8106122  59.0352345  44.3825293  35.2166152
  59.4686031  46.3564301  34.7412872  60.3758335  46.0310984  34.2321849
  59.0676880  47.1398163  34.0981078  59.9182701  46.9593906  36.0477138
  60.0721931  46.1513519  36.7628908  60.8441448  47.4818039  35.8070064
  59.1036558  48.0299759  36.8222332  58.1482840  47.5805855  37.0931911
  59.6536398  48.1791735  37.7514052  59.0716600  49.2538881  36.0534692
  59.9368143  49.4417429  35.5673480  58.1458712  50.1356983  35.9151483
  56.9833803  49.9599838  36.5068293  56.8855095  49.2920303  37.2580647
  56.2117529  50.5127001  36.1615825  58.2360888  51.1883068  35.1081514
  59.1678953  51.3914967  34.7756577  57.4564314  51.7997026  34.9120975
  57.3625612  45.4424143  35.8270574  57.4376154  44.9363995  36.9572759
  56.3225651  46.1760807  35.4271722  56.3980055  46.6694260  34.5490909
  55.0930166  46.3752365  36.1390758  55.3638268  46.9613600  37.0172739
  54.1425800  47.2476912  35.2842689  54.6998453  48.0492592  34.7994614
  53.7220526  46.6238165  34.4955730  52.8908253  47.7175474  35.9714651
  52.2677326  48.2738256  35.2711701  52.4004030  46.7955732  36.2837887
  53.0659819  48.6761332  37.1617103  52.0946503  49.1228104  37.7339363
  54.2474031  49.0815687  37.4457407  54.4435310  45.0577211  36.5194464
  54.1674280  44.7299862  37.6737189  54.3005657  44.2602873  35.4935861
  54.5167828  44.5322132  34.5452142  53.6240959  42.9824162  35.5457592
  52.7228785  43.0910730  36.1491632  52.9942560  42.4715662  34.1851377
  53.7853527  42.3189688  33.4509826  52.5750685  41.4817476  34.3658113
  51.7912912  43.3236837  33.5663223  51.1444139  43.6004734  34.3988109
  52.2462225  44.2289352  33.1642556  50.8829260  42.4202347  32.3528957
  52.1942234  42.2028542  31.1751413  52.8912163  43.0086899  31.4052057
  52.8457928  41.3456106  31.3445711  51.8169069  42.3663902  30.1656938
  54.3411589  41.9240713  36.4134693  53.6552191  41.1981821  37.1405292
  55.6266117  41.9107580  36.4177728  56.0995817  42.6316357  35.8917189
  56.4615345  41.0310698  37.1739340  55.9627533  40.0882530  37.3984623
  57.7186346  40.7262707  36.2931275  58.1834364  41.6778660  36.0351968
  58.4886980  40.2343416  36.8873525  57.5041008  39.7534370  35.1112819
  56.6179276  40.0213099  34.5359182  58.7422800  39.9590635  34.2641354
  58.7742615  40.9952784  33.9274812  59.6589899  39.8284340  34.8391843
  58.7247038  39.3583488  33.3547759  57.3006201  38.2906318  35.5869174
  57.2285223  37.6230145  34.7283220  58.0595922  38.0849552  36.3417411
  56.3418007  38.2246661  36.1011338  56.8736982  41.5537071  38.5841227
  57.6235485  40.8293962  39.2766142  56.5147829  42.7904463  38.9695835
  55.9480619  43.2046461  38.2433820  56.7030430  43.5262012  40.2590656
  57.7856541  43.6204529  40.3437090  56.1513424  44.9861002  40.2302313
  56.4552641  45.5309296  41.1240387  56.6536236  45.5771399  39.4644070
  54.7523689  45.0881386  40.3068447  54.3772650  44.9256945  39.4382167
  56.2989283  42.6894999  41.5349150  55.2577114  41.9563532  41.4640141
  56.8340206  42.8950310  42.7669525  57.6165295  43.5267687  42.8601885
  56.2240648  42.3966599  44.0181923  56.1579084  41.3102388  43.9597321
  57.2234583  42.6961470  45.2067518  57.3700905  43.7521887  45.4334068
  56.7722797  42.3541498  46.1381912  58.4952784  41.9291735  45.0273609
  58.3093500  40.8623075  44.9035788  58.9639139  42.2385216  44.0931320
  59.4166660  42.0967007  46.2587023  59.5609093  43.1614113  46.4422321
  58.9947891  41.5643835  47.1112061  60.7576370  41.5234232  45.8541775
  61.1537170  41.9724464  44.9433517  61.4970684  41.8250656  46.5960360
  60.7933569  40.0838375  45.7810211  60.6961584  39.5985770  46.6614580
  60.2009964  39.6819949  45.0684643  61.6639423  39.7551727  45.3883839
  54.8715258  43.0038261  44.4045687  54.1041613  42.2879267  45.0698042
  54.5170116  44.2504740  44.0349007  55.1334763  44.8825026  43.5443830
  53.0987072  44.7090101  44.2326212  52.8037786  44.5575237  45.2709723
  52.8933764  46.1379671  43.8420010  53.2003164  46.3254166  42.8130436
  51.8409538  46.4091778  43.9254522  53.6082888  47.1247149  44.8089743
  53.1529951  47.0883083  45.7986593  54.6489239  46.8454313  44.9738264
  53.4832382  48.5943890  44.3137217  54.0624523  49.2882109  44.9230051
  53.9823103  48.7109804  43.3517265  52.0362806  49.1560316  44.3202209
  52.0774889  50.1209259  43.8148642  51.3945103  48.4421730  43.8038445
  51.5158319  49.4057894  45.6236076  50.9966326  48.6555147  46.0567665
  52.2548389  49.6155643  46.2793159  50.8985090  50.2041149  45.5824137
  52.0743990  43.8518524  43.5051394  50.9988403  43.5903692  44.0081882
  52.3082972  43.6253119  42.1651316  53.2292128  43.8919783  41.8474817
  51.4531374  42.9419470  41.2221193  50.4013491  43.1860924  41.3712311
  51.7880726  43.3655214  39.8331285  52.8587389  43.4678793  39.6562290
  51.5387630  42.6218462  39.0762258  51.1219788  44.6149778  39.3558192
  49.8172760  44.7521448  38.7867975  49.6807861  46.0944796  38.5420895
  48.8019180  46.5206385  38.0812383  50.8061123  46.7422676  38.8741159
  51.0587549  47.6828957  38.6067390  51.7476559  45.8456182  39.2922902
  52.7589417  46.0039234  39.6367264  51.4409637  41.4781857  41.4624262
  50.4101944  40.8481407  41.3270712  52.5823021  40.9083891  41.9594383
  53.4505653  41.4230776  41.9231606  52.6741505  39.5256042  42.4209452
  52.6012659  38.7217021  41.6884613  54.1755819  39.2997694  42.8189421
  54.4196558  39.8136520  43.7487078  54.3977642  38.2344937  42.8815937
  54.7907257  39.5796895  41.9637585  51.7241621  39.1843176  43.5002756
  51.6446447  37.9691219  43.6880732  51.0537386  40.1516104  44.1917658
  51.3685513  41.1107492  44.1593695  49.7396660  39.9286127  44.9418974
  49.9069643  39.4487429  45.9061813  49.0499020  41.2602901  45.1944447
  48.1467152  40.9242392  45.7037783  49.6070957  41.7974806  45.9619522
  48.7991905  41.9613218  44.3983269  48.7423468  38.9809155  44.1351604
  48.2505894  38.0481672  44.7443485  48.4904289  39.2127800  42.8614855
  49.0171671  40.0020790  42.5155735  47.5133801  38.5606456  41.9613934
  47.2269869  37.6272464  42.4460030  46.2704515  39.4921422  41.8597889
  45.3687096  38.9795303  41.5248299  46.1090374  39.9898577  42.8159904
  46.3841248  40.6310272  40.8401346  47.1128082  41.7655993  41.2037086
  47.3713112  41.9016933  42.2434473  47.4813557  42.7351713  40.2543020
  47.9654980  43.6627388  40.5219364  47.1381330  42.4707270  38.9112592
  47.5237465  43.3434296  37.8998494  48.3624744  43.7432003  38.1413531
  46.3893175  41.3360691  38.4915829  46.0694456  41.3136625  37.4602818
  46.0720205  40.3750801  39.4894242  45.3927231  39.5629001  39.2765474
  47.9110909  38.1488347  40.5532837  47.4176168  37.1504331  40.0208616
  49.0048647  38.7011456  40.0213480  49.3728399  39.4798088  40.5489683
  49.5661211  38.3964825  38.7172794  48.7044573  38.1433010  38.0995965
  50.3147888  39.5551062  38.1055856  50.6166124  39.3726325  37.0742249
  49.6822071  40.4426336  38.0900311  51.1846638  39.8357415  38.6994386
  50.4681444  37.0765567  38.5159302  50.6696081  36.6131425  37.4010873
  50.9661531  36.4813209  39.5974708  50.7869625  37.0638537  40.4028559
  51.9487715  35.3924084  39.5800090  52.8820133  35.8350682  39.2318511
  52.1555853  35.0281167  41.0549450  53.0518675  34.4289637  41.2155724
  52.3893547  35.9939528  41.5028429  51.0711288  34.4445872  41.8670940
  50.1010656  35.1487589  42.4315596  49.9254465  36.2014246  42.2658682
  49.1549635  34.3249035  42.9966164  48.4987497  34.6628737  43.6860085
  49.5221710  33.0071926  42.9905415  48.9587831  31.7797065  43.3888960
  48.0880308  31.7240095  44.0253592  49.5339680  30.5584502  43.0079079
  49.0785360  29.6463370  43.3643246  50.7517385  30.6309199  42.2337914
  51.2817860  29.7641683  41.8674707  51.2902117  31.8358159  41.8226337
  52.2233200  31.8796158  41.2806034  50.7307196  33.0820704  42.1872139
  51.4588928  34.0875077  38.8407063  52.3087502  33.3296013  38.4171891
  50.1597357  33.6999369  38.5304379  48.9665604  34.2140722  39.1828728
  48.3529997  35.0011086  38.7444520  49.1824245  34.6328282  40.1658010
  48.0607796  32.9895234  39.2882991  47.1019840  33.5055161  39.3389392
  48.2047176  32.2924423  40.1138067  48.4026480  32.2317195  38.0186343
  47.9112244  32.7684283  37.2071290  48.1143427  31.1809206  38.0470538
  49.8761082  32.4388647  37.8403020  50.3542137  31.6415119  38.4092832
  50.3205585  32.3551750  36.3708258  50.3370142  31.2631536  35.7338285
  50.6325245  33.5119152  35.8219790  50.6490374  34.2504978  36.5106916
  51.0030937  33.7343431  34.4013524  50.6158686  32.9191542  33.7901044
  50.0959969  34.8447371  33.9954543  50.4870844  35.6612229  34.6024966
  50.2934408  35.1483226  32.9673743  48.5483789  34.7197008  34.3225908
  47.7210188  33.7626410  33.6957073  48.1851149  33.0779338  33.0013084
  46.3824034  33.6317825  34.0111756  45.7493591  32.9208803  33.5010076
  45.8742905  34.4642234  35.1199865  44.8267078  34.3375325  35.3500319
  46.7103338  35.2980399  35.8483481  46.3476753  35.9573078  36.6231012
  48.0047941  35.5286169  35.3728747  48.6425734  36.2747574  35.8233380
  52.4831057  34.0192628  34.2451668  52.9241419  34.3164086  33.1610632
  53.2523775  33.9448714  35.3140903  52.7932453  33.7827420  36.1989665
  54.6797228  34.3413901  35.3502059  54.8170662  35.2967215  34.8436689
  55.0729752  34.5492601  36.8441057  54.4966173  33.8318300  37.4282360
  56.1316729  34.3200612  36.9654298  54.8046160  35.9887099  37.3982906
  53.8480282  36.9110918  36.9185853  53.1886768  36.6285110  36.1112428
  53.6057186  38.1791854  37.4731159  52.9658079  38.9196563  37.0163703
  54.3334532  38.4882545  38.6282158  54.2557812  39.6811271  39.1887116
  53.9407444  40.2651787  38.4949994  55.2873325  37.6500988  39.1239595
  55.7900095  37.7652740  40.0728798  55.5053091  36.4417553  38.5025954
  56.3165951  35.8782530  38.9392686  55.6319189  33.3164716  34.7032261
  56.5746546  33.7102365  34.0926743  55.2689934  31.9877172  34.7255993
  54.3891335  31.6773582  35.1124144  56.0472775  30.8716011  34.1869688
  56.7599726  31.3138604  33.4908557  56.8991756  30.3134418  35.3778243
  57.5488997  29.5547080  34.9416137  57.5497150  31.1052108  35.7493019
  56.0877275  29.8121452  36.5581107  55.4021025  30.6138897  36.8323779
  55.4453182  28.9985037  36.2213564  56.8562937  29.3932128  37.7803159
  57.7545023  28.8567233  37.4745393  57.3409128  30.2453518  38.2568669
  56.1821651  28.6361289  38.9082050  55.5496216  27.8209352  38.5568476
  56.8254423  28.0816579  39.5914745  55.3547096  29.5087886  39.7323585
  54.8686123  29.0550113  40.4925537  55.8976984  30.2163243  40.2063370
  54.6801662  30.0434422  39.2039299  55.2582121  29.7975898  33.4036827
  54.0327358  29.7186732  33.4904122  55.9093857  28.9038754  32.5575781
  57.2925329  29.0302968  32.1772981  57.8559446  28.8589382  33.0945253
  57.4677944  29.9827409  31.6770673  57.4816418  27.9098749  31.2060595
  58.5320568  27.6692915  31.0421801  57.1652508  28.2397914  30.2165365
  56.6286469  26.7669344  31.7545843  57.1062565  26.2472582  32.5851989
  56.3630056  26.0186243  31.0078788  55.4552603  27.5474024  32.3669386
  54.6831894  27.5248456  31.5978479  54.8349047  26.7844772  33.5363531
  55.3244686  26.8684697  34.6770453  53.8002920  26.0400248  33.2292843
  53.2562733  26.1479998  32.3851967  53.0616903  25.3089261  34.2068458
  53.3156300  25.7380438  35.1761103  51.5034771  25.5755711  34.1285443
  51.2598133  25.5045271  33.0685067  50.7120562  24.7416782  35.0787854
  50.9881830  24.9350429  36.1153483  49.6586609  25.0067163  34.9881339
  50.8397341  23.6688375  34.9345255  51.2550354  27.0049071  34.5260596
  51.6394520  27.2018743  35.5268240  51.6718721  27.7800798  33.8830566
  50.1737595  27.1390915  34.4953990  53.4829044  23.9047837  34.2562461
  53.5026264  23.1714749  33.2687068  53.8109016  23.4813380  35.4855394
  53.5666370  24.0915203  36.2524247  54.3439913  22.1521282  35.7145452
  55.0581408  21.8984938  34.9311161  55.1599550  22.1969557  37.0365858
  54.5593739  22.5990915  37.8524852  55.6114912  21.2256217  37.2383928
  56.3536692  23.1329393  37.0240784  56.5133476  24.0836215  37.8069043
  57.3212051  22.7571177  36.2322879  53.1794834  21.1310101  35.9036183
  52.9481316  20.6549025  37.0614672  52.5467014  20.8088350  34.8007846
  52.8259325  21.2770486  33.9505458  51.4179087  19.9085689  34.7394943
  50.5581808  20.5535054  34.9212146  51.2092066  19.4664204  33.3475327
  51.8789196  18.6353469  33.1263995  50.2148247  19.0621078  33.1582236
  51.3643312  20.3104305  32.6754594  51.4142990  18.6889338  35.7038784
  50.5507421  18.6160338  36.5730786  52.3978615  17.7452850  35.7656693
  53.1300592  17.8329015  35.0755167  52.4215031  16.6082382  36.7507648
  51.4336300  16.1488664  36.7853355  53.3067799  15.4599309  36.3550639
  52.9417801  15.1111722  35.3890157  54.3382025  15.8116388  36.3312602
  53.3305597  14.2373872  37.4218917  53.6558247  14.6132267  38.3919668
  52.3048639  13.8687885  37.4356723  54.3097496  13.1028616  37.2346187
  55.3154469  13.1079626  36.5036917  54.2150402  12.0914197  37.9718018
  52.6448727  17.0900822  38.2136965  51.9684315  16.6232538  39.1097665
  53.5837936  18.0318713  38.4582615  54.2152643  18.3689559  37.7457166
  53.7988901  18.6594892  39.8050618  54.0499449  17.9205310  40.5659914
  54.9877262  19.6363604  39.7990441  54.6946430  20.3991675  39.0777135
  55.2031374  20.0590038  40.7804060  55.8267832  19.0595865  39.4099188
  52.5638151  19.3854249  40.3599977  52.3722363  19.3687725  41.5595293
  51.6658211  19.9224186  39.5373011  51.8724823  19.8239374  38.5535860
  50.3040743  20.3881669  40.0030041  50.3658533  20.6529951  41.0585403
  50.0348091  21.6952562  39.2268491  50.2356911  21.5921378  38.1605005
  48.9665747  21.9098544  39.2571235  50.6262779  23.0418706  39.8076940
  50.3140974  23.0062723  40.8514261  52.1690130  23.1605601  39.7675085
  52.5267172  24.0885687  40.2135372  52.6442575  22.3462486  40.3144407
  52.5136900  23.1504464  38.7334895  50.0010204  24.2286372  39.1177607
  48.9148235  24.1404796  39.1402578  50.2161312  25.1480675  39.6622610
  50.1403379  24.1924405  38.0373073  49.1140366  19.3908286  39.9074483
  47.9954672  19.7312355  40.2590370  49.3050432  18.1681383  39.3417239
  50.1865768  18.0857551  38.8557005  48.3822536  17.0891368  39.1558266
  48.8937569  16.1266124  39.1591930  47.6234674  17.0686543  39.9380851
  47.5805712  17.2303104  37.8204107  46.5878916  16.4898002  37.5592780
  47.7623558  18.1998479  36.9981599  48.5864639  18.7152147  37.2726369
  47.1745014  18.5657752  35.7603049  46.0964012  18.5981774  35.9176493
  47.5411320  19.9819791  35.2755117  48.5866785  19.9993551  34.9678922
  46.8327284  20.2634788  34.4963956  47.3316288  21.0715771  36.3427424
  47.8446674  20.7998490  37.2652698  47.9118490  22.4025512  35.8423948
  47.4352074  22.7502584  34.9258757  47.8180265  23.1756425  36.6050386
  48.9728403  22.1627140  35.7725692  45.8093357  21.1999226  36.6064286
  45.6826115  21.9983530  37.3375583  45.2677298  21.4465213  35.6932139
  45.3882408  20.2870560  37.0276833  47.4502325  17.5046825  34.6528769
  48.5659027  16.9862986  34.6149111  46.4202833  17.0884192  33.9111924
  45.5254602  17.5417769  34.0289283  46.4342594  15.8973300  33.0411291
  47.4775124  15.7730997  32.7508092  46.0242987  14.7104657  33.9268255
  46.6118479  14.6635890  34.8437166  44.9811029  14.8326278  34.2182398
  46.2218666  13.3505428  33.2721996  47.3444653  13.0258441  32.5471687
  47.1836948  11.7347038  32.1119308  47.7930307  11.1974025  31.4002967
  45.9796381  11.2756991  32.5214839  45.6021786  10.3539908  32.3539162
  45.4257584  12.2428191  33.2835221  44.4377136  12.1529794  33.7102461
  45.6338930  16.1042416  31.7809963  45.7115650  15.2954233  30.8806324
  45.0292397  17.2813487  31.5739369  44.8363686  17.9981995  32.2587967
  44.4088411  17.7686870  30.3404593  44.6194172  17.0874155  29.5160651
  42.8501081  17.8463686  30.4831672  42.2879791  17.9377091  29.5537758
  42.6275873  16.8227446  30.7844567  42.3509932  18.8641512  31.5696192
  41.1269188  18.8673186  31.7882562  43.2054996  19.4055343  32.2900820
  44.9258947  19.1650844  30.0305319  44.3104076  19.7672272  29.1582727
  45.9964323  19.6390009  30.7076144  46.3675213  19.0304875  31.4232278
  46.6035843  20.9117365  30.4406071  45.9269142  21.7426014  30.6403065
  47.7673435  21.1795020  31.4577365  47.3814487  21.1915374  32.4770689
  48.4815931  20.3574491  31.4110827  48.5161972  22.4821854  31.2190580
  49.5287895  22.5000954  30.2496696  49.9142456  21.5748906  29.8474002
  50.1342440  23.7124681  29.8417544  50.8927822  23.6321521  29.0771818
  49.6852303  24.9241519  30.3924894  50.2776670  26.0778260  30.0948381
  49.8570538  26.8604708  30.4583669  48.7366581  24.8982072  31.4548278
  48.4545612  25.8259201  31.9304013  48.0960989  23.6862898  31.8396997
  47.3295879  23.7215209  32.5997114  47.0075750  21.0262632  28.9280319
  46.4034843  21.7946291  28.1714082  47.8347349  20.0040865  28.5408521
  47.8536892  19.2073178  29.1612554  48.3620358  19.9123216  27.1880817
  48.6938620  20.9014082  26.8723321  49.5867777  19.0928447  27.2348237
  49.2706203  18.1530488  27.6875162  49.9347591  18.8086426  26.2417293
  50.7589388  19.7296500  27.9797149  51.4425659  20.8916354  27.6536942
  52.2446394  21.1205912  28.6795998  52.7830553  22.0507216  28.7862253
  52.1562386  20.1906109  29.6026874  52.6325798  20.1362586  30.4916453
  51.2982178  19.2680049  29.1775036  51.1042261  18.3141494  29.6454000
  47.2891235  19.3300498  26.2326813  47.5518751  19.1578364  25.0347853
  46.1677217  18.9159513  26.7228293  46.0252142  19.0530932  27.7132773
  45.0800800  18.2755172  25.8855963  45.4208899  17.8702557  24.9328566
  44.3013954  17.1462929  26.5137148  43.7020254  17.5601089  27.3246479
  43.6021566  16.8536937  25.7304215  44.9748421  15.8339977  26.9331670
  46.1749792  15.6675482  26.6979766  44.2978477  14.9484837  27.4749613
  44.0773296  19.3521118  25.4144430  43.6477089  19.3714929  24.2280865
  43.8496494  20.3820634  26.2493920  44.2850780  20.3520012  27.1602130
  43.0719376  21.5103030  25.9354591  42.3646069  21.3502479  25.1217246
  42.1570492  22.0268273  27.0522690  42.7892447  22.2656798  27.9074812
  41.5716124  23.4304214  26.7975330  42.4498510  24.0557837  26.6371632
  41.0069513  23.5396385  25.8716083  40.9248972  23.7142396  27.6277828
  41.1923552  20.9010959  27.4398518  40.5098772  20.6599736  26.6248775
  41.7289352  19.9779463  27.6588964  40.3308153  21.2139034  28.7203431
  39.5306301  20.4883218  28.8663578  41.0291147  21.2713170  29.5553184
  39.9071169  22.2171044  28.6737800  43.9507246  22.6065898  25.3107190
  43.4950495  23.2190537  24.3542910  45.1042318  23.0198121  25.9341145
  45.4649925  22.4568963  26.6911316  45.8612156  24.1967583  25.5260921
  45.1321840  24.9221778  25.1650071  46.5822124  24.8294449  26.7936397
  47.1686411  24.0676570  27.3073339  47.3302937  26.0552955  26.3203812
  48.1111431  25.7534885  25.6223202  46.6760683  26.8477154  25.9568453
  47.8994656  26.3658142  27.1965814  45.5207348  25.3586316  27.8262281
  44.9707413  26.1691737  27.3480773  44.8281050  24.5580649  28.0859566
  46.1964083  25.7736969  29.1519499  47.1308422  26.3052773  28.9720702
  45.5579376  26.3728142  29.8011947  46.3608217  24.8360968  29.6829605
  46.9170332  23.8714218  24.4579053  47.7756357  22.9889631  24.7206998
  46.8184710  24.3983746  23.2737422  46.2141037  25.2034950  23.1923580
  47.6500988  24.1736627  22.0868397  47.8800583  23.1153440  21.9636369
  46.8153954  24.5700407  20.8447337  45.9350586  23.9299440  20.7866025
  46.5196037  25.6187582  20.8164477  47.5523663  24.3689895  19.5343041
  48.4453726  24.9933505  19.5057595  47.7897644  23.3059812  19.4923902
  46.8755007  24.7884512  18.2608736  45.9010458  24.3158007  18.1378388
  46.6241360  25.8460140  18.3413553  47.8221989  24.6143460  17.0567346
  48.7222052  25.1672316  17.3258269  48.1946421  23.5945559  16.9597077
  47.1836138  25.0704932  15.7952237  46.4576674  24.4219851  15.5258965
  46.8561363  26.0211992  15.8901751  47.9210520  25.0966692  15.1055837
  48.9510918  24.8495221  22.1575117  49.8885918  24.3189597  21.6372752
  48.9404392  26.1165071  22.6648259  48.0886412  26.4591599  23.0856991
  50.0552416  27.1342921  22.5765038  51.0036993  26.6821289  22.2865510
  49.7258711  28.2318139  21.5981650  48.6889935  28.5105348  21.7860365
  50.3582668  29.0845966  21.8450236  49.8306704  28.0234742  20.1693368
  49.4254684  28.9576197  19.2467403  49.6796322  28.4331512  18.0281115
  49.3970346  28.8930655  17.0926809  50.3758430  27.2624278  18.1339192
  50.7040644  26.7125273  17.3529041  50.4724073  27.0380449  19.4745243
  50.9997988  26.1912775  19.8883426  50.2900791  27.6974297  24.0066910
  49.7274256  28.7518191  24.4108295  51.1407423  27.0638180  24.8140574
  51.6388083  25.7633448  24.6883774  52.6250982  25.7910180  24.2251635
  51.0175657  25.0911903  24.0964556  51.7171764  25.3428006  26.1400461
  52.3577118  24.4624233  26.1925101  50.7171965  25.0846887  26.4886308
  52.1722841  26.5850091  26.8928456  53.2570362  26.6822672  26.9370699
  51.7780399  26.6639161  27.9059815  51.4587641  27.6935315  26.1492753
  50.6277561  27.9937267  26.7875695  52.3792791  28.9186525  25.9899974
  53.1840706  28.9838886  25.0588822  52.0861769  29.8671198  26.9011164
  51.3782310  29.7223902  27.6067805  52.8878164  31.1180592  26.9157553
  53.9257717  30.8840346  26.6791439  52.3654652  31.9812918  25.8178091
  52.5199175  31.4655495  24.8700476  51.2998247  32.1493053  25.9736490
  52.9769754  33.4116006  25.7787991  52.3844671  34.0320349  25.1064181
  52.8709936  33.9853263  26.6995096  54.7105169  33.5439873  25.1352382
  54.4308567  33.0103493  23.4622860  55.2661467  33.2992148  22.8243637
  54.2575645  31.9352078  23.4159946  53.5326862  33.5463810  23.1555867
  52.7425766  31.7660594  28.3483768  51.7441082  31.7236328  29.0590858
  53.7464476  32.5809097  28.7015748  54.5010614  32.5811291  28.0302620
  54.1276312  33.1924891  29.9683738  53.2736444  33.6275434  30.4875398
  54.8451138  32.1190143  30.8432865  55.0783968  32.6457620  31.7686057
  54.1795826  31.2922406  31.0915089  56.0657215  31.4967823  30.2040076
  55.9492731  30.5754018  29.3742156  57.1333694  32.0140028  30.5232310
  55.0350428  34.4396710  29.9548888  55.8994293  34.5537424  29.0452814
  54.9279594  35.3402925  30.9814739  54.3646812  35.0165701  31.7547965
  55.6972885  36.5101528  31.2198734  55.5042696  37.1980596  30.3966928
  55.2319908  37.1684647  32.4735260  55.3645945  36.5223837  33.3413363
  55.9279203  37.9990888  32.5912309  53.8028812  37.6716018  32.4074364
  53.1122875  36.8298364  32.4586439  53.5572720  38.6526370  33.6082935
  52.5081778  38.9448023  33.6546230  53.8322353  38.1162167  34.5164490
  54.0749884  39.6066332  33.5084915  53.5045719  38.4866357  31.1378169
  53.5165167  37.7612376  30.3243327  52.5133038  38.9395928  31.1200142
  54.2799139  39.2454553  31.0322213  57.1707392  36.3008475  31.1932492
  57.8419209  37.2235918  30.7786703  57.6779270  35.1359963  31.6662526
  56.9807005  34.4205165  31.8148136  59.1307592  34.8783565  31.6909242
  59.6310616  35.7742548  32.0585752  59.5452642  33.7623811  32.6727962
  60.6290674  33.6928988  32.7657509  59.1633797  33.9490199  33.6765051
  59.2344189  32.4905276  32.1944427  58.4688616  32.5208879  31.6159868
  59.6565533  34.6458125  30.2526712  60.6055975  35.2853990  29.7904706
  58.9798021  33.8384604  29.4423103  58.2169628  33.3743691  29.9143243
  59.2483711  33.7165046  27.9821253  60.2845335  33.4458780  27.7790761
  58.4076405  32.7146006  27.3246408  57.3356581  32.8568101  27.4615097
  58.7722445  32.3757410  25.8212352  59.8345566  32.2863007  25.5940914
  58.2149506  31.4871955  25.5245638  58.3667803  33.1897259  25.2202892
  58.6034632  31.5324879  28.0651617  57.9447794  31.5397263  28.7635016
  59.0599823  35.0793982  27.2962928  59.9684429  35.6066751  26.6116691
  57.9234409  35.7173991  27.5201368  57.2535658  35.2565432  28.1192851
  57.5861359  36.9945431  26.9409871  57.6801920  36.9769216  25.8551955
  56.1580563  37.4670029  27.2823453  55.9441566  37.4561167  28.3510947
  55.9694386  38.8912010  26.8022823  56.2885237  38.9916682  25.7648873
  54.8940325  39.0431070  26.8946552  56.3108587  39.7161031  27.4276376
  55.2039433  36.5585065  26.5439153  55.2074957  35.7440209  27.2682786
  54.2267847  37.0154405  26.3874888  55.6175423  36.1819434  25.6083727
  58.6535597  38.0489016  27.3038459  59.1193438  38.6668468  26.3609529
  59.1361284  38.0933905  28.5664916  58.6793613  37.6125574  29.3282437
  60.3137636  38.9279485  29.0244842  60.1037693  39.9780965  28.8215303
  60.5214357  38.7797022  30.4876566  59.6405935  39.1261339  31.0282135
  60.6131983  37.7173042  30.7134628  61.7491007  39.5600200  31.0020947
  62.0042372  39.1812968  31.9918275  62.5631094  39.2261934  30.3586292
  61.6569519  41.0190248  31.0176539  61.5745974  41.5407753  30.0641894
  60.9149408  41.3805580  31.7295623  63.0485296  41.3751030  31.7020011
  62.8678036  41.2345362  32.7676821  63.7720966  40.6129599  31.4126992
  63.6286640  42.7320147  31.2305617  64.5379734  42.9110384  31.6320753
  63.8241720  42.8109169  30.2428102  62.9909229  43.4854174  31.4444900
  61.5950394  38.6772680  28.1420779  62.2596455  39.6043396  27.7571249
  61.8767786  37.4363637  27.8148174  61.2692547  36.7091322  28.1643176
  63.0565786  37.0066643  27.0248270  63.8870192  37.5810552  27.4353743
  63.3041334  35.5196118  27.3727322  63.3426857  35.4267645  28.4580874
  62.5937128  34.8405480  26.9012618  64.7342300  35.0410342  26.8337035
  65.4960299  35.7113981  27.2316670  64.9244928  34.0522909  27.2511840
  64.8463917  34.8779750  25.3334093  64.4433117  35.7623267  24.8398948
  65.8857346  34.6760654  25.0743699  64.0646029  33.7274575  24.8909187
  63.7152433  33.1245852  25.6220865  63.4804296  33.5107112  23.7357712
  62.4793339  32.6502919  23.7631130  62.3360777  32.1063352  24.6019745
  61.9921780  32.4110818  22.9113173  63.7848568  34.0621567  22.5976825
  64.5741081  34.6893549  22.6593232  63.4218597  33.7317967  21.7149639
  62.9588461  37.5103498  25.6052375  63.8905573  38.0915809  25.1426673
  61.8122292  37.2800159  25.0048327  61.1115360  36.7693353  25.5228448
  61.5230465  37.7511978  23.6790466  62.3348045  37.3694992  23.0598068
  60.2260351  37.1042371  23.2946515  59.4984531  37.3333740  24.0732503
  60.0081062  37.5809216  22.3389363  60.2085066  35.5053520  23.1885624
  60.9754801  35.1480484  22.5013995  60.2347755  35.1070309  24.2028356
  58.8441658  35.0407624  22.5460029  58.7345648  34.0271521  22.9316020
  57.9697227  35.5229139  22.9830146  58.6615992  35.1526880  21.0274053
  58.7148094  36.2282395  20.8587050  59.4442654  34.5878816  20.5209184
  57.3329687  34.6334553  20.5509353  56.6164207  34.9766588  21.1745310
  57.1382809  35.0078821  19.6333277  57.2724581  33.6255479  20.5746198
  61.5238523  39.2831731  23.5750437  62.0835447  39.8192310  22.6497555
  61.0416269  39.9541020  24.6458364  60.6444454  39.3956923  25.3878140
  61.0803652  41.3809681  24.7447586  60.6113625  41.7747068  23.8430333
  60.1072979  41.8167734  25.8307958  59.1126108  41.3822794  25.7312083
  60.4998255  41.4142418  26.7645979  60.0888300  43.3749056  25.9780216
  59.6079588  43.7046289  26.8989706  61.1333466  43.6764431  25.8995175
  59.3412495  44.2654467  24.6683478  57.6972055  43.6010742  24.6712399
  57.6763201  42.5754547  24.3027663  57.2603512  43.7022686  25.6647277
  56.9800806  44.1318369  24.0450430  62.5032759  41.9248486  24.7707295
  62.9747772  42.6537800  23.9476490  63.3439064  41.4375591  25.6914830
  62.8997660  40.8718109  26.4005494  64.7916412  41.7953491  25.7933021
  64.9443769  42.8730679  25.8508205  65.4762411  41.2318945  27.0516253
  65.4068089  40.1442385  27.0685649  66.5207100  41.5428829  27.0735526
  64.7924709  41.6724730  28.3578181  64.9698448  40.9405708  29.4000530
  64.2095757  42.7710295  28.4956813  65.6756830  41.4156580  24.6071982
  66.5566778  42.2481775  24.2493773  65.4918718  40.2120256  24.0805864
  64.9294281  39.6008945  24.6552849  66.1761284  39.7844434  22.8201222
  67.2245598  40.0589848  22.9363894  66.0250807  38.7107658  22.7083039
  65.6227636  40.4051113  21.5174532  66.2646294  40.1460981  20.4219246
  64.5930195  41.2563705  21.5383530  64.1060734  41.2665367  22.4231625
  63.9495945  42.1027136  20.5271077  63.0204344  42.4004412  21.0130334
  64.8363209  43.2896996  20.1203775  65.8226538  42.9096985  19.8542047
  64.3527937  43.8125801  19.2952120  64.9859667  44.2774439  21.2142348
  65.2154493  43.7879992  22.1607471  65.8904171  44.8235273  20.9461522
  63.7434959  45.0979567  21.3768697  63.4887886  45.5749798  20.4304695
  62.9122496  44.4351530  21.6173315  63.8574219  46.1789083  22.3612881
  64.2232132  47.0780993  22.0824289  63.3689117  46.2813711  23.6141109
  62.6569510  45.3848553  24.0527010  62.7326393  44.5326281  23.5159707
  62.5433159  45.3620529  25.0560331  63.5442829  47.3300266  24.3669748
  64.0761662  48.0982590  23.9835429  63.0608892  47.3921442  25.2516007
  63.4584856  41.2564278  19.3392467  63.3994389  41.7190695  18.2360709
  62.8744936  40.0469732  19.6915281  62.9249716  39.6587038  20.6225491
  62.4079657  39.0883994  18.6138546  63.2025290  38.9225507  17.8863490
  61.9258356  37.7784324  19.2887115  61.1337137  38.1805348  19.9203432
  61.5850496  37.0510578  18.5519028  62.9185343  37.1266437  20.2640390
  63.0670738  37.7920890  21.1144638  62.5308609  36.2042093  20.6963849
  64.2383957  36.6908288  19.5913339  64.2231178  36.5457201  18.3704734
  65.2592468  36.4806747  20.3017306  61.2769985  39.7216558  17.7686810
  60.9672165  39.2187905  16.7053890  60.5517149  40.6543922  18.3882475
  60.9506035  40.9983253  19.2500496  59.3767166  41.2692070  17.8179145
  58.8309050  40.4487753  17.3519945  58.4408760  41.7849350  18.9297998
  59.0079927  42.5864172  19.4031942  57.4959850  42.1528864  18.5299349
  58.1060314  40.7430315  20.0488591  57.1598482  39.7829080  19.7730100
  56.6155052  39.7410631  18.8411641  56.6529560  38.9642859  20.7988381
  55.8224344  38.2951474  20.6288719  57.2701216  38.9825296  22.0697856
  56.8901539  38.0894423  22.9559994  56.3341808  37.4015093  22.5828433
  58.2789469  39.9323010  22.2957993  58.7583351  39.9111772  23.2633448
  58.7420797  40.7456017  21.2591219  59.5140934  41.4766121  21.4489198
  59.6042538  42.2781658  16.6275847  60.5868673  43.0817127  16.7231286
  58.9533234  42.1902800  15.4476655  58.0956602  41.0524559  15.0454974
  57.3915482  40.8085823  15.8410168  58.7123871  40.2194071  14.7081888
  57.3049212  41.5537643  13.8765907  56.4067364  42.0092440  14.2936039
  57.0819712  40.7294416  13.1991851  58.0634260  42.7465296  13.2627261
  57.3088741  43.3645821  12.7761388  58.7956381  42.2182417  12.6520908
  58.8140488  43.2354546  14.4760072  59.8121834  43.5687733  14.1918898
  58.1200886  44.5485640  14.9234772  58.4988689  45.5970144  14.4469464
  57.1723557  44.4947338  15.8339453  56.8773508  43.5938168  16.1824191
  56.2838459  45.6278181  16.1595142  56.8139744  46.5663719  16.3213444
  55.3954697  45.8141279  14.9583030  54.7800159  46.7023468  15.1010537
  56.0216761  46.0228539  14.0908933  54.5301437  44.5940971  14.6409893
  54.6333694  44.0700245  13.5295022  53.7696791  44.1392803  15.5568111
  55.6739187  45.3295946  17.5777555  55.7445478  44.2362690  18.2023501
  54.9684238  46.2585115  18.1297469  54.7462702  47.1180439  17.6481283
  54.3166876  46.1628962  19.4167995  55.0802422  45.8270931  20.1184583
  54.0577126  47.5800991  19.9349868  55.0015974  48.1237125  19.9760139
  53.2707834  48.0888748  19.3782222  53.7367678  47.5850582  20.9766531
  53.0484200  45.1743937  19.4871593  52.8826284  44.5235157  20.5358005
  52.3435926  45.0288010  18.3806896  52.5586176  45.6704044  17.6308823
  51.2393808  44.1329050  18.1251800  50.7796574  44.2401028  19.1076577
  50.4321480  44.5783901  16.8709040  51.1836052  44.6724272  16.0869598
  49.6145058  43.9389944  16.5381336  49.7152424  45.9182119  17.1486068
  48.8682461  45.9994221  16.4673567  49.3501091  45.8667326  18.1743431
  50.5457497  47.1810532  16.9493330  51.5185404  47.1982288  16.1681724
  50.2796459  48.2075214  17.7353156  50.9610939  48.9510059  17.6808989
  49.4655752  48.2306433  18.3326948  51.6714096  42.6275110  18.1288648
  50.9707785  41.8050146  18.6733985  52.8928709  42.3475838  17.6850486
  53.4216261  43.1521749  17.3798442  53.4436703  41.0329485  17.8007674
  52.7010822  40.3025484  17.4795520  54.2092896  40.9212780  17.0329988
  53.8346720  40.6269932  19.2557871  53.5601234  39.4825649  19.5693719
  54.2520475  41.6134548  20.0981712  54.3609333  42.5333834  19.6957135
  54.1855860  41.3742399  21.5727377  54.6685600  40.4142380  21.7550445
  54.9896812  42.5091553  22.1376014  56.0152483  42.1547556  22.2411394
  54.9626398  43.4529257  21.5929317  54.5730543  42.9073286  23.5338259
  54.5663071  42.0344305  24.5875859  54.8724079  41.0000324  24.5354176
  54.1194868  42.3794794  25.8937359  54.1313934  41.6159487  26.6574621
  53.7463045  43.6864805  26.2036633  53.4670687  43.9369297  27.2164321
  53.8792086  44.5920897  25.1634789  53.6316967  45.6186438  25.3900290
  54.2481089  44.2441940  23.8040471  54.2487240  44.9700689  23.0043554
  52.7933550  41.1408710  22.0845461  52.6083946  40.1988792  22.8453469
  51.8714857  41.9984865  21.6702986  52.1687508  42.6757383  20.9825015
  50.4895878  41.9885778  22.1095181  50.4861212  42.2331762  23.1717134
  49.6124887  43.1150818  21.5287066  49.2005873  42.7858734  20.5747366
  48.7594414  43.2448339  22.1947193  50.2064419  44.0290165  21.5219355
  49.8357153  40.5977011  21.8622756  49.0668440  40.0942945  22.6290512
  50.2083826  39.9454045  20.7598543  50.8961439  40.4189110  20.1916265
  49.7376299  38.5881209  20.4234314  48.6515522  38.5332680  20.3490567
  50.2438068  38.2389903  19.0321743  51.2811184  37.9048872  19.0535414
  49.6768379  37.4285793  18.5740411  50.2211571  39.0822768  18.3419144
  50.1932144  37.5437689  21.3980532  49.4291449  36.6532397  21.6756082
  51.4511156  37.6612258  21.9348264  51.9487524  38.5216260  21.7554617
  51.9223785  36.6959119  22.9317737  51.7232275  35.6583261  22.6637197
  53.4366655  36.6710758  23.0811191  53.8252783  37.6841545  23.1848168
  53.6616135  36.0587764  23.9543796  54.1615677  36.0035706  21.8588066
  53.4571600  35.4473567  21.0008430  55.3919172  36.0453415  21.8480635
  51.2604475  36.8842912  24.3127036  50.7740831  35.9217453  24.8703742
  51.1019135  38.1901670  24.7037053  51.5101433  38.9396167  24.1635370
  50.2219296  38.5543704  25.8327961  50.6100798  37.9403567  26.6454697
  50.2332306  40.0532436  26.1741471  49.9497271  40.7598352  25.3941154
  49.3981886  40.2518511  27.4297142  49.6974754  41.1871386  27.9027486
  48.3722401  40.3217459  27.0682573  49.5645428  39.4542432  28.1537676
  51.7377043  40.3703022  26.4510059  52.3922396  40.4203415  25.5808377
  51.6865873  41.3902569  26.8320251  52.0808601  39.7081542  27.2459292
  48.7851143  38.0627370  25.7045817  48.2182741  37.4517393  26.5792513
  48.1141615  38.2652926  24.5777726  48.5842752  38.7753749  23.8436723
  46.6286421  38.0354142  24.5006704  46.0661745  38.3230615  25.3889203
  46.1531782  38.7868023  23.2253790  46.9131327  38.6677408  22.4531102
  45.1539755  38.4303355  22.9751396  46.0135174  40.3217173  23.5936093
  45.3711462  40.5140209  24.4529581  46.9792223  40.6412125  23.9853239
  45.6204700  41.1202288  22.3667002  46.3539124  40.9135962  21.5873027
  44.6198940  40.8522320  22.0273924  45.6921911  42.5344133  22.6731253
  45.3933954  42.8032684  23.5996985  45.9027910  43.5150051  21.9565511
  45.8699751  44.7559118  22.4797130  45.6546354  44.8545694  23.4615445
  46.1873960  45.4855299  21.8576121  46.3063431  43.4004641  20.7048845
  46.3284588  42.5064039  20.2355480  46.5569639  44.2460346  20.2126479
  46.3685322  36.5238023  24.4137192  45.3098726  36.1223054  24.8899770
  47.2996378  35.7342625  23.8593006  48.1346607  36.2361741  23.5929918
  47.3108816  34.3116760  23.8384748  46.3982201  34.0135241  23.3224654
  48.5864305  33.9024448  23.0809617  48.5881233  34.2799854  22.0584369
  49.4211817  34.3997240  23.5749245  48.9097548  32.3970366  23.0711102
  48.8001251  32.0042634  24.0819621  47.9306507  31.6643286  22.1054173
  47.7844429  32.0947504  21.1147332  48.2541180  30.6310487  21.9797039
  47.0400715  31.5706539  22.7268648  50.3166580  32.1913958  22.5507283
  50.3784800  32.7060413  21.5918660  51.0810566  32.5820065  23.2224631
  50.4650164  31.1307073  22.3481703  47.2814369  33.7369680  25.2876759
  46.4592648  32.8239131  25.5263090  48.2824278  34.0619183  26.0763144
  49.0006542  34.7013426  25.7674599  48.4414864  33.5956645  27.4408746
  48.7269545  32.5443554  27.4777699  49.4800854  34.5523071  28.0299854
  50.4520845  34.3585157  27.5763726  49.2787123  35.5888009  27.7593732
  49.6865511  34.3540502  29.5078397  48.7848663  34.6404719  30.0491619
  49.9033642  33.3273125  29.8026371  51.0352850  35.4390478  30.1493001
  50.1517677  36.9631505  29.9761224  49.0634489  36.9267535  29.9278474
  50.3516293  37.5469351  30.8746552  50.4852819  37.6141334  29.1679835
  47.1304798  33.8042307  28.1592321  46.5718031  32.8446317  28.7654018
  46.4526939  34.9850702  28.1181717  46.7936802  35.8194280  27.6624584
  45.1215124  35.1455259  28.7390757  45.0322199  34.8094893  29.7721338
  44.6987772  36.6444254  28.7220883  44.8840332  37.0603561  27.7317381
  43.6387587  36.7504430  28.9527893  45.4620886  37.5816607  29.6592569
  45.6027794  37.3089528  30.9856987  45.0742245  36.4428997  31.3558054
  46.4668274  38.0977368  31.7566538  46.5461159  37.9024935  32.8158951
  47.1626806  39.2426538  31.2116003  47.8287220  39.8206592  31.8350577
  47.0591021  39.5271277  29.8059273  47.4932051  40.3775692  29.3012500
  46.1296844  38.7117338  29.0825558  46.0431623  38.9067101  28.0238318
  44.0591145  34.2193055  28.0298901  43.3276796  33.5183597  28.6763930
  44.1312075  34.1289186  26.6700959  44.8975754  34.5930982  26.2039280
  43.3138227  33.2279873  25.8702207  42.2915220  33.5632992  26.0450554
  43.4834242  33.4627271  24.3854642  43.5773277  34.5265388  24.1673183
  44.4205713  33.0667019  23.9942813  42.4084234  32.9244685  23.6373496
  41.5781069  33.3744407  23.8096809  43.3218861  31.7767191  26.3085556
  42.2868538  31.1265063  26.3889718  44.4294214  31.3253903  26.8235064
  45.1124859  32.0188141  27.0931220  44.5848703  29.9411011  27.3375034
  44.2020893  29.1720748  26.6665530  46.0975790  29.6637917  27.5255990
  46.5658712  30.2570891  28.3109665  46.1900568  28.6520386  27.9204392
  46.7891407  29.7912645  26.1679506  46.2950754  29.3690753  25.0695610
  48.0192566  30.2704048  26.1621904  48.6650324  30.0655246  25.4131222
  48.4021997  30.4577994  27.0777988  43.8996410  29.8374653  28.7392712
  43.2145596  28.8226318  28.8995886  43.8814497  30.8293724  29.5815516
  44.4050360  31.6659021  29.3666577  43.1147766  30.8387065  30.8555913
  43.4138823  30.0075865  31.4942455  43.3856058  32.1204162  31.5725470
  44.4625521  32.2120261  31.7135930  42.9687405  32.9642677  31.0227776
  42.6321602  32.0533180  33.1783366  43.3614635  31.1353731  33.8189554
  41.6024971  30.7372713  30.5443454  40.9514380  29.8372269  31.0947704
  41.1099672  31.4918756  29.5607162  41.5997887  32.3245239  29.2659736
  39.6812940  31.4497018  29.2220831  39.0705967  31.3793755  30.1221967
  39.4222498  32.8171182  28.5222721  39.9120045  32.7080011  27.5546265
  38.3601403  33.0520749  28.5916972  39.9763846  33.9769650  29.2560267
  39.7933841  34.2164826  30.6543517  39.3330073  33.4693408  31.2838221
  40.2385712  35.4232836  31.2358928  40.1152182  35.6230664  32.2900605
  40.8926105  36.3845015  30.3706431  41.2702179  37.5489473  30.9507513
  41.8090439  38.1039429  30.3822017  41.0526276  36.1371183  28.9769197
  41.5150881  36.8585992  28.3196545  40.6023312  34.9363136  28.4141517
  40.7083082  34.7675562  27.3526931  39.2796135  30.3387380  28.2735753
  38.0762291  30.0505352  28.1861305  40.1846123  29.6876407  27.5838900
  41.1455727  29.9082947  27.8029251  40.0039911  28.4887338  26.8512011
  39.0135622  28.5522795  26.4005041  40.9793949  28.4557819  25.6928015
  40.8900166  29.3723369  25.1096678  41.9961977  28.5156488  26.0809064
  40.7248783  27.3267317  24.8229527  40.6315136  26.3678622  25.3328109
  39.7601914  27.3279190  24.3155169  41.8165350  27.3007250  23.6705923
  42.7817488  27.4040842  24.1663504  41.7345238  26.3186431  23.2048750
  41.6856480  28.4514308  22.7652574  41.6890240  29.3846965  23.3283758
  42.5787735  28.4210110  22.1411514  40.4538870  28.4142113  21.9445992
  40.5681849  28.4478068  20.9416509  40.0528479  27.4895048  22.0093441
  39.7725177  29.0726161  22.2943759  40.0342369  27.3320007  27.8525519
  39.1196561  26.5465975  27.7740026  40.9860754  27.2790551  28.8008356
  41.6441727  28.0404234  28.8864303  41.1535931  26.1787963  29.7704720
  40.8525658  25.2427411  29.3000674  42.5976992  26.1349392  30.2461219
  43.2838249  26.2155843  29.4030118  42.6968956  27.0001173  30.9016562
  43.0250120  24.8636103  31.0071349  42.8197193  23.5825109  30.5184340
  42.1019411  23.6117697  29.7119999  43.4165907  22.4778748  31.1204004
  43.2759047  21.4936137  30.6986856  44.1857958  22.6025963  32.2358203
  44.6675253  21.5597010  32.9742026  44.1980314  20.7757640  32.6798964
  44.4271374  23.9062500  32.6993823  44.9843788  23.9329505  33.6241364
  43.8242626  25.0533772  32.1484423  43.9606380  26.0192776  32.6119518
  40.1506186  26.2011075  30.9603810  39.7727084  25.0892854  31.2461233
  39.7600484  27.3377037  31.5286279  40.0788355  28.1720781  31.0571456
  39.0670633  27.5328588  32.8293204  39.0442348  26.5677357  33.3353972
  39.8867607  28.4247279  33.7678814  39.8904967  29.4729042  33.4688592
  39.4866776  28.4079719  34.7816634  41.3586664  27.9929900  33.8084912
  42.2453022  28.7903857  33.5487986  41.6990185  26.8420672  34.2825699
  42.6679945  26.7764688  34.5598340  40.9876060  26.3090134  34.7619939
  37.6430988  28.1668067  32.6074529  37.4182415  28.9798498  31.7020941
  36.6772199  27.7836752  33.4466386  36.7373800  26.7207813  34.3689847
  37.6456547  26.7573571  34.9704814  36.7894530  25.7680321  33.8420486
  35.4992509  26.8318677  35.2584004  35.7071376  27.4358773  36.1416101
  35.0740457  25.8508015  35.4700828  34.4926476  27.5516510  34.3888211
  33.7431240  28.0179763  35.0282454  34.1166472  26.9357085  33.5719109
  35.4226851  28.5245395  33.6978102  34.9591279  28.9297581  32.7983570
  35.5751109  29.7074175  34.6873045  36.5924311  29.7662163  35.3783083
  34.6893644  30.7251334  34.6497273  33.6549973  30.8453488  33.6656284
  33.1527734  29.8821139  33.5759187  34.1026998  31.0060453  32.6848936
  32.8025436  32.1184349  34.0177155  32.0757580  31.7851639  34.7585368
  32.3716593  32.6146817  33.1481290  33.7666583  32.9627085  34.8858047
  33.2264876  33.5223532  35.6494236  34.3048811  33.6637235  34.2478418
  34.7169781  31.9054198  35.5199647  35.6906223  32.3926616  35.5720425
  34.3227887  31.6656566  37.0090079  34.5674992  32.5630379  37.7854729
  33.8834882  30.4305887  37.3142719  33.7883282  29.6947527  36.6290045
  33.7722421  29.8590016  38.6864114  32.9489017  30.3048778  39.2444539
  33.4584951  28.4104490  38.6217189  34.2695642  27.8944421  38.1079006
  33.4210134  28.0110574  39.6352196  32.1520662  27.9958320  37.9362774
  32.1958399  26.9822431  37.2286510  31.1335111  28.6283350  38.1168699
  35.1575208  30.1012564  39.3927526  35.1806474  30.4312110  40.5766964
  36.2800050  29.8806453  38.6823726  36.1576796  29.5537305  37.7345991
  37.6594639  29.8489785  39.2266560  37.5470853  29.3698907  40.1992512
  38.5286570  28.9468026  38.3756733  37.9752636  28.0480981  38.1032968
  38.8815594  29.4246268  37.4617553  39.8384452  28.5889101  39.0711665
  40.5147123  29.3995643  40.0129128  41.5730190  28.6596107  40.3841448
  42.3693752  29.0110922  41.0234261  41.5908098  27.4203587  39.8146105
  42.1989202  26.6621566  40.0892639  40.4170370  27.3599076  39.0316844
  40.0678730  26.5160394  38.4551692  38.1779242  31.2965941  39.4282603
  38.1758285  32.1143436  38.5295057  38.7189507  31.6602039  40.6019163
  38.6127615  30.9553957  41.3175058  39.4440436  32.8744745  40.9532261
  38.6281037  33.5946035  41.0145092  40.0679445  32.7698016  42.3813725
  40.6947517  31.8861508  42.5012636  40.7775545  33.5681510  42.5985956
  38.9284253  32.7960849  43.4599924  39.2931890  33.4142923  44.2802763
  38.0152535  33.2959294  43.1369209  38.5139680  31.4182401  43.9833260
  38.0614161  30.5592036  43.1969309  38.7904978  31.1978912  45.2094221
  40.4393053  33.2921004  39.8487520  40.5815029  34.4866753  39.5076799
  41.1489105  32.3253918  39.1678381  40.8979797  31.3768005  39.4072270
  42.1683979  32.6391315  38.1115842  42.7658272  33.3586907  38.6714172
  43.1400681  31.4776516  37.7214646  43.5202932  30.9936643  38.6210704
  42.4148607  30.3755665  36.8867612  41.9656897  30.8449006  36.0115075
  43.2418060  29.6945453  36.6855693  41.6112661  30.0221348  37.5328422
  44.3268681  32.0401716  36.9094229  44.1588783  32.1507502  35.8381367
  44.7103643  32.9946923  37.2698712  45.1031876  31.2941456  37.0793509
  41.6834116  33.3838964  36.8420815  42.4463511  34.2356825  36.3710332
  40.4062843  33.2020116  36.4054966  39.8023820  32.6610899  37.0078301
  39.7086620  34.0580511  35.3813124  40.3595495  33.9404988  34.5149255
  38.3499146  33.4097743  34.8422980  37.8258061  33.1601405  35.7648468
  37.6149440  34.2697763  33.7959743  38.3149028  34.4735789  32.9856491
  36.7924142  33.7103224  33.3503747  37.3199534  35.2511096  34.1675472
  38.7027287  32.1370697  34.0913606  39.2445111  31.4599824  34.7517514
  37.7974916  31.6446781  33.7361193  39.3129253  32.4285293  33.2364845
  39.6250963  35.5518794  35.7354403  39.8771167  36.4858150  34.9449444
  39.1990852  35.7774305  36.9462371  38.8678122  34.9826646  37.4741626
  39.1578555  37.1453285  37.4847579  38.6021113  37.7286243  36.7505789
  38.4600139  37.1805191  38.8720703  38.4559035  38.2046676  39.2451668
  37.4248028  36.8425703  38.8247991  38.9657760  36.6348791  39.6686792
  40.5613947  37.7804422  37.6721120  40.7322693  39.0151930  37.6243925
  41.5480042  36.9673204  37.9979420  41.3506174  36.0018325  38.2192373
  42.9575300  37.4495482  38.1450438  43.0105877  38.3645511  38.7350059
  43.8667011  36.4315987  38.7893295  44.0295410  35.5605268  38.1546474
  44.8810434  36.8281221  38.8338280  43.5566235  36.0116911  40.2157927
  42.6931143  35.3467655  40.1977539  44.4143724  35.4150391  40.5262470
  43.1987667  37.3171043  41.3004827  41.5896559  36.7443371  41.8683147
  41.7751980  35.7912493  42.3635912  41.2004375  37.4308348  42.6201963
  40.8481598  36.6887736  41.0713243  43.4725618  37.8513360  36.7474937
  44.0157318  38.9749742  36.5587282  43.2960558  36.9392633  35.7172489
  42.9254532  36.0215378  35.9185648  43.4588146  37.2163057  34.2686152
  44.5118570  37.1332312  33.9997029  42.8699398  36.1033916  33.4770155
  41.7862034  36.1181641  33.5927749  43.1052256  36.3181400  32.4345994
  43.3446980  35.1639199  33.7600303  42.9113245  38.6037827  33.9927530
  43.5541105  39.4732261  33.4490776  41.5889597  38.7145138  34.2736864
  41.0643721  37.9501414  34.6744895  40.6669950  39.9145865  34.0074658
  40.5650234  39.8803067  32.9227853  39.3144703  39.8226738  34.7122669
  38.9681077  38.7950134  34.6024990  39.5106435  40.1220465  35.7418251
  38.1044412  40.7835627  34.3527722  37.2483444  40.5424976  34.9829221
  38.3246613  41.7940950  34.6969008  37.6850343  40.8191681  32.8197169
  37.4780893  39.8280740  32.4159718  36.7163444  41.3072348  32.7123356
  38.7164330  41.4531851  31.9684529  38.9912844  42.3875856  32.2357607
  39.1219330  41.0414171  30.7982683  40.0482368  41.7178679  30.2463007
  40.3809404  42.5496244  30.7127690  40.3280067  41.4220572  29.3220043
  38.7184143  39.9635053  30.2058935  38.1372666  39.3692565  30.7796884
  39.0601778  39.7848558  29.2724133  41.3907480  41.2564182  34.3498230
  41.7714691  42.0542479  33.5022044  41.6775846  41.4984322  35.6621075
  41.4447069  40.7407522  36.2880421  42.5288582  42.7030754  36.1267090
  41.9669294  43.6224461  35.9620976  42.5485277  42.6492119  37.6382565
  41.5415287  42.8293800  38.0145478  42.8746414  41.6509151  37.9300642
  43.5020971  43.5599518  38.3609772  44.4647026  43.2529974  37.9519963
  43.3440638  44.6159172  38.1417418  43.4596634  43.2560539  39.8495960
  42.4209690  43.4254932  40.1333284  43.7451887  42.2302961  40.0828266
  44.4622278  44.1125965  40.6283188  44.6460390  43.7861776  41.6519213
  45.4613924  43.9755774  40.2147913  43.9221954  45.4985380  40.7382965
  43.9631796  45.9443378  39.8329306  42.9612350  45.4847431  41.0488749
  44.4049072  46.0756063  41.4121532  43.9067507  42.8354979  35.4237771
  44.2857552  43.9410639  35.0132394  44.7485781  41.7559242  35.3318954
  44.3602705  40.8743048  35.6353188  46.0273409  41.6888332  34.6213841
  46.5752935  42.4923992  35.1134515  46.8903732  40.4847479  34.7524548
  46.7902756  40.0141239  35.7305098  46.3215590  39.7876692  34.1371250
  48.3646965  40.6096601  34.4334579  48.4583092  40.8815908  33.3820796
  49.0431595  41.6501522  35.3342056  48.7527609  41.3732147  36.3476515
  50.1281834  41.6583061  35.4379654  48.5502720  42.6004601  35.1290965
  48.9928579  39.2744279  34.7628999  50.0759506  39.3186378  34.6486235
  48.7156677  38.8774753  35.7394719  48.5953903  38.5757136  34.0267491
  45.9222317  42.1907234  33.1187105  46.6976357  43.0279493  32.6957321
  44.9793530  41.5833902  32.3828983  44.4087505  40.8938646  32.8509474
  44.6062040  41.9947481  30.9998012  45.4766369  41.8939543  30.3515029
  43.5120201  41.0019302  30.5589676  43.9638805  40.0469732  30.8272696
  42.5578833  41.1216688  31.0721827  43.3670378  41.2411499  29.0497828
  42.7304363  42.1070194  28.8678432  44.2977524  41.5148020  28.5528064
  42.8614569  39.9742961  28.4459376  42.4157286  39.0532780  29.0025616
  42.9341650  39.8474002  27.1775866  42.3673916  39.0754104  26.8568087
  43.2505417  40.6164122  26.6043282  44.2584133  43.4782839  30.9062505
  44.7303867  44.1583061  29.9902463  43.3595943  43.9258146  31.8335509
  43.0439615  43.2145214  32.4773955  42.8329706  45.2954388  31.9954634
  42.4489498  45.5139351  30.9990263  41.7454195  45.4562950  33.0769348
  42.0651770  44.8919058  33.9529037  41.5448952  46.4956713  33.3369160
  40.2899218  44.9494171  32.6870704  39.2749548  45.4083204  33.3073330
  40.1347160  44.1378689  31.7361426  44.0253019  46.2298679  32.1577239
  43.9818478  47.4198723  31.7474723  45.0250530  45.8342361  32.8913164
  45.0110531  44.9170351  33.3139849  46.1898279  46.6074657  33.1255865
  45.8262157  47.6346636  33.1529474  46.9428682  46.1121655  34.4425225
  46.8485880  45.0276899  34.4984484  48.4711742  46.4934015  34.5754790
  48.9849949  46.0813332  33.7069798  48.6353111  47.5698519  34.6246171
  48.8481140  45.9610176  35.4487467  46.2104177  46.6642952  35.6730103
  46.7174244  46.2803745  36.5582538  46.3143682  47.7484512  35.7166505
  45.1902294  46.2984037  35.5570745  47.2010136  46.6997147  31.9555163
  47.6434469  47.7947617  31.5722609  47.6468229  45.5455351  31.4276004
  47.2053814  44.7157860  31.7973924  48.4334230  45.4467630  30.1781297
  49.5008469  45.4564619  30.3986216  48.2341290  44.0642023  29.6630383
  48.7961292  43.3886766  30.3079534  47.1920156  43.7678862  29.7825813
  48.5683632  43.9208460  28.1832957  49.7637415  44.4427824  27.6098895
  50.5224133  44.9237680  28.2094526  50.0273705  44.2857456  26.2327051
  50.8552408  44.7478008  25.7154727  49.1275978  43.6125231  25.4083228
  49.2433167  43.6526966  24.3352914  47.9627132  42.9892159  25.9193683
  47.3421574  42.2966719  25.3700948  47.6647472  43.2434368  27.2900391
  46.7344427  42.8082609  27.6240420  47.9254246  46.4059687  29.0593529
  48.6291838  47.2545719  28.5607839  46.5897131  46.3905430  28.8022017
  46.0336685  45.7890320  29.3930459  45.8234787  47.2097778  27.7579594
  46.4335299  47.1805573  26.8551397  44.4367981  46.5184355  27.7038884
  44.0477228  46.4625883  28.7205529  43.7485313  47.1633577  27.1575737
  44.4444561  45.1644230  27.0393777  45.0360203  44.4506407  27.6126790
  43.4692383  44.7068262  27.2056603  44.9281454  45.1553202  25.5549765
  45.0479746  44.0297794  25.0242591  45.0503397  46.2041759  24.9395180
  45.7697010  48.7070799  28.1736612  45.9012222  49.5243788  27.3247933
  45.4286432  49.0408564  29.3931222  45.2274084  48.2881880  30.0358486
  45.5010033  50.4318523  29.9720693  44.8141098  51.0300303  29.3733549
  44.9518394  50.4631805  31.4584565  43.9092588  50.1488686  31.4100718
  45.4696512  49.6372843  31.9461799  45.2592897  51.7243290  32.2671652
  45.3129959  52.4834347  31.4867949  44.4845772  51.8495321  33.0236411
  46.8571901  51.6889715  33.1808209  46.6276741  50.4443693  34.4406533
  45.9851980  50.8415270  35.2265191  46.3799810  49.4908953  33.9741421
  47.6661634  50.3218889  34.7482944  46.9355726  51.0564756  29.9376941
  47.0455885  52.1815872  29.4454074  47.9898453  50.3230858  30.2902102
  47.7322626  49.4570780  30.7416344  49.3805933  50.6656218  30.0665307
  49.4908428  51.6726828  30.4687357  50.3637552  49.7567558  30.8408237
  50.2896833  48.7089634  30.5497050  51.3943529  49.9779081  30.5631971
  50.1883984  49.9175262  32.3640800  49.1339970  49.7343874  32.5709701
  50.7115984  49.1437101  32.9258394  50.6170940  51.2050152  33.0139875
  49.8265934  51.9385862  32.8556275  50.6922293  51.0254478  34.0864658
  51.9383097  51.7327309  32.6410151  52.6297665  51.0419464  32.3864365
  52.3944426  52.9679441  32.7005839  51.5487385  53.9266014  32.8360891
  50.5897665  53.7486649  33.0984116  51.8767071  54.8818684  32.8339672
  53.6571312  53.2989359  32.5058579  54.2498446  52.5593376  32.1568823
  53.8779593  54.2626381  32.2994280  49.7991371  50.6957006  28.5761905
  50.6000948  51.5528154  28.1514120  49.2510653  49.8082829  27.7253866
  48.6780214  49.0606546  28.0897689  49.5323372  49.8047972  26.2893200
  50.6137896  49.8253679  26.1546326  49.2046499  48.4470844  25.6343746
  49.7498226  47.7372408  26.2564731  48.1222010  48.3413458  25.7065940
  49.6816587  48.2311153  24.2286801  50.6691122  47.3036242  23.9084387
  51.2194729  46.8262672  24.7057056  50.9833670  47.0103836  22.5958991
  51.7562962  46.3128757  22.3087358  50.3028488  47.7132654  21.5801835
  50.5577946  47.6317739  20.5338740  49.4058752  48.7013054  21.8875718
  49.0014839  49.3050194  21.0885763  49.0348053  48.8928604  23.1834197
  48.3111572  49.6656322  23.3968592  48.8484859  51.1057854  25.6557536
  49.4645119  51.8240547  24.9063444  47.7282572  51.6212940  26.1885810
  47.1642113  51.0204363  26.7724657  47.0759106  52.8917074  25.9282708
  47.1170139  53.0026340  24.8447084  45.6131363  52.9345226  26.3592339
  45.1385832  53.8888121  26.1307096  45.0735235  52.1525764  25.8249283
  45.5758762  52.8574085  27.4458647  47.8081799  54.1613913  26.4539504
  47.3923111  55.2823114  26.1409187  48.8764715  53.9546299  27.2756386
  49.1707182  53.0150747  27.5009489  49.8251009  55.0515842  27.6664805
  49.3908501  56.0067225  27.3711157  50.0205946  55.1454687  29.2486525
  50.5329609  54.2223454  29.5196271  50.5715370  56.0550833  29.4877529
  48.7554789  55.1053429  30.1422977  48.2866096  54.1315365  30.0010109
  48.9683437  55.1383638  31.2108016  47.8641319  56.3066339  30.0928926
  48.4737349  57.0443392  30.6146979  47.6956892  56.4617395  29.0272188
  46.5200949  56.0821056  30.9222484  45.9211063  55.5012035  30.2209187
  46.7253304  55.5226755  31.8349433  45.9522629  57.3599529  31.3502312
  45.8619738  58.0060577  30.5791926  45.0776196  57.1643066  31.8158698
  46.6500998  57.7710247  31.9536757  51.1466885  55.0191736  26.9230413
  52.0365572  55.8174276  27.2969675  51.4879990  53.9797115  26.0785961
  50.9294510  53.1391048  26.1173964  52.7251959  54.0026379  25.3128648
  53.5830545  53.9394283  25.9823322  52.7013922  52.7740622  24.3894601
  52.5070238  51.8518543  24.9370456  51.9051552  52.8617239  23.6502576
  54.0501833  52.4706268  23.7104297  54.0135908  53.1449556  22.8548360
  54.8663330  52.6944208  24.3973923  54.3433905  50.7875586  23.2069945
  53.0327415  50.5525351  21.9153619  52.1279192  50.8188534  22.4616933
  53.2449389  51.3632107  21.2183166  53.0991030  49.5430756  21.5095448
  52.8039694  55.2897215  24.4697762  51.8290949  55.5264902  23.7386680
  53.8408470  56.1709642  24.5223880  54.9923563  55.8280420  25.2639437
  55.4268360  54.8381186  25.1246810  54.7374630  55.9279346  26.3190031
  56.0893011  56.7994642  24.9158692  56.7911673  56.4263821  24.1700149
  56.6769361  57.1748495  25.7536435  55.3868294  57.9914379  24.3656635
  55.9657812  58.5531044  23.6325550  55.0933170  58.6197758  25.2065778
  54.0366507  57.4673510  23.7754107  53.1986380  58.1208515  24.0178394
  53.9618874  57.3964453  22.2864985  53.0487823  57.9933500  21.7031908
  54.8050547  56.6565895  21.7216516  38.3468676  38.2335281  43.7259245
  41.4616728  35.1533365  45.9151030  36.3121796  38.3765936  41.9532824
  37.4705720  39.1145706  42.4778605  37.8701758  37.0456886  44.3344736
  44.7966671  26.7933559  39.4432902  42.9959679  24.8791575  40.7070208
  48.4167576  27.9590607  36.7047358  38.5758376  36.4718914  45.3806496
  44.2599773  26.4711165  35.8174133  44.4390535  23.3094382  39.8304224
  39.5925426  38.6872530  44.1695547  44.7372770  27.3180437  34.7890425
  42.9598713  36.6213870  44.9607992  40.2586460  38.1375957  45.2359056
  45.6299448  27.9728079  36.7248535  38.4063077  39.8924565  41.6587496
  39.7979665  36.9385815  45.7719421  36.8417311  40.3777456  43.2558060
  40.7620573  36.1399245  46.6443443  34.3334270  38.7485456  43.9810276
  42.5702095  35.4969215  45.0921917  31.1613417  38.9525533  47.5869036
  43.3182573  34.3242216  44.5973206  42.8146935  32.9652667  44.7472286
  43.3974075  31.8995905  44.1289997  44.4810963  34.5142293  43.8013172
  45.0653934  33.4683299  43.1388807  44.5259380  32.1131420  43.2889462
  44.9491262  30.9677410  42.4236441  45.2778387  31.2121034  41.0545683
  45.5644083  30.1991153  40.1718140  45.3473568  28.8333988  40.5390692
  45.6050730  27.8453064  39.5184636  44.8110390  25.8781266  38.2138681
  43.6331129  24.9631524  38.4027100  43.7141657  24.2517805  39.7686887
  43.0420876  24.5350981  42.0995331  44.8154783  26.8018985  36.9604635
  45.6537008  28.1374645  35.3617811  46.2319946  29.2370605  34.5654678
  46.8406296  28.0127096  37.4426532  46.7853117  27.8858805  38.7538624
  48.0984354  27.9424334  39.2995167  48.4793615  27.7652478  40.7273579
  49.1160393  27.9568744  38.3456588  50.6200933  28.0750155  38.5381556
  44.9546576  28.6265874  41.8767881  44.7022963  29.6696544  42.8339148
  36.1286998  40.5103159  44.4361591  36.4551950  41.5098476  45.3109741
  35.6288338  41.7522144  46.4884090  34.5826626  40.8777094  46.8147135
  33.8050318  41.2227440  48.0609703  34.2128634  39.9120593  45.8743715
  34.9663496  39.7086859  44.7381878  33.1787395  38.3101320  44.6445084
  33.0924225  39.0368605  45.8834839  32.0501184  38.9529872  46.8318558
  36.9604731  36.5375471  44.0284634  38.3351421  35.4321575  45.5816793
  39.9703312  39.6472955  43.8304424  41.1685991  38.5283995  45.6816053
  41.4717102  36.8362522  47.1077108  40.0666904  35.6989145  47.3690224
  41.1187792  34.2020988  45.9762335  41.9260740  32.7902699  45.3465033
  42.9980612  30.9175777  44.3647337  44.8507500  35.5351257  43.8242531
  45.8154154  33.6037636  42.3652363  45.4920912  32.2280622  40.7362556
  45.8071852  30.5095029  39.1598272  45.6867552  25.2225542  38.1330252
  43.4290266  24.2668748  37.5810027  42.7311707  25.5861187  38.3945370
  42.4554491  25.2695656  42.6648664  42.7114868  23.4921432  42.1779346
  44.0563869  24.6681452  42.4953604  47.0172358  29.7190404  35.1593924
  46.6943836  29.0066528  33.5986352  45.4191256  29.9599457  34.4300652
  48.3342600  26.7415404  41.0915375  49.5546389  27.9324794  40.8594990
  48.0659008  28.4662437  41.4617348  51.0583162  27.6898599  39.4662023
  51.1336994  27.6964331  37.6467824  50.8457994  29.1469932  38.4983945
  44.7080183  27.6493096  42.2811222  44.4012833  29.4067216  43.8436985
  37.4963021  41.0567284  42.8888416  37.1878815  42.2665644  45.0464964
  35.8214355  42.6352024  47.0906019  32.7496862  41.4514875  47.8723526
  33.8097048  40.4686737  48.8565874  34.1639543  42.0995712  48.6123466
  34.6381640  38.3651304  43.0982876  32.6322126  37.4578404  44.2634583
  51.1964989  53.8454866  47.3519135  21.7012644  76.7723894  39.7901106
  41.3132620  70.9366369  46.2708235  59.8300266  26.2363982  63.8140583
  59.8357344  26.1301613  64.7653294  58.9452362  26.5408492  63.6123610
  13.2796144   6.4972776  66.9775105  13.1447196   7.1524870  67.6621532
  14.2179072   6.5345037  66.7918921  66.2814760   9.7849357  11.6333437
  66.9552994  10.0281990  10.9985065  65.5392742   9.5030105  11.0986626
  12.8267515  55.8655071  44.6005678  11.9412768  55.7575083  44.2534304
  12.8024614  56.7036819  45.0621986  15.7338619  58.6322212  31.7000747
  15.7354045  58.6195087  32.6571894  15.7323456  57.7087355  31.4482784
  35.6049991  10.1960540  35.3703380  34.7501373  10.0423861  35.7726216
  36.1771107  10.4237795  36.1031818  67.8800774  58.9541245  51.1375284
  67.3330355  59.4226027  50.5070448  67.2593117  58.5865116  51.7666101
  10.6635690  65.3978395  11.1168885  11.4797890  65.0516033  11.4776349
  10.2105546  64.6296883  10.7691002   7.4193072  56.0120678  36.7930508
   6.9921333  56.8681717  36.7641521   8.1207854  56.1159945  37.4359822
  18.1479788  61.0588312  58.0824995  17.5627673  61.3516951  58.7810659
  18.8999665  60.6843185  58.5412884  60.6577778  74.2411327   7.4447805
  60.5041170  74.6556234   6.5957701  60.8576393  73.3292055   7.2334325
  79.9824142  68.2857990  28.9391828  80.6935406  68.5335922  28.3483076
  79.9251318  69.0103292  29.5620847  71.8395853  19.1031897  32.4815965
  72.1548367  19.4612765  31.6517615  72.0818949  18.1776869  32.4505496
  66.4855623  47.3055458  56.0811615  66.0431910  48.1443930  56.2110424
  67.4107790  47.4962473  56.2355661   6.8248892  68.0768347  33.4729004
   5.9669775  67.6595163  33.3950162   6.6810775  68.8102293  34.0709615
  15.0492752  38.8072133   6.1782563  15.8700514  39.2055774   6.4678454
  15.2017975  38.5851622   5.2597451  32.6424408   6.7673385   8.1586635
  32.2525167   6.0730952   7.6274222  32.6798940   6.4005810   9.0420198
  64.7125053  29.5266390  38.1657028  65.2017593  29.3012905  38.9569545
  65.2979851  29.2897010  37.4464607  40.3570127  19.2948139  10.3061569
  39.5385981  19.6571887   9.9668747  40.2277565  19.2575347  11.2538564
   7.5784034   7.4749917  42.2379255   8.0258483   7.2140318  41.4329910
   8.2764304   7.5400859  42.8896570  63.4138250  10.4946041   5.8842838
  63.2538223  10.2414930   6.7934400  63.0392265  11.3723683   5.8105582
  80.7573700  69.5332527  12.1456122  79.8893976  69.5967627  11.7470920
  81.1628914  70.3829718  11.9730854  30.0397229  55.1285124  25.9994221
  29.6556902  54.3409061  26.3846827  30.7668042  55.3497314  26.5813541
  52.9229879  10.3130877  60.4543495  52.1432686  10.4619825  59.9194622
  52.5905180   9.9058139  61.2542391  77.9968166  51.2314034  12.2790051
  77.4437904  51.5830898  11.5813577  77.4746752  50.5296564  12.6677775
  24.2684722   7.7786016   3.4013003  25.1936841   7.5487435   3.3154038
  24.2182398   8.6860609   3.1009224  80.2508259  32.6506615  22.6573634
  79.3503571  32.3355389  22.5793171  80.5663204  32.7001357  21.7550087
  74.3967915  68.9607477   8.8799673  73.5251474  68.6276579   9.0933269
  74.9944782  68.2733393   9.1740263  11.1603951  11.3808846   4.8115185
  11.1045599  12.3045325   5.0564438  10.2625477  11.0580564   4.8882186
   1.7652023  13.5575163  29.8804164   1.4196642  12.8031218  30.3576207
   1.5217310  13.3963060  28.9688444  12.7916479  20.0632453  67.0209455
  13.5107815  19.4315314  67.0167923  12.0102715  19.5355713  67.1860027
  60.9943533  25.6492066  31.9261432  60.4862595  24.8432970  31.8334889
  61.8407679  25.3607893  32.2676587  56.4388466  73.7537193   9.0885204
  56.8096256  74.3999243   9.6894974  55.5914354  74.1201591   8.8358396
   5.3241825  23.9393878  47.6028776   5.2075785  23.9236808  48.5528183
   4.9344450  23.1192160  47.3001337  23.0408001  55.8140087  24.2713332
  23.0244589  55.3185177  25.0901437  23.5737491  56.5843725  24.4681501
  23.5303783   7.8709829  27.2396445  23.9924788   7.2799623  27.8341103
  24.1917801   8.1310987  26.5984583  43.8367081  18.5575926  34.5655489
  43.5750151  18.9691460  33.7419152  43.4266376  19.0953982  35.2429247
  18.8994098  78.4160233  23.7023616  17.9996240  78.1060362  23.8049650
  19.2135537  78.5401964  24.5979786  70.1236916  52.5172806   0.5393573
  70.3472185  52.1556807  -0.3182632  69.3870926  53.1038618   0.3673738
   0.3476432  32.6867104  22.5114942  -0.3271290  32.5107622  23.1672049
   0.6236485  31.8200231  22.2133255  73.3906031  63.6819553   3.0350381
  72.8628254  62.9046392   2.8521121  72.7560616  64.3972111   3.0797654
  32.0444107  25.3885770   9.4245344  31.4648938  25.4733825   8.6674351
  31.4835835  25.0402236  10.1176107  52.7876568  21.0993409   3.4370953
  52.2779369  20.6673503   4.1225147  53.1169128  21.8974304   3.8504696
  69.3795061  33.9613795   6.2448847  69.8045444  34.7280931   6.6292346
  68.6740351  33.7473965   6.8554163  26.2393022  33.9950132   8.6532444
  25.6079173  33.6597967   9.2898083  26.6260552  34.7598600   9.0794671
  83.0178261  29.4989991  43.3307457  83.6429405  29.4281101  42.6093292
  83.2602501  30.3092813  43.7789726  74.4908714  27.7551699  22.7641463
  74.9682093  27.0343113  22.3533654  73.7134647  27.3434281  23.1414318
  16.7860007  31.2847805  63.9092827  16.8279278  30.3315067  63.9850664
  17.1672487  31.4738846  63.0518913   1.8991898  74.0736580  24.3392134
   1.8706360  74.8055363  24.9554706   1.1036681  74.1701794  23.8157058
  37.1808481  11.4008939  24.5082903  37.3415780  10.4586279  24.4579697
  36.2932849  11.5110171  24.1672087  79.4699287  68.7028694  17.5608802
  80.1097679  68.2937765  18.1435347  79.3605423  68.0750084  16.8466961
  18.3146071  15.0636196  44.6697092  19.0466034  15.5046189  45.1009083
  17.8535903  15.7625508  44.2058229  76.5180826  63.6868954  21.5644979
  77.4220371  63.8406706  21.8391800  76.2950373  62.8353977  21.9405794
  38.2735968  22.8666687  63.5329914  38.6325502  23.6856318  63.1914043
  38.9766645  22.5030828  64.0712595   8.2615525  12.6201808  58.8398981
   8.2516980  13.1429040  59.6417046   7.8096932  11.8101883  59.0764761
   0.5416104  37.4375629  14.0893197   1.0864060  38.0238748  14.6143627
   1.1156888  37.1481729  13.3801520   3.7221795  45.9533262  31.1792159
   2.8042552  45.8034754  30.9529614   4.2115539  45.6232786  30.4256821
  40.7559395  30.1616764  11.2279129  40.0497293  29.8806906  10.6460702
  40.3187943  30.6845784  11.9000041  24.9306154  34.5062828  56.6020250
  25.8850098  34.4414282  56.5680313  24.7004414  34.1951776  57.4775076
  19.6859288  17.0352089   4.3507141  18.7551022  17.0806766   4.5691770
  19.7233331  16.4715612   3.5779694  26.8638182   5.5249727   6.4882529
  27.4242687   5.9808069   7.1162200  25.9723973   5.7174772   6.7790109
   8.4483385  75.6662846  29.2198300   7.9841286  76.4485741  28.9218998
   8.7580168  75.8911228  30.0972009   3.8113695  65.0723553  65.2347994
   3.5024139  64.9216747  64.3414497   3.8598114  64.1983461  65.6220961
  53.8024855  69.2125893  54.1042805  53.8654470  69.5973158  54.9784994
  53.0622387  69.6627045  53.6972618  78.7711811   9.0335286  33.8520026
  78.3385754   9.5593804  34.5247293  79.4087219   9.6279788  33.4565234
  60.5001068  47.3656321  58.8211727  60.1634169  48.2365179  59.0319681
  59.9632597  46.7686749  59.3423891  34.2763925  36.4313459  59.2357349
  34.8656011  37.1847677  59.1980791  33.4288406  36.8021560  59.4814730
  66.1510611  54.7323799  10.7851136  65.7265663  53.8796711  10.6906343
  65.6690454  55.3070831  10.1904643  49.8103428  18.7227714  47.9835796
  49.6250725  17.8396404  48.3029413  50.5345058  18.6079371  47.3682547
  83.4170723  51.1683607  10.3568387  82.7661133  50.8016396   9.7585064
  84.1065025  50.5055141  10.3962076  82.4602604  37.8483295  44.6331358
  83.3709145  37.5640059  44.7113276  82.5143909  38.7207198  44.2429590
   3.2605457  71.2839270  36.7182970   2.4939615  71.5944719  37.2001076
   3.9759633  71.3273478  37.3527455  23.5171604  60.2490950  53.3902311
  23.2564616  60.2505159  52.4692202  22.7830601  60.6591654  53.8475800
   3.3782014  70.9894514  21.3232231   2.6079765  71.5426207  21.1928844
   3.1832457  70.1887989  20.8362079  67.9106617  50.5441189  11.8877149
  67.6812077  50.0779152  12.6916039  68.5837173  51.1691427  12.1571076
  26.2530899  66.0508585   1.0640598  26.8501472  66.3742542   1.7387214
  25.4808354  66.6114330   1.1389545   9.3422306  78.0659819  52.5238705
  10.1487756  77.6540422  52.2139931   8.6939156  77.3618603  52.5123119
   8.1591213  61.5223837  60.4483938   8.5976070  62.1670532  61.0036993
   7.6822048  60.9630251  61.0615015   7.4271446  65.2301979   8.2191712
   6.7691422  64.6233463   7.8800619   8.1566459  64.6694946   8.4831280
  67.8574514   4.0785345  40.1046515  67.6501560   3.8402236  41.0082388
  67.6873684   5.0194466  40.0600672  13.5825443  73.9179087  10.5464375
  13.3305085  73.8855743  11.4692938  13.6067057  74.8516750  10.3373265
  31.0903907  48.5772085   5.2912599  31.2982774  47.6779985   5.5451024
  30.2625155  48.7655497   5.7332766  69.6538973  29.9674368  15.7036829
  69.2201662  29.2659354  16.1894882  69.6017408  29.6925640  14.7882831
  62.7628040  35.5271554  12.0291674  63.1063700  34.9204087  12.6849508
  63.5385895  35.8452415  11.5674281  18.0525327  38.2309532  15.4338813
  17.1108222  38.1817937  15.2695775  18.2965636  37.3433137  15.6961334
   7.3566276  74.1865301  21.8513131   7.1217865  73.3066702  21.5564704
   7.6612395  74.0644693  22.7505040  63.3550310  57.7183771  28.2773924
  63.4680986  58.6285877  28.5511756  63.7428474  57.2051239  28.9861989
  71.2247086  68.9456081  13.2790279  71.0456038  68.0519104  12.9866827
  70.7014370  69.0469170  14.0741122  81.4311123  69.6456242  32.8089952
  81.9766712  70.4281807  32.8877735  81.9908142  69.0069199  32.3673844
  19.6687996  33.7296319  21.9532585  19.0645027  33.7527776  22.6952291
  20.3142548  34.4088912  22.1487713  48.9932251  57.9552937  63.1184196
  48.0600071  57.9567385  63.3313322  49.4214725  58.2647467  63.9165878
  64.9239874  62.5152445   4.8216709  65.6924868  62.0803404   4.4522214
  64.7055578  63.1965733   4.1858155  65.6172276  13.4292936  36.8709469
  65.1186228  14.1098750  36.4188027  66.4749670  13.8244820  37.0269775
  43.7006569  17.2336352  14.6658278  43.8973618  18.0347443  15.1513791
  44.2934990  16.5786076  15.0342155  71.1793423  69.2411566  52.2587442
  71.7574406  68.5017586  52.4467087  70.3542614  68.8376188  51.9892406
  42.2370434  14.8719168  58.1457758  41.3179493  14.7560334  58.3867502
  42.2445011  15.6592548  57.6014614  68.8232613  34.3410349  14.9063730
  68.0800343  34.0030169  14.4067824  69.1504335  33.5833216  15.3912044
  83.8498020  77.7161789  38.1551194  84.6455097  78.2323027  38.0258965
  83.2414055  78.0441427  37.4929070  75.1911402  74.1344118  59.7787523
  76.0138941  74.6112728  59.6696091  74.9657536  73.8404989  58.8961172
  73.2691145  26.1736941   5.9333688  73.5422039  25.2599907   5.8509111
  74.0000200  26.6756129   5.5726945  42.0346451  16.9904375  61.7832994
  42.4367809  17.7075815  61.2931776  41.6078138  17.4176538  62.5259542
  21.1401224  74.4503975   9.6813536  20.4396677  73.9377737  10.0848472
  21.7539954  74.6210814  10.3956783  33.8944054  30.3792596  60.9111881
  34.1312099  29.8739123  61.6888618  34.3750978  31.2017345  61.0044670
   4.4165811  18.7853217  18.1768191   4.8006931  18.1411707  18.7715960
   4.7053924  18.5100591  17.3067331  80.6371212   5.2932239  65.9171152
  80.1645660   6.1233813  65.8558130  81.1734581   5.2638555  65.1248360
  75.4104519  32.6705194  19.7093797  75.3583813  32.8775883  20.6424618
  75.2372599  31.7302775  19.6626711  53.5115433  10.7755196  48.2825661
  53.3390617  10.3942943  47.4216652  53.1412601  10.1463604  48.9016628
  75.8569336  54.8586369  29.8940444  76.0282993  54.3640232  30.6954312
  76.2861300  55.7022190  30.0368452  60.6872892  17.1621609  48.5130548
  61.0595369  16.9590414  47.6549101  60.3772593  16.3196492  48.8451481
  47.3847055  54.7827244   7.4558175  47.1129560  53.9813566   7.9032499
  48.0257130  55.1804209   8.0450344  52.7695084  68.3849382  35.9955215
  51.8466711  68.5824394  36.1555171  52.9049778  67.5285625  36.4011145
  53.2895803  72.6523161  59.3206310  53.7282372  72.2471285  60.0687170
  53.9828062  73.1325006  58.8677645   1.3255371  48.5083199  29.0218806
   2.1077731  48.8227272  28.5685754   1.1395554  47.6603842  28.6185765
   8.1832039  15.3146243   5.0462085   8.0257899  15.8850968   5.7985473
   7.6986170  14.5139885   5.2471811  63.9476109  16.9807005  50.9662914
  63.8878727  17.3261225  50.0755930  64.5672846  17.5617397  51.4074612
   8.9410120   8.5327375  61.0500050   8.1277549   8.0803633  60.8259487
   9.2683989   8.0691874  61.8208313  46.3694954  56.3979197   5.8242744
  46.9085884  55.8773327   6.4197558  46.3134670  57.2575712   6.2415254
  74.9335480  73.5991335  34.1569328  75.2405930  74.0447855  34.9464583
  75.1718140  72.6818991  34.2916322  34.3489003  76.5448475  62.5852633
  34.4352436  76.2993908  63.5064220  34.9215436  75.9349251  62.1201801
  60.5111742  58.2077217   6.7681265  60.1167583  57.5105810   7.2922063
  61.2229252  58.5435104   7.3130023  37.5754571  13.0069637  28.9738250
  37.0778990  12.6646638  29.7164559  37.0289969  13.7102771  28.6231637
  16.8669605  53.0254507  39.9452400  17.7322483  52.6979542  40.1907063
  17.0190048  53.9350653  39.6888947  46.8671799   4.5887563  45.6952429
  47.7610826   4.7959411  45.9677219  46.3138056   4.9831590  46.3693810
  72.9665518  79.6324968   7.7942157  73.3654070  79.0662956   7.1334910
  72.4351978  79.0410852   8.3272505  14.7243917  59.1556787  16.7766583
  14.3853080  58.6216307  17.4950218  15.3816164  58.6014986  16.3557470
  81.1237526  66.6155958  39.3789887  80.2102947  66.3497305  39.4845295
  81.1564541  67.5052023  39.7307801  53.1548500  47.1704435  10.4224694
  53.0356693  46.5992022  11.1812270  52.6900339  46.7265749   9.7131330
  49.8094559   5.7969189  21.9183898  50.7546902   5.6462097  21.9112134
  49.4273281   4.9269599  21.8027163  48.5242319  14.1128564  59.7029638
  48.3776617  14.5473170  58.8627338  48.3158588  14.7799015  60.3570795
  14.0325093  72.0858765  37.2674561  13.5700333  71.9472170  36.4409447
  14.7239232  72.7120924  37.0529008   3.8027266  75.5370998  20.8054829
   4.0853328  75.4256821  21.7131996   4.3353671  74.9144697  20.3106570
  49.2429972  62.9550600  11.2623656  49.7996807  62.3166513  11.7082012
  49.8473930  63.6377573  10.9710586  65.7035255  63.5025120  21.3602090
  65.2003670  63.8087368  20.6056976  65.1400137  62.8491259  21.7746663
   3.9576864  66.7916489  10.8636737   3.3494610  66.0563850  10.7882762
   4.7009087  66.4384985  11.3526917  33.9741993  78.1019211  39.1604114
  34.8663950  78.0846405  39.5067048  34.0220499  77.5951147  38.3498001
  79.0085506  67.9143763  21.2207389  79.0977287  68.8410330  20.9980583
  79.4335842  67.4524164  20.4981232  45.8978462  42.0150518  59.8047876
  44.9742651  42.2646236  59.7740698  46.1325836  42.0790577  60.7305479
  70.2729654  56.9900846  35.9817028  70.2009249  57.1542120  35.0414348
  69.8029232  57.7179146  36.3885856   1.1375511  45.6441879  30.5453515
   1.0045333  45.8027649  29.6107984   0.2578883  45.6765127  30.9213591
  72.7096367  47.9985523  24.6003652  72.4254799  47.4501610  23.8690996
  72.0194578  47.8997040  25.2561998  59.3039751  57.5397158  22.8688240
  60.1251650  57.0487738  22.8980184  58.7263393  57.0079374  22.3213005
  82.5178242  55.9329700  17.6793683  83.3922291  56.2906313  17.5253546
  82.0062637  56.6782236  17.9942286  53.3081007   0.9301621  60.8523750
  52.5705671   1.4513135  60.5350685  52.9845953   0.0293014  60.8472395
   4.0500945  48.3844614  22.6188183   3.1209627  48.6112881  22.5801516
   4.1857934  47.8021622  21.8713260  57.0180082  74.6348953  17.3794997
  56.2208843  74.4578743  17.8789890  56.8258286  75.4402876  16.8992448
  21.9176745  30.7119298  15.4937291  22.8440547  30.8486056  15.2953053
  21.4758611  31.4680052  15.1072264  81.3844299  38.3824444  24.6852660
  80.6407452  37.8642774  24.3775678  81.9565296  37.7476907  25.1165652
  55.9057236  27.9935646  63.7295771  55.2880335  27.3342371  64.0457630
  56.3929176  27.5514340  63.0343103  24.5863867  68.9136600  12.8493202
  24.9767590  68.7420273  13.7062824  24.2602897  69.8115396  12.9101658
  72.5757599  50.3062105  23.0115819  73.2762480  50.4933548  22.3866630
  72.7961159  49.4454718  23.3676839  72.1047211  73.0410814  14.3333077
  71.7055368  73.7335348  13.8066256  71.5037584  72.9230738  15.0689352
  66.4507437  72.3692322  23.7017345  66.6117430  72.8910589  22.9155993
  66.2709045  73.0148935  24.3851161  58.8530874  73.1288719   1.0357895
  59.3376875  72.4829197   1.5497328  58.4841442  72.6281261   0.3082138
  75.6672144   2.0044449  60.2785969  75.2829456   2.8298709  60.5739594
  75.0246382   1.6467966  59.6658850  32.5385165  44.5449543   1.6133665
  32.9252672  43.6715174   1.5520123  32.4854302  44.8476076   0.7068270
  35.1388669   8.2665056   5.3094441  34.5977664   8.7657297   5.9211767
  34.7824645   8.4781969   4.4466609  83.9150047  37.2467279  22.7345514
  83.4360504  37.8170753  22.1332741  83.2549477  36.6357827  23.0621076
   9.4796771  56.2986660  38.8021755  10.2345657  56.7638779  38.4416866
   9.6655279  56.2299395  39.7386408  70.6802177  46.0785580  35.9158158
  70.1252699  45.6160545  35.2878356  71.5594673  46.0284567  35.5407977
  69.6623182  10.7071388   5.4286516  70.4188061  10.3791094   4.9424937
  70.0346470  11.3076198   6.0744268  29.2196822  74.7887945  67.6518774
  29.8141575  75.5125952  67.4545431  29.1523576  74.7876644  68.6067057
  17.9879236  53.8570976   1.0394060  17.1742296  53.3530235   1.0461945
  18.4862900  53.4975481   0.3055200  66.9795036  10.6174827  24.2598796
  66.4324570  10.4206574  25.0202966  67.8755426  10.5873036  24.5951891
  65.7579613  49.6994638  48.4915638  65.8053493  49.8427963  47.5463438
  66.6427183  49.8844957  48.8065243  76.2833166  76.3471985  12.4715650
  75.6579638  76.3028955  11.7482388  76.1315298  75.5435944  12.9689705
  73.8478899  26.2322450  10.2323902  74.7635031  26.3861322  10.4652071
  73.7237453  25.2914453  10.3577387  55.7782030  20.3632450  65.4084635
  56.4421272  19.9179769  65.9349346  54.9445772  20.0710583  65.7771540
  71.3017893  36.7166662  33.2535124  71.0668612  35.8647680  32.8856635
  72.0719290  36.5400958  33.7938285  51.0135508  29.8508096  66.3640642
  50.9459162  29.1891623  67.0524549  51.9548988  29.9677253  66.2358904
  67.5120735  75.3285646  26.2498474  67.3106003  74.5998859  26.8369293
  68.4684324  75.3644943  26.2321281  26.6388011  78.0925655  28.0477595
  26.5125084  77.4128819  27.3857069  27.2102332  78.7343836  27.6261353
  70.4239988  69.3879604  40.0162649  69.5085239  69.4784403  39.7517705
  70.7661486  70.2818441  40.0045776  39.1372013  71.8979645  44.0247917
  39.7321963  71.4039707  44.5888710  38.5222912  72.3124981  44.6300030
  81.4723778  75.1093006  32.2210574  81.0303307  75.6197071  31.5425944
  80.9105778  74.3451262  32.3501086  14.6923935  61.8341637  13.3831370
  14.6515763  62.7823925  13.5073674  14.1690588  61.4759302  14.1000891
  70.3779364  21.4447594  48.5994148  69.5516968  21.4003396  49.0806484
  70.7883644  22.2546721  48.9024401   5.1049858  44.9422741  24.5103216
   4.7000083  44.0866613  24.6522665   4.5488822  45.5535650  24.9933362
  82.4093246   1.8489152  26.6545081  81.9782352   2.1351908  27.4597669
  83.2660007   2.2753446  26.6768217  32.9831791  48.6311960  19.2775071
  32.1051884  48.8956881  19.0029013  32.8956628  47.7041769  19.4993293
  31.8099737  36.9985223  63.8061857  31.5121984  37.7123904  63.2423115
  32.4875879  37.3934507  64.3549109  72.7923918  47.0900583   8.6949879
  71.9219780  47.2980261   8.3553332  72.7607441  46.1506367   8.8758671
  47.6958036  59.5677471  30.7881188  48.2638216  59.1838026  31.4560795
  48.2995892  59.9434376  30.1473951  57.0097637  60.3952169  15.8022559
  56.6487837  60.7633209  16.6087461  57.2941113  59.5146561  16.0471714
  66.5330124  71.9265509  12.9231322  66.9111395  72.3630714  12.1597826
  65.9182405  72.5652552  13.2841754  30.6142879  65.3204584   1.6880749
  31.2775564  66.0065079   1.6129610  30.2576542  65.4276228   2.5698683
  53.6517620  51.6119289  37.9748774  53.7304497  50.6587744  38.0141282
  53.8551760  51.9058180  38.8628435  66.8730307  69.7054815  16.9235420
  67.5632858  69.7892284  16.2656939  66.0730982  69.5704031  16.4155090
  40.1368141  19.6260929  52.1504927  39.3988299  19.4292676  52.7274466
  39.7406411  19.7466171  51.2875032  37.8278947  78.1518984  52.5549078
  37.2934723  78.2293129  53.3452463  38.6751270  78.5229540  52.8013802
  21.6728806  60.0625563   0.1976240  22.2054768  60.3175211   0.9509942
  22.0522738  59.2336845  -0.0943829  75.9781504  66.7306376  20.0400186
  75.8560133  65.8575010  20.4127765  76.7391348  66.6417980  19.4662225
  81.2449265  57.7709723  64.3394899  82.0022106  57.6489496  63.7669039
  81.3455582  58.6583900  64.6838617  74.7799444  51.7506599   4.3826991
  75.3987837  52.4808693   4.3907613  75.3318548  50.9687710   4.3994519
  19.7854137  39.9308228   5.3153068  20.6661415  39.5613074   5.2519828
  19.3186533  39.5677376   4.5626208  74.0046310  59.0705156  39.0212226
  73.5980415  59.5830154  38.3224678  73.3049297  58.4988070  39.3371415
  52.4608469  33.3656788  63.3047247  52.4763250  32.4750948  62.9542255
  51.8129730  33.3348012  64.0086699  23.6446953  23.5898829   9.3780565
  23.8793612  23.0201936  10.1105988  22.8878140  24.0845156   9.6922225
  17.3275959  56.3543034  25.7496572  18.2367468  56.4447880  25.4641962
  16.8536317  56.0925531  24.9603033  78.0567169  66.1510992  38.8819790
  77.1884251  65.8131790  38.6626267  77.8841734  66.9583035  39.3666220
  23.1721497   1.3167074  47.2055531  23.3251810   1.3399792  48.1501532
  22.7169490   2.1372175  47.0163774   5.5340582  42.0984745   7.5433308
   5.5507994  42.3006821   6.6078830   4.6686634  42.3853397   7.8349340
   2.2711442  10.0677693   2.8101265   1.5730685   9.9504638   2.1657962
   1.8232985  10.3893375   3.5925967  83.0747795  26.1026788  13.8504541
  82.2755146  25.6945419  13.5175431  83.7241936  25.9531116  13.1633401
  15.7329810  53.6503267  65.9762096  15.7091475  54.5016623  66.4131165
  14.8137748  53.4391499  65.8128166   8.3768272  63.4607172  33.7535572
   8.5001451  62.6510763  34.2490435   9.2649519  63.7699556  33.5751271
  40.5877161  75.9505749  67.0603991  40.2222109  76.8267298  66.9379568
  41.3468838  75.9242201  66.4779854  79.6792459  63.5792160  18.5433304
  79.6698570  62.6581717  18.2829118  80.3949642  63.9638948  18.0373621
  60.1910305  32.4960065  68.5003853  60.9792614  32.5890231  67.9653406
  60.4913139  32.0536280  69.2943382  15.0844312   1.4391539  13.2460117
  15.4447031   0.7339568  12.7083015  15.8475673   1.9537112  13.5088539
  41.5822935   6.5867835  62.6142359  41.5642166   6.4593440  61.6657305
  41.5973473   7.5370830  62.7279758   5.8302706  63.8957787  21.5599036
   6.6872346  64.2075729  21.2689924   5.9692717  63.6252403  22.4674940
  24.2660618  23.4705353  60.1151085  23.8272357  22.6383018  60.2913284
  24.8208761  23.6157393  60.8814812  76.6685057  48.4839678  19.6300638
  77.0343113  49.1784525  19.0822387  76.9087601  47.6733255  19.1813266
   5.5938065  62.1132565  10.8026242   5.9117657  62.9436731  10.4483008
   5.1652437  62.3519754  11.6245604  20.5257249  56.5748739  34.7511435
  20.7759833  57.4986744  34.7649264  21.0435843  56.1970234  34.0403104
   3.5625100  75.5610132   0.0651976   3.3061272  76.2091064   0.7213040
   4.1530919  74.9691486   0.5311836   3.7303475  65.9932375  18.2214260
   2.9931656  66.4046144  17.7702427   4.5045575  66.4170647  17.8510177
  83.0568504  48.9628220  25.5414176  83.9179611  48.6405182  25.2752542
  82.7481461  49.4696045  24.7903490   4.2387220  63.2569551  30.0117755
   3.9163786  63.6537123  29.2025089   3.9919269  63.8774347  30.6975770
  59.1788673  75.0864124  46.3642979  59.5666933  75.3632212  47.1944761
  58.3140707  75.4966307  46.3553572  79.8370504  78.2559204   1.1718939
  80.3505325  77.5036097   1.4661703  78.9530373  77.9096365   1.0500799
   9.0379107  78.8570261  18.5768580   8.9536315  77.9592514  18.8979959
   8.2200122  79.0212822  18.1075025   6.1066496  39.7341776  25.8664584
   6.5806687  39.1370106  26.4451909   5.4937744  39.1721582  25.3923798
  79.3309927  11.8824589   1.5314001  79.5406437  12.8002620   1.7043686
  79.5127249  11.7669225   0.5987390  30.8342409   2.0794800  31.4138675
  30.2876806   2.7529365  31.8187881  30.4336905   1.2525922  31.6822839
  19.9462211  74.5453024  12.6929271  19.8041582  74.3444777  13.6179769
  20.0762057  73.6917162  12.2797406  57.8974342   4.4079670   6.0029483
  57.8251457   5.1159263   5.3627926  57.0291805   4.0051714   6.0136741
  52.7024460  70.3827190  26.6960049  53.5661411  70.2961493  26.2925577
  52.7918005  71.1225080  27.2968030  37.9084873  14.9010301   1.2847313
  38.2531238  15.7884181   1.3847396  37.5793028  14.6725535   2.1540222
  77.7430773  41.4272547  58.2777548  77.6108694  41.5878916  59.2120695
  78.2645559  40.6252861  58.2440472  59.4076347  76.9482470  67.3947430
  59.2375994  77.6723337  67.9972506  59.6767807  77.3726892  66.5801001
  51.2944794  57.4106932  53.2177067  51.9711876  57.1084356  53.8234615
  50.7773495  58.0339670  53.7279367  65.2120972  49.1226196  67.9612398
  65.2765465  49.4673681  67.0706081  65.9981394  49.4466686  68.4009695
  76.3233471  65.3227520  60.4897165  77.1083117  65.1249933  61.0005569
  76.6572857  65.6479645  59.6536827  51.5946627  42.1183252  64.8682880
  51.8054867  42.8495741  64.2877150  50.6880856  42.2756433  65.1321125
  81.7521572  73.5886908  23.9631438  82.2820473  72.8721142  23.6139154
  82.3662949  74.3168259  24.0574241  20.7402301   9.9114579  37.2633290
  19.9100900  10.2667952  36.9457817  21.3319063   9.9788344  36.5139198
  50.4904127  42.6106024  58.5148191  49.6757221  42.1497917  58.7152195
  51.1806965  41.9956970  58.7630796  38.9020443  10.9265184  30.6836510
  39.4699574  11.6928744  30.7636666  38.0288577  11.2515330  30.9030676
  33.6563945  18.5763335   9.9264705  34.2141652  19.3538272   9.9013817
  33.4778571  18.3798683   9.0068197  16.3625920  66.7683983  21.9072986
  17.1297789  67.3257637  21.7769194  15.8062327  67.2635221  22.5085855
  82.5231552  22.2739911   4.2744854  82.1177483  23.1332064   4.3912268
  83.0366898  22.1412110   5.0712788  44.4651556   1.2205341  13.5116398
  44.8974371   0.6919350  12.8408587  44.5568228   0.7090835  14.3155360
  18.9316380  71.3625669  61.9425201  18.8059688  72.2926378  62.1306849
  18.5022378  71.2290049  61.0975313   6.1839020  57.9167271  57.1279716
   5.9421712  58.8411903  57.0717239   7.0153809  57.8575277  56.6574717
  45.8270562  78.8920146  50.9667969  46.3715470  79.6402061  50.7219076
  45.2053988  79.2461367  51.6026974   5.1448572  58.7823343  42.1469450
   5.8010602  58.1150627  42.3478842   4.3563485  58.4877253  42.6026726
  83.6558056  58.2398129  54.7247505  83.4753036  58.0147743  53.8120556
  84.5270824  58.6357307  54.7060108  49.9261427   6.3236988  16.2894976
  49.0735865   6.0277569  15.9704375  50.2005577   6.9886494  15.6580162
  19.6976495  25.3124571  40.8415699  20.2116656  25.9467721  40.3419065
  18.8676906  25.2510691  40.3686714  57.3848486  53.2390261  63.1179619
  57.3672247  53.3373260  62.1659851  58.2997179  53.3874178  63.3571768
  25.7277679  59.5450258  32.0468402  24.9885631  59.4987011  32.6531911
  25.3968024  59.1591835  31.2357807  60.1668310  31.1452508  54.8010588
  60.1263714  30.2142572  54.5823240  60.1277733  31.5918970  53.9553547
  77.9594564  54.7078180  35.9863329  78.6043549  54.0972614  35.6291819
  78.4805822  55.4364777  36.3235569  66.3859272  27.0262909  27.2076964
  66.9838238  26.4555764  27.6904392  66.7826509  27.8952622  27.2687507
  76.2932348  56.1015558  20.7732534  75.5608463  56.3292074  20.2005291
  77.0386982  56.5799761  20.4104352  18.2908142  78.3109522  35.1886129
  18.0970109  79.2477608  35.2212882  19.0011942  78.2354116  34.5515203
  43.7614441  23.9041400  45.4343987  42.9757309  24.3947530  45.1931763
  44.4438457  24.2455554  44.8564720  19.6032906  63.5052299  11.8912506
  20.2045155  63.8115358  12.5701737  19.2662072  62.6745749  12.2268367
  35.4768157   3.4292746   7.9869854  35.0548029   3.2248420   8.8214576
  36.4131761   3.4286472   8.1856346  49.1194487  72.7156496   9.8297328
  49.9956131  72.4969196   9.5123661  48.6843252  73.1143045   9.0760916
  72.1358728  39.8075414  61.4023829  72.2234774  38.8859010  61.1592054
  72.8523016  39.9619317  62.0181084   2.1635319  11.6211855   7.5775564
   2.8198740  10.9401798   7.4303192   1.7769864  11.4019907   8.4253579
   3.1322774  18.8383710  47.4765778   2.4603581  18.8489926  46.7949295
   3.0080384  18.0004525  47.9223204  49.0920782  64.2128325  43.8618517
  48.9978790  65.1576090  43.7403774  48.5317230  63.8276768  43.1881380
  64.7514200  23.1373000  36.4312077  64.5167637  22.8839326  37.3239398
  64.5858192  24.0794897  36.3982749  29.5138121  65.3624964   3.9372870
  29.9751282  66.0411310   4.4301063  28.6979914  65.7799530   3.6608911
  14.0076602  78.6870527  25.8727646  13.0607200  78.5958719  25.9786963
  14.1394055  79.6166515  25.6864142  55.0656605  43.7019491  48.9819670
  54.5309925  43.4162951  49.7227526  55.9386492  43.8315392  49.3525362
  11.5471709  66.4334774   4.4018033  12.2026920  65.7367849   4.3680185
  10.7912254  66.0737848   3.9376950   7.7307993  76.2300062   4.9787641
   7.0472538  76.7520475   5.3988498   7.7937287  75.4405832   5.5164272
  70.5044174  51.6209984  56.5768671  70.1184034  52.4730682  56.3738775
  71.3491774  51.8296576  56.9757032  53.5334539  41.2904406  54.1253901
  53.1059980  41.2415552  54.9804449  54.4638491  41.1702251  54.3155098
  79.9962282  61.2942076  15.3112483  79.9048948  62.1831083  14.9681175
  79.5287514  61.3106298  16.1463702   5.6444198  42.8172493  56.5551615
   5.1347381  43.4093380  57.1082306   5.2645791  41.9533777  56.7154121
  76.0834026  63.1164837  30.6068611  76.7052650  63.7873316  30.8887935
  75.5166960  63.5640955  29.9785972  10.9727156  71.2666416   2.6226085
  11.4986193  71.7900896   3.2273054  11.6154408  70.7966757   2.0913205
  81.8855572  63.0450916  29.0478587  81.6955471  62.8536510  28.1294489
  81.4634418  63.8889647  29.2089128  66.2588835  34.1543508  16.1121118
  66.1615324  34.1121507  17.0634127  67.1097708  34.5713425  15.9766877
  40.6503153  15.1371539  11.6702068  40.7414293  15.3768480  12.5924194
  40.9205198  15.9206378  11.1912751   2.4562612  51.4461613  21.2390065
   3.2749775  51.8372154  20.9340286   1.7837614  51.8278790  20.6748533
  46.3097286  61.9846869  62.9054976  45.6324482  62.6487637  63.0340433
  46.8374729  62.3181486  62.1798801  82.1213245  73.2223177   6.1560357
  81.6799831  72.6936293   6.8208164  81.4216518  73.7413406   5.7594240
  78.6852407   2.4707794  12.8981316  79.0198183   1.6025490  13.1227803
  78.1566572   2.3279935  12.1129942  11.0617530   4.2396793   2.9285353
  10.4506242   4.8707080   3.3087412  11.8062294   4.2348704   3.5301691
  83.2896042  68.0430031  21.3791299  82.8456974  68.8239193  21.0484457
  83.9688969  67.8606319  20.7298684  37.5715399   1.6346487  13.3254349
  37.4137592   1.8408132  12.4041140  38.4764433   1.3235287  13.3496857
  27.1028638   2.4699773  17.8669679  27.7370477   3.0442166  18.2962584
  27.4574995   1.5890834  17.9873502   7.4760753  44.0182543  44.5640230
   7.8409582  44.6576500  45.1757956   6.5324783  44.0467644  44.7222757
   3.6606774  76.1075449  44.3568993   3.3534238  76.5510416  43.5662413
   3.3212420  76.6391134  45.0769329  54.2309523  58.0425501   1.5387762
  54.3287611  57.9484034   0.5912527  53.2997894  58.2237482   1.6666088
  72.7662945  36.5619278  47.1834898  72.1195459  36.5139103  47.8875113
  72.8270149  35.6658268  46.8525124  48.5246134  78.1380129  27.5754166
  49.2131376  78.7045479  27.2272730  47.8725958  78.7430477  27.9290199
  80.1708698  65.2091360  29.2039537  79.2974949  64.9500418  29.4977689
  80.1589775  66.1658478  29.2319798  30.7864618  41.2586594  15.4328811
  30.0677896  41.3035202  16.0635412  31.4802122  40.7866669  15.8934975
  81.4591789   4.1165563  63.3542061  80.7758904   3.4815425  63.1394863
  82.2511196   3.5895169  63.4604454  56.1115456  28.5746503  46.8594646
  56.9441128  29.0461087  46.8876410  55.5512333  29.0407634  47.4799681
   0.5331809  26.9275331  10.6171679   1.2376676  27.1587491  11.2225354
   0.4526042  25.9769368  10.6952989  82.8481483  51.0298586  43.3652449
  82.0181751  50.5628443  43.2690096  83.2237911  51.0345984  42.4848413
  59.6456051  33.1977081  60.6908035  60.1777887  33.9929819  60.7143116
  60.2244520  32.5122142  61.0243750  14.1710949  32.9977942  35.6086111
  13.7054551  32.5547051  34.8993278  14.6669006  32.3023558  36.0407853
  39.4785619   0.9831913  34.2382383  38.9290977   0.2027110  34.1663289
  39.0055704   1.6551532  33.7473440  74.5928431  64.0030909  26.6659474
  74.9784422  63.1278372  26.6275167  74.9162149  64.4420385  25.8791924
  20.1902032   7.8196108  16.1060524  20.9820342   7.8896916  15.5728316
  20.4611897   7.3133445  16.8718815   2.1034567  14.0062392  54.8179007
   2.9252467  14.1418993  55.2895880   2.0447688  14.7512841  54.2198229
  68.4099293  37.5082994  23.3140922  68.2089520  37.3332596  22.3947453
  68.8394403  36.7100382  23.6215568  81.9102478  39.6988225  54.5726252
  80.9798527  39.9216962  54.6031570  82.2255039  39.8644948  55.4611063
  30.5766463  12.4179959  56.6444778  31.0308480  12.4571300  57.4861431
  30.4606771  13.3340085  56.3920784  37.2834277   7.0294344   8.6521947
  36.3343310   7.1475154   8.6909956  37.4454403   6.6777295   7.7768159
  76.2024975  58.1570196   9.7087997  75.8491182  57.6926184  10.4675400
  76.9642878  58.6264229  10.0487494   1.8190955  29.8073769  66.3825989
   1.6842204  28.8663960  66.2703657   1.1797159  30.0633764  67.0473433
  68.4345675  23.6324143  46.1585855  69.0065813  24.3996596  46.1394405
  68.2436132  23.4529924  45.2379465  12.7117360   7.5351280  42.1615744
  12.4282527   8.4484792  42.1208477  13.0669224   7.3555440  41.2910414
  69.4956827  25.5005908  42.3296213  69.4242859  24.6438885  42.7505636
  68.5897779  25.7889509  42.2181988  63.8996744  30.6350327  33.6101604
  63.4639835  31.0299277  32.8548717  63.3729792  29.8620367  33.8133812
  30.5707359   1.5455548  35.7042718  30.5158257   2.2896060  36.3039422
  29.8253393   1.6578664  35.1143527   3.5244250  24.4210505  23.9419484
   3.5811400  23.4800529  23.7759995   2.8983176  24.7414541  23.2926679
  29.1422772  62.9556227   7.1074134  29.5282292  63.8309765   7.1395403
  29.8795199  62.3632431   7.2550243  68.0826235  48.9458513  62.4157572
  68.6805248  48.9916420  63.1618500  67.6553679  49.8022270  62.3983097
  14.2013514  45.7345390  53.8192940  14.4342756  44.8067713  53.7842035
  14.8189020  46.1592102  53.2238817  78.9646626  51.6823626   9.5132571
  79.0459633  51.0630846  10.2385962  78.7316132  51.1396885   8.7599808
  12.7174497  65.9702206  48.7189102  12.7374637  65.0874281  48.3494473
  11.9283259  65.9853792  49.2604733  11.2658286  43.1252527  56.2993622
  11.4605105  44.0624380  56.2948608  10.9073114  42.9509211  55.4291296
  76.2167788  55.4472065  39.1368842  76.3082170  56.1542606  38.4981775
  75.2805519  55.4226732  39.3346334   8.7496358  30.3492570  57.2159719
   8.9028627  29.4763231  56.8543911   8.1378978  30.2054358  57.9379988
  36.0062933  27.3068976  68.0584526  35.5333138  27.5144243  68.8643408
  36.9301057  27.3470020  68.3058357   3.2917207  -0.1679822  31.5027642
   3.0959943   0.6034288  32.0345974   3.8530913   0.1612008  30.8008146
  50.6214619  10.7868207  58.8228846  50.6999540  11.7228913  58.6389208
  49.6791172  10.6190956  58.8135958  80.8492851   5.3099680  32.1919298
  81.2386703   6.0519809  31.7293000  81.2196159   5.3562194  33.0733752
   0.4115853  75.5490541   7.9470378   0.8674271  75.5284500   7.1056014
   0.2548031  76.4788437   8.1117976  27.7361798  61.5183210   5.1244366
  27.9728127  61.8976831   5.9707952  28.1941557  62.0607662   4.4823742
  15.4171384  79.5588298  59.1960192  15.5867112  79.3218576  60.1077890
  14.9229586  78.8184643  58.8440561  81.0543633  30.2773499  67.1616459
  80.6693554  30.9827089  66.6415739  81.7613792  29.9349713  66.6147137
  25.4695868  68.5550165  28.1286836  25.5736399  69.4445610  27.7908707
  25.7573628  68.6096907  29.0399599   4.4803798  57.9974842  29.4608259
   4.7440812  58.3207703  28.5993290   4.2186025  58.7827587  29.9414992
  74.9996853  26.9614506  64.9106169  75.9115934  27.0191193  65.1957989
  74.8842907  27.7093339  64.3244553  30.1738572  16.0184288  15.4592276
  29.4381380  15.4500103  15.6869352  29.9060321  16.8877625  15.7571518
   7.7811128  76.1801767  14.7142208   7.0202351  76.7609501  14.7131860
   8.4880382  76.7109203  14.3470752  12.9569626   5.7536846  29.6872759
  12.9709947   4.9157512  29.2247796  13.3937383   6.3630569  29.0921926
   6.4987749  16.1663496  46.3492680   7.4493939  16.1810648  46.2381840
   6.3679242  16.1942708  47.2970676  27.6787496   1.4522582  46.7003012
  26.9770670   0.9051646  46.3473701  27.6990414   2.2166893  46.1245728
  49.4374895   3.3092827  12.4926960  49.1290665   4.2035395  12.3463595
  48.6561203   2.8279474  12.7647543   7.5314480  73.1516314   0.1312352
   7.0987749  73.8569307   0.6124579   6.8213016  72.7062130  -0.3308566
  81.5474224  59.2289877  41.6577625  81.7867851  60.1084709  41.3654518
  80.7596397  59.3582582  42.1858931  15.1246679  51.0636520  56.8012428
  15.2253819  50.6867027  57.6753139  15.8170044  51.7220783  56.7431307
  59.1045952  12.9903781  20.7562494  59.4174719  13.8663459  20.9821248
  59.0858030  12.5203991  21.5899158  82.3321342  36.2718844  50.4494095
  83.2371616  36.1501098  50.1624727  82.3997498  36.8276572  51.2257957
  17.1469474  42.1993971  16.0952902  17.3523903  41.3791752  16.5439117
  16.4651024  41.9639778  15.4660857  46.5270996  52.2215605  20.7171082
  47.4521112  52.3399258  20.9329343  46.2052965  51.6032934  21.3731694
  32.4086285  16.5115154   8.1450856  33.0629230  16.9599748   7.6093489
  31.7400551  17.1757495   8.3125168  74.0656042  68.6758566  58.6555386
  73.3473539  68.4831905  58.0528545  74.8129892  68.1959867  58.2986450
  63.5505486  18.0933726  28.5481620  63.3614397  18.5535336  27.7304077
  62.6909256  17.9356086  28.9385295  20.8565569   7.0224428   9.6995693
  20.8115101   7.8752768   9.2672777  21.7262006   7.0020175  10.0989878
  21.2710953  41.3484955  28.0692720  20.5018282  41.8206882  28.3878589
  21.3833594  40.6277132  28.6890316  47.8373098   4.8699206  15.5002999
  47.7940464   4.1923523  16.1750305  48.1390476   4.4093260  14.7173333
  25.0454235  60.2187347  19.0633583  24.1255069  60.2397823  18.7996566
  25.5034423  60.6985426  18.3732617  29.1526270   0.5442073   0.9703799
  29.6998096   1.1609216   1.4566787  28.3832717   0.4173034   1.5255542
   0.1758835  17.2521710  48.3953714   0.6149988  16.4376712  48.1504250
   0.3432429  17.3417294  49.3335629  74.4896793  13.4650004  11.8058360
  74.3297005  12.5923204  12.1650958  74.8417568  13.3028686  10.9306312
  45.7753086  71.1968374  16.6699731  46.4149094  71.1585283  15.9588635
  45.0510931  70.6471872  16.3705969  20.8382320   3.1547159  10.2344298
  21.0557413   3.8908517  10.8062923  20.6001163   3.5610104   9.4010890
  25.8922839   7.2512364  57.4292469  25.1823401   7.5393850  56.8555069
  26.6503572   7.1707517  56.8503857  39.6846008   1.2913807  16.2411559
  39.5349002   1.4117008  15.3034222  40.5210781   0.8289170  16.2927663
  66.5371656  67.2965193  62.8259563  66.3310909  68.2311630  62.8401518
  65.8324385  66.8882036  63.3288145  73.5947895  58.8992834   6.7691821
  73.6440182  59.7609997   7.1830112  72.7109814  58.8591909   6.4037967
  14.0132427  56.8263769  62.6029015  14.7751200  57.2989845  62.9381895
  14.2351460  56.6291428  61.6929054  41.3427925  18.3612001   7.9256749
  41.0113859  18.6565030   8.7737298  41.7125750  17.4959242   8.1011438
  65.8885050  38.9287639  52.8878880  66.5665102  39.5529008  52.6290560
  65.0672579  39.3450117  52.6261187  31.4646769   1.5551345  45.7564020
  31.4998937   0.8958630  46.4494753  30.8104205   1.2221762  45.1421404
  32.1049142  26.1192608  28.4452701  31.8412137  25.3093243  28.0085802
  31.5183496  26.1871028  29.1986418  31.5238881  63.7802505  33.7061715
  31.7459464  62.9295063  33.3278131  30.5840421  63.8736105  33.5505843
  70.5190420  13.5222316   8.6067426  70.8352900  12.6592660   8.3393276
  69.6804571  13.6203349   8.1557667  20.5007458  66.6171408  21.1316180
  21.1381269  66.5909910  21.8452668  19.8040581  67.1891642  21.4535594
  79.7959232  29.8740792  47.4326801  80.2371502  29.2206240  47.9754066
  79.8765373  29.5379901  46.5400553  75.4087734   3.7273684  57.2939968
  74.5862579   3.4501120  57.6975107  75.1822662   4.5212996  56.8096399
  54.3848753   6.3717043  24.8917961  55.2797270   6.1192238  24.6643662
  54.0438843   6.7854512  24.0988469  80.7250214  19.8933458  53.8173056
  81.5592194  20.2936506  53.5721350  80.4240799  20.4068828  54.5669317
  39.2788577  65.0870228  17.8590131  38.9882112  65.6672001  17.1553421
  39.5972681  65.6784678  18.5409498  13.2248425  32.6628995  66.8148708
  13.4205639  33.1477213  66.0130787  13.4002972  33.2857227  67.5202370
   5.6310976  14.2542791  29.5593095   5.3755200  13.4184384  29.9495435
   5.9499121  14.0236890  28.6867166  34.1107774  15.3826475  67.4112225
  33.7302423  14.7429061  66.8094254  33.9399004  16.2297940  66.9996691
  74.7974491  40.9236479  62.5385857  74.8050070  41.7630863  62.0786810
  75.6832218  40.5795479  62.4235678  20.6398010  43.4683847   1.3818267
  20.7012939  43.6170912   2.3254028  19.6999812  43.4133911   1.2087724
  59.0259981  73.0375242  32.4267220  58.6683559  73.6103821  33.1050730
  59.7343588  72.5636005  32.8624415  47.6415920  72.3537064  50.3090286
  47.0661783  72.5597239  49.5723581  47.6330328  73.1446171  50.8481169
   4.8787552  38.1950188  18.7077677   4.9104297  39.1470432  18.8019896
   4.2741293  38.0462718  17.9807651  31.9230723  22.7131867   3.3264697
  32.1607304  22.1653461   2.5783905  30.9852815  22.8718805   3.2187921
  83.9120579  25.7157421   3.2381731  83.1240845  25.3512526   3.6412573
  84.2902374  26.2763429   3.9156231  34.8315501  74.3774319  46.7115879
  34.6061850  75.2839565  46.9205093  35.2244616  74.4230890  45.8399439
  71.4912796  59.1641474  47.8436899  70.8021307  58.9953661  47.2011757
  72.2944832  59.2153645  47.3255491  65.9575129  17.3951530  21.4399314
  65.1987839  17.2116220  20.8859634  65.8851147  16.7690766  22.1603608
  54.4682264   4.7299457  45.4091501  54.2043018   5.3073776  46.1254930
  55.3371525   5.0425828  45.1572371  12.3556221  20.3450155  31.8431783
  11.6306770  19.8775733  31.4282274  12.2493052  20.1702738  32.7782679
  10.3017533  75.5367613  24.7793388  10.3625417  76.2942791  24.1973591
  11.1696410  75.1348686  24.7408104  63.0844402  51.0458946  48.8216305
  63.9976358  50.7590437  48.8171005  62.7591848  50.7960176  49.6864986
  10.1534235   5.9832835  24.9318719  11.1048520   5.9525144  24.8315191
   9.8270375   5.3180039  24.3259764  39.5702767  10.8534670  68.0646706
  40.3094101  10.5728912  68.6042929  39.5976114  10.2757251  67.3019791
  29.5865130  68.5290575  30.9879780  29.9094486  69.0774155  30.2729607
  28.8200426  68.9960814  31.3206077  37.0135808  30.7358050  25.5112314
  37.3949885  30.3315830  26.2905669  36.3254189  30.1287317  25.2389693
  21.1324930  45.2165222  36.4469814  21.1675119  45.9216690  35.8006310
  21.8663454  44.6458578  36.2188673  45.5893850  27.3347378  68.5758400
  45.8108759  27.6716447  69.4439840  45.4090786  28.1168270  68.0542517
  41.7544937  67.7946615  65.3127718  42.0789194  68.2229710  64.5206022
  42.2731733  68.1763268  66.0209608  53.4681702  59.8734999  17.6102531
  52.8570747  59.2028284  17.9152060  52.9687738  60.6890631  17.6513493
  76.4556694  35.3382421  30.0246739  77.0617247  36.0111904  29.7147202
  75.7569742  35.3255105  29.3705368  65.4633522  14.2533612   3.3379152
  65.8542538  13.5288548   3.8262960  65.6143093  14.0318310   2.4190202
  62.9648685  51.3443470  65.5194569  63.7692356  51.2667274  65.0064230
  63.1033945  52.1174717  66.0665512  67.6542807  45.0502253  11.0080981
  68.5096645  45.4716301  10.9246194  67.7773666  44.3917894  11.6918683
  59.5420599  10.1417649  44.7279692  58.9103317  10.6299436  44.1999245
  60.3636694  10.6214571  44.6226788  68.0477381  28.9086604  23.4925079
  67.7973270  29.5387626  24.1681552  67.6579714  28.0826926  23.7790203
  62.2550774  51.4073944   4.4642010  62.5983000  51.4662933   3.5725933
  62.7319431  50.6760502   4.8565879  66.6907787  50.0499678   6.4836562
  66.0445166  49.4286108   6.8190628  67.0726967  50.4448366   7.2675222
  19.4834340   6.0671794  51.9335127  20.2253199   6.6701186  51.8855476
  19.3825555   5.7399565  51.0396576  43.9856911  64.4847012  15.9776914
  44.8744869  64.1661882  16.1352444  43.7967587  65.0483751  16.7278981
  52.4190760  48.4864950  53.2808256  51.5154219  48.5900688  52.9826450
  52.9481125  48.8611126  52.5765467  12.0318389  41.2664747  46.4533043
  11.3717198  41.7099237  45.9205484  12.0466840  41.7581129  47.2744656
  71.7022705  15.8832705  56.1365700  71.5757322  15.6910813  57.0657015
  71.9280529  16.8131602  56.1129189  34.1987443   2.0551625  10.1628804
  33.2903004   2.3135394  10.0073087  34.1457796   1.1331530  10.4145253
  44.2946243  54.6352005   7.2708589  44.7487736  55.3653002   6.8502241
  44.9190235  53.9107037   7.2325236  79.5231485   3.2422221  30.8070850
  78.8270712   3.8269454  30.5074024  79.9599457   3.7285033  31.5063500
  20.2217197  63.4968424   8.6011910  20.9503102  62.8867006   8.4866685
  20.2006435  63.6707973   9.5422155  26.5363479  61.3859129   9.1283524
  26.5312171  61.8466806   8.2893658  27.1659708  61.8693304   9.6632510
  58.7451792   5.5896842  30.9446597  58.0680561   5.1620132  31.4689040
  59.5619869   5.1776254  31.2261963  21.3611293  38.5225773   9.0307480
  22.1846914  38.0405283   9.1056263  20.8319712  38.0004621   8.4277391
  66.3197327  38.3320689  45.0415945  66.5202951  37.3965740  45.0708914
  67.0980549  38.7553525  45.4039192   4.1099110  16.1611319  45.1296949
   3.7712699  16.5944433  45.9131432   5.0378335  16.0190082  45.3167582
  27.5048828  11.6329658   2.3874865  27.3375845  10.8804584   2.9549152
  27.1456027  12.3792720   2.8672534  70.9751987  47.7699804  53.7153101
  71.3214111  48.1966639  54.4990873  70.0419950  47.9829359  53.7190819
   2.3368268  61.3157129   8.1977135   2.5331643  61.6514301   7.3230839
   2.4849947  60.3724051   8.1310177  27.8099704  24.2717147  55.2689934
  27.9739356  24.7007465  56.1088037  27.6185060  24.9902749  54.6662998
  67.7082109  63.9360905   0.3085561  68.6150408  63.6564493   0.1833093
  67.6742077  64.2393303   1.2158167  56.0955620   6.6391116  66.5744019
  55.7901049   6.5480059  65.6718349  55.6010389   5.9805632  67.0622444
  28.2136059  72.0191240  31.7786026  29.0880919  72.0601702  31.3915348
  28.3364415  71.5389633  32.5974989  -0.0121148  60.7276106  11.9241440
   0.2194183  60.7257223  10.9953701   0.0129764  59.8053360  12.1791148
  78.0738783  50.5007172  36.7120814  77.2525549  50.8219719  36.3399792
  77.8510904  49.6467495  37.0826745  44.2890787  63.7776279  68.2364225
  43.9201593  63.1556845  67.6092720  44.7836399  63.2342529  68.8499165
  43.9266396  62.2095060  65.6881285  43.5364914  62.8813839  65.1290274
  43.3790064  61.4364481  65.5513382  17.2036076  16.9971943  55.1426697
  16.8598127  16.3096106  54.5723486  17.6721776  17.5865686  54.5516396
  77.1440458  17.2573113  51.6628790  76.7671347  16.6121972  52.2612143
  78.0514574  17.3513365  51.9526958  38.5289669  56.0003233  15.8582091
  39.4526935  55.8920002  16.0845411  38.1120014  56.2705421  16.6763508
  66.9801188   1.7093159  65.8864784  66.1226702   2.1300331  65.9498262
  66.7959213   0.8439976  65.5210638  33.8807487  56.4499569  17.4800909
  34.4555545  57.2030878  17.3436308  33.5379195  56.5677166  18.3659983
  58.0630207   3.3828452  49.1829681  58.3385849   2.6332209  49.7105694
  57.1171045   3.4368357  49.3191910  81.6768837  16.4284766  56.1135530
  82.3397064  15.7734954  55.8946800  80.8605480  15.9322882  56.1737442
  73.9460564  45.1183128  23.6780095  74.7356033  45.6365633  23.8337731
  73.5425949  45.5216217  22.9093766  78.4647369   0.6923275   9.9529791
  78.0429935   1.3030499   9.3485087  79.4020081   0.8440707   9.8316294
  78.6393833  68.4933615   6.1906892  77.7725077  68.8625336   6.3594210
  78.7104797  68.4755087   5.2363002  66.6044044  31.3435078  61.7885542
  66.7573023  30.4000235  61.7366695  67.3135233  31.7296886  61.2745094
  27.9399276  47.9870653  35.1979256  28.7766218  48.4407759  35.2995420
  27.6790762  48.1651783  34.2943406  51.0977077   2.4919641   1.6442424
  51.3416672   2.5483635   2.5681123  51.8779135   2.1455576   1.2112145
  54.3008089  23.0571866  49.5728588  54.8386431  23.7817526  49.8921919
  53.5445976  23.4809899  49.1669464  45.6239271  53.4318972  11.0434926
  46.5358877  53.3071613  10.7808042  45.6558228  53.4923601  11.9982493
   1.5620042  54.9802971  27.3654532   2.3183796  54.5153093  27.7231073
   1.8694161  55.8783197  27.2418404  50.6146193   1.2422502  29.7418094
  51.2332058   0.6998879  30.2311158  51.1164045   2.0215125  29.5026588
  49.5753860  74.0050936  41.8895102  50.4676914  74.2355204  42.1482182
  49.1205502  74.8447943  41.8241978  40.1593733  72.5993013  10.4644740
  40.4047298  72.7923489   9.5596176  39.2116666  72.7315140  10.4890740
  69.1525650  45.4865265   4.1222402  69.1052771  45.7474947   5.0419641
  68.4636116  44.8293161   4.0240252  53.8971376  20.7861352  60.3545332
  54.8134041  20.5098104  60.3361177  53.8733149  21.4938974  60.9985304
  16.5889657   4.3798006  15.8881271  15.6968343   4.6644604  15.6898773
  17.0187485   5.1621175  16.2338126  35.6764603  67.3309565  13.3995247
  35.0380468  67.7920723  12.8554392  35.2358365  66.5188408  13.6496317
   9.7029418  40.9163857  35.5369520  10.2744007  40.9445381  34.7695708
   9.0598178  41.6082430  35.3821659  74.6371794  28.8410807  59.8516846
  74.1468906  29.0838337  60.6371260  74.7776222  29.6686721  59.3916798
  77.5612450  66.9622469  13.2496727  77.5129080  67.5424719  14.0094328
  77.0714283  67.4204922  12.5667942  68.5564661  46.9470596   1.5907520
  67.6407194  47.0506191   1.8494219  68.9560127  46.4623356   2.3129970
  70.9598637   8.8082242  60.5418062  70.4051018   8.6003429  59.7899675
  71.0168934   9.7637230  60.5404615  80.2890491  50.5641079  38.4731507
  79.4960308  50.5379200  37.9377389  80.2314568  51.3943481  38.9460373
  28.7085724  62.4704218  10.7482219  28.6921096  62.5398254  11.7027605
  29.6261787  62.6092196  10.5137765   4.3392959  58.0264425   1.5146987
   4.3883523  57.5184441   0.7049081   5.1214659  57.7724552   2.0045267
  21.0680938  57.0029688   6.4302891  21.7896390  57.1906948   5.8299875
  20.2840090  57.2804260   5.9565175  80.1507187  66.7556334   9.1265917
  80.2136326  66.2667561   8.3060610  81.0546494  66.9922447   9.3343341
  31.4669371  46.9029617  12.5703597  31.6350651  47.8183937  12.7938354
  30.5978370  46.9100428  12.1693039  58.1236076  53.0622625  18.3154356
  57.4089003  53.6477995  18.0652976  58.8944626  53.4253311  17.8793240
  25.3490520  22.0320678   5.3987050  24.5402288  22.0496416   4.8871118
  25.4791880  21.1074424   5.6093335  67.3046780   4.5873806  42.7111101
  66.3534641   4.6902221  42.6820850  67.6122808   5.3440797  43.2101297
  47.4253035  48.2552385  18.2741392  47.2052288  49.0748024  17.8312957
  46.7134666  47.6589012  18.0419612  51.6640186  25.5734134  66.4283848
  51.3161802  25.0250983  65.7251120  51.7539263  24.9790621  67.1732998
  83.7795544  30.6837797   2.7616161  83.3421707  30.0130820   2.2371289
  84.5975208  30.2730823   3.0417946  22.3177671  70.6241465  49.4407940
  22.5787234  70.9286451  48.5716486  22.8507376  71.1404228  50.0454664
  40.3112173  34.9663877  66.1833525  39.9700499  35.7335019  65.7236052
  39.5364833  34.5479703  66.5587759  50.5318165  59.3264198  38.2032943
  50.7584476  58.6206055  38.8088512  51.3681555  59.5912409  37.8203630
  54.5061684   9.8668593  23.8535213  54.4612074  10.6891680  23.3656502
  55.1168537   9.3249935  23.3538461  52.5390911  25.4157162  58.2059813
  53.1826782  24.9929070  57.6374245  53.0441523  25.7047677  58.9659739
  55.5490494  14.0542364  68.0481148  54.6764660  14.3689859  67.8119707
  55.7267714  13.3504367  67.4241638  83.7412357  18.1091106  61.5965366
  84.4171047  18.5958588  61.1248302  83.9839554  17.1902812  61.4822149
  30.8173609  25.0788689   6.9589561  31.3716149  25.3323221   6.2208527
  29.9231339  25.1986408   6.6392010  45.1384115  10.5647755  41.7728186
  44.8810291  10.3925824  40.8670998  45.7800007  11.2722647  41.7091131
  70.7030201  59.0859365  15.9172392  70.4647064  59.2073298  14.9981618
  69.8676872  59.0953445  16.3845277  42.2027016   1.3985923  18.2181621
  43.0853701   1.0312854  18.2652164  41.9104099   1.4370205  19.1288328
  58.6696291  49.2501354  12.0880914  57.7229881  49.1351700  12.0050812
  58.7881041  49.6450186  12.9519570  80.7737637  30.2115941  34.5525241
  80.8278084  29.5260859  33.8866496  81.2081146  30.9663248  34.1550899
   8.1536961  72.4264908  12.4221480   8.6064571  73.2060528  12.1003890
   7.2789901  72.4815941  12.0373285   1.4349158  56.6627598   6.0843819
   2.0540187  57.2729969   6.4850742   1.3301671  55.9671211   6.7334938
  80.7942677  55.0370359   2.2113696  81.2755013  55.2955580   1.4253649
  81.4179897  55.1631689   2.9264167  22.1574354  60.5585337  18.5411334
  22.0895934  59.9046278  17.8454041  21.5145564  60.2813244  19.1938925
  53.1634140   0.6663358  66.4867544  52.9518700   0.8656596  65.5747509
  54.1046095   0.4921012  66.4817429   5.1130360  33.2927012  63.9852428
   5.0975490  32.3412490  63.8816404   4.3819174  33.6036873  63.4514046
  65.9295368  75.5263233   2.6567149  66.0540056  75.7457161   1.7333472
  65.2224493  76.1026955   2.9466361  51.2942314  17.3167503  64.2086411
  51.2451220  17.6546848  63.3144283  52.0914745  16.7871439  64.2210960
  44.0447998  48.2854843  20.6182933  43.6304188  48.7137127  19.8692012
  44.5822954  48.9693117  21.0179329  65.9600878  16.2130260  66.8181992
  65.7136440  16.7243230  66.0474396  65.1262474  15.9541273  67.2105169
  41.8328428  77.9183340  51.8199682  41.1242199  77.9672241  52.4616003
  41.3962793  77.6969767  50.9973812  20.1940322  65.3106213  43.8473320
  20.0436068  66.1075068  43.3388281  19.7677147  65.4787016  44.6877098
   2.2113058  62.9402065  18.7789214   2.4482554  63.1052113  19.6915329
   2.7868924  63.5149574  18.2743454   3.3188200  59.3651104  18.4630251
   2.9700604  59.1222668  19.3207109   2.5700256  59.7362185  17.9963183
  72.3154020  19.6209419  48.1213903  71.8912220  19.0280020  47.5011301
  71.6494751  20.2804089  48.3160019  26.5243769  77.5120544  30.7751846
  26.8000722  77.9019403  29.9456000  26.1474872  76.6672468  30.5292463
  70.8470774   8.1592816  44.9888802  71.6378498   8.6037970  44.6833992
  70.8251047   8.3297288  45.9305286  83.1233025  48.0467749   7.7290690
  82.7592754  47.3488951   8.2737529  82.6362896  48.8297749   7.9859096
  15.3790116  63.2116985  55.8902645  15.4728937  63.5061359  54.9843264
  15.7374203  62.3241329  55.8920002  74.6395445  66.7506933  63.6423588
  74.1908932  67.0748997  62.8614378  75.5700874  66.8104649  63.4261417
  33.6490631   4.9479106  34.3356085  33.3969545   5.1723939  33.4399080
  32.8437138   5.0476646  34.8432446  30.4992414  70.6136847  61.7702007
  30.1447773  70.3719521  62.6258564  31.3986373  70.8862972  61.9518661
  66.1361504  68.8747263   2.2720669  66.7686844  68.8448191   2.9898652
  66.5184116  68.3192635   1.5926746  57.9580688  46.1286068  49.7104406
  57.0875835  45.7870054  49.9148703  58.4876394  45.9089804  50.4769564
  62.4416828  63.6239481  16.9083405  62.9323769  64.0627623  16.2134326
  61.8561029  64.2991114  17.2511053  46.4237356  67.4589920  57.3990917
  45.5459929  67.3714447  57.0274258  46.9583416  66.8426228  56.8985701
  30.2047300  24.0882206  50.8587313  31.0163999  23.6237788  51.0629797
  29.6033788  23.4028196  50.5674601  68.8515949   0.9081152  41.4927340
  69.5422077   0.6660381  40.8757401  68.9967394   0.3403137  42.2495461
  62.4221325  54.8092699  51.5710497  61.6221619  54.7640324  52.0947266
  63.1307220  54.7138739  52.2074652  64.3766022  71.5288448   4.2434916
  63.5203218  71.9426680   4.3519396  64.2134285  70.7912397   3.6556625
  57.5169563  74.6132708  57.7153063  57.1897507  74.4331169  56.8339968
  57.0341349  75.3907347  57.9957771  71.1562061  45.6316280  31.6068196
  71.4196777  46.0867691  32.4066067  71.4915276  44.7417688  31.7161059
  25.1900482  20.3010368  35.7867646  25.4154587  21.0512614  36.3368416
  24.6246409  20.6648707  35.1054621   1.8744339  19.3743455   3.5650328
   2.1477167  20.2411747   3.2647720   2.2931117  18.7666857   2.9553682
  14.2512786  46.3602734   7.5251275  13.9383495  45.6557274   8.0925119
  13.9457047  46.1175251   6.6510969  48.1656790   5.4092395  42.5853729
  48.1814337   4.4526780  42.5541687  47.2441149   5.6292921  42.7214766
  71.0198689  42.1879959  55.1660061  70.3704357  41.5252161  55.4009247
  71.7699766  41.9986916  55.7296848  36.8218088  67.4925518  20.6936884
  36.1834288  67.0566177  20.1291823  37.6697350  67.2856522  20.3006983
  64.8928642   1.8224598  63.0246735  65.2715826   2.7013719  63.0068684
  63.9510775   1.9655238  62.9308271  62.2235346  26.7578197  60.4026318
  61.2953329  26.6721606  60.1850653  62.6665258  26.7878199  59.5546389
   5.3876168  61.1724520  19.4868922   4.8357892  61.8333149  19.9051929
   4.7736388  60.6166553  19.0069401  31.7440009  35.3605199  67.9076433
  31.3660526  34.7504878  68.5410881  31.9492841  34.8182964  67.1460104
   8.2476354  20.8953762  32.2029614   8.1837535  20.8498573  31.2489796
   7.6725572  21.6205454  32.4471903  35.0696135  74.0718126  49.4596672
  35.2965188  74.1043472  48.5303164  34.2301726  74.5281458  49.5173788
  24.3271947  44.0187788  51.5002060  25.2224398  43.9919949  51.8379211
  23.8016796  43.5987425  52.1811152  56.1719847  60.4185867  51.6839218
  56.5735102  61.1020613  51.1473751  56.3431549  60.6904411  52.5856018
  65.8901024  29.7167468  55.0923681  66.3072062  29.1462231  54.4468021
  66.4993715  29.7287726  55.8305264  15.6613278  55.4368830  23.7401986
  15.5518365  55.1009750  22.8505850  14.9355829  55.0529003  24.2322159
   9.8898458  57.6984453  18.0955827   9.9042296  56.8544388  17.6442766
  10.5582941  57.6176691  18.7759376   8.2169789  71.5285778  14.8793709
   8.1246495  70.5761290  14.9028039   8.2305890  71.7450285  13.9470649
  77.3792315   2.2027647  55.9748602  76.7814159   2.7225941  56.5120983
  77.2362661   1.3008282  56.2617445  15.7955146  57.4120331  20.3604269
  16.6973436  57.1308041  20.2060080  15.7754815  57.6547050  21.2861371
  78.6582470  38.3211875  47.0808220  79.4165564  37.8521991  46.7326117
  78.8355827  38.4008789  48.0180693  70.2757406   1.6829100  14.2782044
  71.0533714   1.4901569  14.8020017  69.5467806   1.6033113  14.8934400
  69.9626446  51.5141153  67.4490786  70.3541422  50.6421900  67.5010777
  69.5665121  51.6505146  68.3097219  77.3116875  27.6692820  48.4399605
  76.9464684  26.8391895  48.7462139  78.2062292  27.4543929  48.1756735
  57.1734524  23.4291959  63.2759476  58.0490494  23.0467439  63.2185936
  57.1190262  24.0170360  62.5224781  82.7121258   7.9049963  34.3108344
  83.6490059   7.8115785  34.4833326  82.4345779   7.0366687  34.0189290
  78.7193298  53.5959387  27.8693008  79.6106863  53.7449360  28.1847692
  78.2212830  54.3452835  28.1958795  27.6030302  56.6140366  15.5835223
  27.9631257  57.0367336  14.8038518  27.2121811  57.3295784  16.0849869
  16.2120247  35.3735566  48.4288216  15.6836593  35.7734728  49.1195679
  16.7708707  34.7462773  48.8875628  81.4414120  36.1363792  63.1890059
  80.5086613  35.9864330  63.3430243  81.4701080  36.6735482  62.3972607
  56.7523432  10.9710217  62.2271204  56.1832952  10.3702092  62.7082062
  56.5951920  10.7638228  61.3059235  77.2438955  45.4047060  62.3467922
  78.0826521  45.8638668  62.3902702  76.7551279  45.8629704  61.6631794
  74.1177607  21.8507051  63.8385439  74.8464775  21.3056207  64.1353273
  74.3880129  22.7453208  64.0455675  11.4102626  65.5596542  27.2717261
  11.5770948  64.7000170  26.8851709  10.4777670  65.5483484  27.4874973
  39.2445683  36.0200572   7.5369662  40.0471067  36.4398742   7.2272629
  39.0118647  35.4054189   6.8410486  12.3143208  76.8925858   1.7740640
  12.8839755  76.2842131   1.3033095  11.6334844  76.3375950   2.1544304
  68.9490032  43.0475140  37.1763253  68.3089828  42.3505974  37.0316958
  68.9453936  43.5489941  36.3610125   9.3630087  32.7754426  52.0995474
   9.0731847  33.5981631  51.7053843  10.1766503  32.9997468  52.5511074
  68.7700796  31.7091823  63.8008738  68.1906366  31.5342021  64.5423937
  68.4966040  32.5688505  63.4808540  77.2605324  51.5352583  25.6091094
  77.7791595  51.8922520  26.3300943  77.7550888  50.7707214  25.3139353
  23.8149905  45.2421618  15.1375747  23.8235712  46.0285568  14.5919132
  23.3307624  44.5977306  14.6213746  70.0886488   6.6801542   4.3074673
  70.4733038   6.9449979   3.4719262  70.3541183   7.3650801   4.9211714
  65.4930735  50.6950903  21.8920922  64.9728584  51.4964628  21.9504309
  66.3918829  51.0012770  21.7711353  18.5524583  21.1726165   4.6141353
  17.7766526  21.6612530   4.3391952  18.6215937  21.3418698   5.5537128
   9.9242640  19.1221905  13.0746245   9.1479379  18.8759327  13.5775232
  10.6046641  18.5190046  13.3737135  27.5471640  20.8675361  15.5253291
  27.5510097  21.6973734  16.0023856  27.9891014  21.0640740  14.6993172
  11.4777184  64.0799809  65.1502609  10.7539546  63.4720707  64.9991035
  12.2651649  63.5570955  64.9994230  20.2024150  42.2313690  61.0073423
  20.5989718  42.0524454  60.1547241  19.3362391  41.8269444  60.9582424
  24.7423768  63.8245106   8.0279988  24.4849849  64.0711832   7.1396667
  25.3319192  64.5240927   8.3095217  49.1189480  28.8226986  57.8104639
  49.4000483  27.9597545  58.1146717  49.6360111  29.4394636  58.3286142
  44.2631149  62.5458527  30.0070810  44.2323685  61.6110468  30.2106166
  44.9354506  62.6215601  29.3299818  42.7600241  31.1225939  58.5884190
  42.5599194  30.5546618  57.8443432  42.5276804  30.6013322  59.3568802
  79.6071911  41.5503502   9.7636688  79.1421366  41.4874840   8.9294004
  78.9955330  41.1913395  10.4064894  76.6966820   6.7195600  41.7463970
  75.7409048   6.7526233  41.7867851  76.8865919   5.9792483  41.1701155
  40.7894802  76.5930843  49.6573544  39.8525310  76.7000294  49.4932938
  40.8689642  75.7140732  50.0278378  47.7825594  24.9394155   7.2419411
  46.9073582  24.5582628   7.1714479  48.2082701  24.4351578   7.9352856
  53.8556194  65.6533432  11.2614977  54.6494436  65.4234695  10.7785475
  53.8739681  66.6090631  11.3114583  29.7440934  41.1209631   2.3028882
  30.0216818  41.7820454   1.6687362  29.7628164  41.5746355   3.1455418
   1.8747593  31.3888335  62.0156288   2.4539056  30.6628275  61.7838192
   1.5468895  31.1649680  62.8866148  26.5076518  63.0842066   0.5277087
  26.1249638  63.7816000   1.0600869  27.1397662  62.6595926   1.1076796
  40.4613495  18.8593745  16.5692163  39.7836351  18.6277187  15.9341764
  40.6483364  18.0410349  17.0292020  73.1083345  26.5097022  34.9657822
  73.5846949  25.8776355  35.5041099  72.7839327  27.1592188  35.5895805
  45.0191641  61.3501644   5.8950281  45.1636982  61.7921734   6.7316687
  45.8767223  61.3558912   5.4698294  60.1906443  42.9495239  53.6308479
  59.2336512  42.9479074  53.6506271  60.4404116  43.6890364  54.1848946
  59.2525625  75.7181931  62.6255989  60.0054169  75.1290083  62.5776291
  58.6341000  75.3693104  61.9837141  80.0835896  53.7553215  57.1980095
  79.7087574  54.3843937  56.5815639  79.3640661  53.5456657  57.7934647
  50.6520557  14.4235551  39.7904110  51.1388636  14.2052948  40.5851507
  50.7404995  15.3731382  39.7085500  39.8537469  40.5103922   7.1256244
  39.7647047  40.1843500   6.2300789  40.1212454  41.4236546   7.0225382
   2.8711694  21.0933042  62.9812765   2.6174399  21.5711117  63.7709332
   3.6780745  20.6395912  63.2247543  14.1784859  10.7900250  36.0690761
  14.0009403  11.2086463  36.9113731  13.4603381  11.0748589  35.5039525
  48.4606409  73.6964035  16.5223122  48.8828135  72.8705978  16.7590618
  48.5141039  73.7275076  15.5671120  35.8958602  33.7379241  10.5864918
  35.6554580  34.5870018  10.9573090  35.8186793  33.1262732  11.3187206
  53.5597229  12.7261484   6.6256911  54.1133022  13.3982432   7.0232779
  53.3391714  12.1389639   7.3487419  35.5456996  39.3641615  10.7876635
  35.5449414  40.2869511  11.0420084  36.1630797  39.3174314  10.0576699
  38.8343954   4.8252532   6.7205185  39.4159174   5.5852342   6.7427087
  38.5124159   4.7962645   5.8195627  22.9440570   0.9229990  61.3580322
  22.2058582   0.5851092  61.8651104  23.1994963   0.1943798  60.7922602
   4.5288050  59.7363520   9.8829460   5.3289568  59.2215347   9.9875891
   4.8083466  60.6425571  10.0128698  83.8363838  56.1041927   0.6961861
  84.4341183  56.0537386   1.4421058  83.9231014  55.2555799   0.2619442
  17.4276865  62.1791697  28.8065219  18.0808783  61.5453529  28.5101223
  16.7201912  61.6437721  29.1657352  18.5358822  54.5244741  54.7873354
  18.6466205  54.8683310  53.9009190  17.6759267  54.8427105  55.0619888
  23.7674236  11.2763894  55.5152702  22.8508854  11.0009360  55.5329084
  24.1122556  11.0159922  56.3693905  50.9872484   2.1029706  14.2995083
  51.7311287   2.6970387  14.1997302  50.3725529   2.3721182  13.6169112
  82.6351547   6.5100080  62.5172377  82.4008846   5.6017137  62.7078962
  81.8257904   7.0009542  62.6591206  45.8202028  54.1830635  16.3368261
  45.5350447  53.3897257  16.7901850  46.5348196  54.5229387  16.8753767
  54.4971704  29.5284963  48.9836597  54.0407610  28.7348461  48.7043095
  54.2251968  29.6537614  49.8928213  24.3893123  32.8883672  10.2069581
  23.9842892  33.6082101  10.6907094  23.6628938  32.4742460   9.7410685
  62.6972103  20.9996772  38.0709958  62.8781176  20.9318686  39.0084958
  62.2665453  21.8486476  37.9709601  55.3075027  64.2145777  43.0683565
  55.9131622  63.8015985  42.4528503  55.8460617  64.4209957  43.8322783
   3.7449488  75.4150200  67.2166777   3.9853829  76.1346436  67.8002596
   3.0288482  75.7653427  66.6868639  81.4725685  51.7098570  63.5196733
  81.9258404  51.7485714  64.3618584  81.3751125  52.6253748  63.2578230
  82.5821018  17.2281313  51.4939690  82.8897858  16.3221395  51.5212297
  82.5739861  17.5059843  52.4099159  78.4341908   8.1982082  10.7022214
  77.8727341   8.9573181  10.8595514  77.8348446   7.4518883  10.7071340
  57.4359226  43.7696457  63.0888176  57.6824379  44.6925020  63.0271578
  58.2666302  43.3065557  63.1970310   2.5012019   7.2772712  65.8888578
   2.6771802   7.1440423  64.9574518   1.5946022   7.5827837  65.9200096
  15.7130134  53.1959915   2.5069419  15.1131141  52.4972296   2.7678707
  15.1860404  53.7682343   1.9492069  53.9758873  39.0016270  57.4622011
  54.0818167  38.1976509  56.9536400  54.0605164  38.7214470  58.3735561
  76.5857172  18.5084629  17.4316359  76.6563272  17.7944112  16.7980933
  75.7662725  18.3368266  17.8956246   7.5612295  30.7480383  21.2718725
   8.4729970  30.6216574  21.5344381   7.6037663  30.9115410  20.3296995
  72.5335598  34.0991950   4.5829514  72.0131540  34.7917461   4.1757897
  71.9941092  33.3130264   4.4982988  22.7889323  20.0258040   9.0891927
  22.7897978  20.0083065  10.0462329  22.6413083  19.1153812   8.8331282
   3.1685659  36.4865208  47.0966196   3.6026159  35.9137225  47.7288675
   3.2894197  37.3679996  47.4496365  10.6549013  68.3874178  21.5172601
  11.2443399  68.8516665  20.9228945  10.1265347  67.8313589  20.9446716
  53.4265184  66.8390417  65.0575304  54.2147160  67.2478724  64.6999884
  53.3051491  67.2575951  65.9097719   0.3219631  32.8760123  49.9503613
   0.2889932  32.1546865  49.3219995  -0.5939908  33.1204677  50.0826550
  55.2535295   8.4987372   3.0579701  55.5930805   8.6554462   3.9390945
  54.9401665   9.3548614   2.7662745  66.0245466  59.0966463  67.9007530
  65.5677176  58.3973551  67.4332809  65.6900358  59.9040365  67.5103045
  48.6002016  56.3184643  56.2668705  48.3571053  57.1094799  56.7479372
  49.4455385  56.0635853  56.6365719   5.5507684  12.0078158  63.5141802
   6.4746737  11.7898309  63.3912468   5.5105275  12.3960900  64.3881702
   9.4868356  42.5785255  65.9726954   9.1256845  43.2227898  65.3638220
   9.0349764  41.7633438  65.7546854  71.2448025  24.4848752  45.3599691
  71.8583345  24.5902228  46.0870934  71.7574549  24.7003794  44.5808840
  27.8258967  22.6365042  50.4312944  27.0287681  22.5085187  49.9170589
  27.7163839  23.4987330  50.8322906  43.3775187   1.6992491  32.5838161
  43.5559988   1.4090407  31.6893029  44.2403460   1.7533828  32.9947090
   5.4125994  68.0308819  17.9631019   6.0576737  68.5747910  18.4150672
   5.6728899  68.0655479  17.0426250  30.4331517  18.2899475   9.1714495
  31.0958529  18.5498023   9.8113972  30.2282381  19.0962303   8.6980033
  49.6953535  72.0704222  52.6654768  49.8330593  72.6159906  51.8911266
  49.5240688  72.6944876  53.3707714  24.5648527  59.6605253   8.8106275
  24.3035364  59.4789267   9.7133827  25.3528142  60.1977348   8.8928229
  68.5818863  51.1277962  30.8027792  69.0022755  50.4494143  31.3312721
  69.2129850  51.3155842  30.1080227  74.4896078  49.3524551  59.6598291
  74.5178413  49.2360735  58.7101507  74.9872351  50.1547480  59.8177147
  77.4193478  17.9698050   4.5197311  78.1610298  18.5336864   4.7392261
  77.2059202  17.5247180   5.3398401   8.1949157  58.4842539  51.2085629
   7.9041749  58.6439848  52.1064425   9.0726089  58.1142282  51.3032579
  36.0393286  76.3228226  20.0347900  36.0781121  75.9740782  20.9253550
  35.2193022  76.8157387  20.0060940  43.2448101  68.9856482   3.2627228
  42.9210711  68.7245131   4.1248307  44.1930532  69.0545416   3.3737490
  60.0571585  38.1030655  66.9077539  60.1277971  37.3099804  67.4390316
  59.8973036  37.7831221  66.0198832  78.5550785  66.3082933  54.1158390
  78.3575153  67.2312212  53.9564371  78.7686062  65.9563446  53.2516813
  67.2151279  29.6422100  30.8140635  67.5893736  29.2768836  31.6157532
  67.8734779  30.2641177  30.5041599  67.1082211   2.7328628  10.3400576
  66.6027689   3.5385534  10.2322853  66.9475508   2.2398883   9.5354497
  78.7830210  46.8983650  58.8484097  78.3224773  46.8100357  58.0139446
  78.8797188  46.0001755  59.1648531  63.6987400   2.9494938  32.3290825
  64.1494989   2.2357094  31.8779087  64.0265083   2.9097724  33.2275391
   5.6083173  20.0741982  64.9917269   6.1232525  20.0466847  64.1853094
   5.9055459  20.8666849  65.4387760  60.1714087  18.8570094  21.4681578
  59.9480009  18.4728217  22.3159313  59.3629551  18.8000178  20.9588575
  69.3057585  23.1611037  56.0106468  68.5344315  23.5999990  55.6519508
  68.9503431  22.4951291  56.5991926  40.1744366   9.1177219   4.5300376
  39.5440292   8.4789073   4.8628074  39.6349859   9.8286676   4.1839418
  71.4454126  59.9057817  57.1070147  71.0418367  60.7389212  56.8636227
  72.3799229  60.0362825  56.9461250  55.7099771  38.5402417  16.4862072
  56.6496086  38.5042858  16.3072288  55.5269575  37.7338219  16.9683123
  76.7699289  51.1280298  59.9738598  76.9130516  51.8747044  59.3922901
  77.5674534  50.6049490  59.8927593  11.7798388  40.6087971  57.5256252
  12.0895755  41.0073423  58.3389282  11.2768042  41.3007545  57.0962286
  54.3499565   8.0641365  42.2709608  55.2096748   7.7588999  41.9812107
  53.9075470   7.2742200  42.5816631  40.2655458   0.4635485   4.4454646
  39.8893261   0.3690368   3.5703889  39.8614883  -0.2374636   4.9568838
  80.0384712  42.3501062  52.3427200  79.7754955  41.6941786  51.6970921
  80.5034828  43.0141544  51.8337679  83.0921555  17.8484797  54.2052841
  83.7788582  18.2241738  54.7562218  82.3590755  17.7016699  54.8030043
  11.4151287  56.2719393  15.2495027  11.7404342  56.2435102  14.3497252
  10.9058309  57.0811462  15.2945983  41.4001417  11.4359331   9.8663658
  42.2771883  11.7773414  10.0408947  41.3696671  10.6025255  10.3361917
   4.1385406  41.9347000  61.2123013   3.5435984  42.4635601  61.7438889
   3.5784933  41.5473557  60.5395889  42.0541763  66.6104555  47.6065254
  42.0623493  67.4390602  48.0856705  42.6607370  66.0487700  48.0890512
  82.8865242  26.6586757  43.4627151  82.7446651  27.5540233  43.7700653
  82.0055008  26.3056111  43.3386850  10.4972363  71.8042755  24.7309208
  10.0323963  71.4538622  25.4907656   9.8267019  72.2753334  24.2362309
  49.3592262   0.8034129  16.1311734  49.8990631   0.8263567  16.9212890
  49.9314499   1.1374196  15.4403520  71.7256832  15.2552581  -0.3341816
  72.4535418  15.0290847   0.2448683  70.9584761  15.2651167   0.2381165
  81.7718792  20.6211376  63.2010269  81.9910908  19.8864055  63.7740421
  81.7813015  21.3853931  63.7772751  30.8287215  15.1313579  18.4684563
  31.2094903  15.9761393  18.2284737  30.4986453  15.2613032  19.3574977
  11.3715184  38.5002375  65.1544809  11.8026543  38.9466405  65.8832312
  10.8743560  39.1884637  64.7124338  11.4839017  14.9777567  59.4118977
  12.1869063  15.6260896  59.3709087  10.8017981  15.3969347  59.9365473
  70.4393625  35.5892467  59.4672346  70.2961874  35.1122665  60.2846813
  70.7861233  34.9319363  58.8639688  38.1019211  34.0862536   5.7856542
  37.9953742  33.1614757   6.0085046  37.2260380  34.4591665   5.8856249
  27.0882106  76.8538904  53.5856676  27.9275703  76.4460611  53.3726358
  26.4647841  76.4473867  52.9837322   8.6776096  36.8388629  62.9209328
   8.9404595  37.5112033  62.2923613   8.9379483  36.0135961  62.5117970
   8.5908329  15.4451370  57.8967047   8.6352587  14.7964656  58.5991859
   8.0537361  16.1511672  58.2562590  55.7379389  11.1363435  26.5271425
  55.1078367  11.5893579  27.0874834  55.6368732  10.2114558  26.7520857
  81.3529968  69.0830421  23.0522776  81.9573116  68.4916687  22.6036000
  81.8662167  69.8754740  23.2100463  57.0442772  16.5953529  42.2817612
  56.2959909  16.4671242  42.8647280  57.4474382  17.4088573  42.5849199
  60.2875566   7.7372313  21.9998646  60.7706976   7.0364285  21.5620470
  59.6552896   8.0366290  21.3465428   5.4897332  60.4805851  57.0399714
   5.2947992  61.0239887  57.8034782   4.6766844  60.4767752  56.5348291
  46.9302702  76.9998264  57.2724438  46.3100719  76.4834452  56.7577267
  46.4004564  77.6997662  57.6540375   9.2296267  42.8085518  49.6288872
   8.9703417  43.7194204  49.4898796  10.1498592  42.7788591  49.3671227
  66.1475849  14.5822036  49.1636419  66.9679165  14.8921990  49.5472908
  65.4652596  14.9707460  49.7110891  79.9389696  40.2524233  67.1624231
  79.8391533  39.5567298  67.8122520  79.0603447  40.6204796  67.0686913
  10.1420498  47.8880024  57.3059559   9.4288385  47.3070574  57.0412588
  10.0121236  48.6798859  56.7841625  15.4244840  27.4264312  65.7909584
  15.5657721  27.0552492  64.9200439  14.6985471  26.9183159  66.1529875
  29.2265749  78.4636545   1.3143408  29.1327786  77.5113010   1.2929593
  28.6526775  78.7766075   0.6151041  75.2617407  71.0546112  35.1841021
  76.1793041  70.7879496  35.1276064  74.7748423  70.3167391  34.8170805
   7.1920818  52.0882225   2.4266997   8.1296450  52.2811079   2.4250931
   7.1168858  51.2692165   2.9163963  38.5572410  77.4481916   2.4042536
  38.3740997  77.8786373   1.5691438  38.7795091  76.5481234   2.1661118
  46.3074303  23.3552837  10.4120672  46.2484455  24.1694236  10.9119940
  45.4566145  23.2770300   9.9805319  80.8482742   7.7898484   8.3194298
  79.9513102   7.7834833   7.9852849  80.8521843   8.4807754   8.9818770
  18.0139196  29.2762685  13.8747656  18.9476860  29.0887332  13.9703822
  17.9827857  30.1708531  13.5356760  75.4579401  72.0481110  61.8469810
  76.0467815  71.6049719  61.2361431  74.9028444  72.5946188  61.2907219
  17.3493814  28.7480450  66.9762182  18.0583954  28.2356429  66.5876627
  16.5602648  28.4431815  66.5283489  18.2206666  56.2684536   2.2102608
  17.3256779  56.5739918   2.0623696  18.2520962  55.4078817   1.7923383
  81.4656448  52.4565697   6.5834910  81.5251255  53.0118561   7.3608887
  80.8743858  52.9282951   5.9968722  64.4038486  10.8894932  62.7654409
  63.9764833  10.5304658  63.5430574  63.9018822  11.6778684  62.5587368
  51.4169216  59.1882467  64.4831371  51.1815310  60.1113987  64.5759153
  52.2352505  59.1984558  63.9866781  64.0877819  62.7921534  68.7223482
  64.8615360  63.2006311  68.3341646  63.3490467  63.2065105  68.2764721
  44.5647860  68.1260061  68.6021376  44.3637371  67.3709536  68.0492401
  45.2917862  68.5617542  68.1573629  78.5561132  25.2535081  39.1216516
  78.9979601  25.3719974  39.9624634  79.2426443  25.3906465  38.4688878
  75.4869461  19.0232623  26.9158506  76.1756611  19.5074463  26.4603710
  75.6899786  18.1030309  26.7479730   7.6753372  13.6424971  27.6129150
   7.2436392  13.1291187  26.9300437   8.3818495  13.0779064  27.9264593
  84.1019726  46.9492102  60.0984621  84.2249966  46.0002756  60.1234961
  83.1682587  47.0742321  60.2681065  83.0705166  13.6298692  59.5733833
  83.9603138  13.5229373  59.2371416  82.6300716  12.8097761  59.3504715
  79.6261406  24.1831064  60.8196831  79.2123508  23.4170246  60.4220295
  80.4590130  24.2729020  60.3565550  18.3189321  21.7857265  65.7586718
  19.1413224  21.9505572  65.2974415  18.3294296  22.3989320  66.4935875
  81.5482712  42.5369120  11.6633081  81.1490440  41.9653130  12.3191535
  81.0393810  42.3806477  10.8677912  77.5966644  35.4145694  37.3190475
  78.5037804  35.7192779  37.2960949  77.2062683  35.7640409  36.5179920
  29.2553306  64.2817736  65.8600807  28.5208535  64.7897482  65.5154991
  28.9310336  63.9214230  66.6854334  32.7756262  68.0873108  33.0911374
  32.6025295  68.6404514  33.8529158  33.0945277  68.6934900  32.4224925
   0.6571695  26.5799451  36.5119219   0.4608204  25.9322691  35.8350205
   1.6105616  26.6633844  36.4942241  62.0510626  32.1526957  45.2582502
  61.5124559  31.8473792  44.5282412  62.7469444  32.6638484  44.8450947
  62.5547504  28.8475943  50.9161472  61.9548321  28.1196237  50.7537127
  62.0199394  29.6313834  50.7901382  40.7943344  45.6705046  18.5281754
  40.5533075  46.4288855  19.0601420  40.4830980  45.8859730  17.6490080
  77.7464199   9.6905088  43.8736629  77.6481104   9.4789380  44.8019934
  78.1272984   8.9019036  43.4873104  58.9514923   3.1684119  28.8324738
  59.5360422   3.6029720  29.4535184  58.2974958   3.8324177  28.6142612
  62.3227501  50.4957485  51.1273336  62.6277304  49.6306419  51.4008379
  62.1368551  50.9542799  51.9467354  61.8440294  65.4691124  30.6994224
  61.6695023  65.2377129  29.7871590  62.1256924  66.3832855  30.6649661
  26.4141703  72.9001045  52.4171019  26.9502640  72.9008341  51.6241121
  26.9912148  72.5503063  53.0959940  61.0941887  63.9893675  33.3428121
  60.9888124  64.8591661  33.7282634  61.2074518  64.1543198  32.4067593
   7.8035057  11.1705077  50.5552769   7.7555960  11.9367790  51.1269140
   7.9512930  11.5323734  49.6815252  34.3072224  71.9238997  35.4468346
  34.8118448  71.1127853  35.3861403  34.8256397  72.5654221  34.9611163
  46.6782808   1.3075066  50.7024145  45.8146811   0.9220928  50.8503675
  46.5328598   1.9682562  50.0252914  25.3450918  62.7006054  53.0986309
  24.9745440  61.8800640  53.4236526  26.2378931  62.7134514  53.4435463
  23.3412695  60.9250259  15.1744986  22.7342057  61.4905024  14.6970606
  24.0748549  60.7990026  14.5726669  81.4436054  26.5575266  67.0942736
  80.5340767  26.3752866  67.3304415  81.9585228  26.1422563  67.7861166
  59.9344587  22.1739936  59.1832447  59.6540546  21.7001843  59.9662590
  59.9514389  21.5095234  58.4944582  15.5473101  20.5489039  14.2511451
  14.7459972  20.5898714  14.7731149  15.6383967  21.4276791  13.8827872
  54.8381662  68.1519938  28.4607124  55.5799150  67.9873562  27.8785300
  54.7895336  67.3718357  29.0131760  20.0222969  34.5364523  50.1766157
  20.4861379  34.6351910  51.0080814  19.6068192  33.6760926  50.2348328
  40.3265476  45.3237724  68.2150316  40.6479836  44.4221544  68.2150793
  39.3977928  45.2469254  67.9965401   9.9612820  12.8235483  64.9437857
  10.5211556  12.4360621  64.2710114   9.5085001  13.5382593  64.4961166
  74.6658421  10.8530200  49.6548367  73.7175322  10.9770560  49.6153688
  74.8038244   9.9595487  49.3403530  74.9228287  13.8963664  49.5081854
  75.3504753  13.0442941  49.5937538  74.2320871  13.7537658  48.8610554
  24.7904253   3.0638337  39.7443485  25.6786227   3.3371478  39.9737763
  24.4941163   2.5546503  40.4987764  78.2934475   9.7603303  25.5422425
  78.3326817   8.8200778  25.3672647  79.1906309   9.9980378  25.7763100
  66.8038464  33.0333567  54.4717503  66.8055439  32.8817248  55.4168653
  67.7012205  33.2984638  54.2700958  12.2153389  17.5077307  13.6567175
  12.9000890  17.9704130  13.1737316  12.5081861  16.5965867  13.6737311
  13.5812736  13.8864803  53.6069155  12.8487611  14.4785738  53.4363794
  13.2480371  13.0199206  53.3739805  74.0598726   2.5044191  43.3798552
  74.8924923   2.9309982  43.5823631  74.2022610   1.5840690  43.6010170
  52.1780968   4.7052330  19.2139435  52.0661783   4.6280080  20.1614356
  53.1261063   4.6888933  19.0826285  33.2471061  60.9447002  39.0667868
  32.9769754  60.1263523  38.6501718  32.4870634  61.2128448  39.5831823
   0.1027717  67.8044796  51.8091393  -0.3102903  68.3732891  52.4588013
   0.6014754  67.1723557  52.3267746  17.2565877  53.6646509  14.0746152
  16.4209557  53.2864237  14.3482876  17.0332980  54.2279768  13.3336473
   6.9997042  28.0499196  33.6282563   7.3443371  27.2931480  34.1023397
   6.2464160  27.7081084  33.1466413   1.8888377   6.0964638  41.3204813
   1.8708245   6.7623729  40.6331158   2.2296539   6.5544713  42.0887947
   3.8436654  57.4473238  62.5551319   3.2122090  56.8229675  62.9124451
   4.6746451  57.2094345  62.9663658  80.7335854  64.4121218  59.0554857
  80.0384998  64.8952627  59.5023251  81.2104321  65.0797081  58.5623550
  54.8446417   5.5212563   3.3489889  55.5092049   6.1452639   3.0571008
  54.3417931   5.3201902   2.5597161  16.1768138  65.9497595  35.4316592
  15.3774309  66.3804722  35.1288342  16.5267873  65.5187845  34.6519089
  60.7400465   7.3404032   4.2786664  60.7517147   8.1722510   3.8052481
  61.1295700   7.5433552   5.1291454  68.2862997   8.1595403  17.7960706
  68.8563967   8.9217305  17.6946223  67.4092770   8.5286009  17.9002512
   1.5089780  52.1051311  57.5148487   0.9299596  52.5324440  56.8836832
   2.3355386  51.9945574  57.0449543  70.3423166  28.6781812  59.5434380
  70.4633284  29.6064496  59.7431946  70.2405405  28.2604408  60.3986406
  15.0137377  16.8667042  15.6834018  14.3479216  17.5270295  15.8754754
  15.2275705  16.4871967  16.5357411  42.3909473  52.7310038   4.5254514
  42.9425430  52.3670769   3.8329712  42.4562550  52.0985174   5.2409416
  18.6892760  19.3517351  18.7088799  17.7544475  19.3503392  18.9146137
  19.0851712  19.8864448  19.3970549  45.5962086  44.1566610  12.7385199
  46.0761499  43.3763504  12.4610317  46.2699795  44.8290586  12.8392434
  70.0464249  46.7134762  29.4814777  69.1197872  46.6032743  29.6946311
  70.5100298  46.3882017  30.2531624   7.5126696  25.2258134  10.1101363
   6.6869229  25.5392432  10.4791021   7.7247494  25.8596754   9.4249564
   2.3324104   2.4824634   8.6336607   1.3959095   2.5823921   8.4627450
   2.4890649   1.5405972   8.5659903  58.3169532  79.3481877  15.9462512
  57.6108989  78.7161793  16.0814714  58.4688823  79.7265004  16.8122935
  35.6527305  66.0905170  28.7826562  35.7660937  65.5862665  29.5883298
  35.3228331  65.4554081  28.1470180  40.7273674  75.7294703  17.2500646
  40.0101328  75.8940029  17.8622210  41.1625481  76.5770006  17.1576369
  31.3815427  54.6462774  67.8971338  30.5306125  55.0552082  68.0550051
  31.7964339  55.2032709  67.2384548   9.7343934  31.8108702  23.3647156
   9.2110455  31.6705227  24.1537905   9.4272512  32.6491833  23.0195665
   4.6744069  11.3811100  30.3060150   5.4131413  10.7726288  30.3219676
   4.3317688  11.3185251  29.4144344  12.6455581  40.1008081  62.5613880
  13.0387044  39.2656803  62.8148222  11.8816376  40.1886892  63.1314135
  75.0685692  12.0632243  27.3621821  75.8001375  12.6652992  27.4983716
  74.6734810  11.9665027  28.2286620  12.4734616  70.2114534  60.0813007
  13.1790137  69.8239851  59.5633268  12.3751509  69.6232414  60.8300161
  75.9593201  69.3176126   6.6528183  75.7662201  70.1397943   6.2023067
  75.4596186  69.3679047   7.4676818  75.5013943  25.3884673  25.8522892
  75.6144667  25.0271726  24.9731350  76.1201239  24.8985767  26.3939643
  74.3504333  77.7903605   6.3248324  75.1894999  77.3428631   6.4341182
  74.0528727  77.5317335   5.4525924  34.6182919  18.7986326  27.7037001
  35.2555394  18.5667920  28.3792734  35.0319386  19.5131660  27.2193742
  11.0523343  17.4369395  10.8617127  11.5881109  16.6598427  10.7026672
  11.6654181  18.0828226  11.2127030  19.3675995  44.8862219  64.9328423
  20.0526118  44.6620750  65.5627251  18.7791765  44.1312790  64.9401522
  79.8356819  20.8735585  37.8589463  79.9601269  21.2680364  36.9957352
  79.1045856  20.2669024  37.7419043  32.7081728  23.1102061  51.1770153
  32.9782987  22.5380659  51.8952894  33.4956336  23.2114530  50.6423330
  77.4920130   2.3205341  34.0475631  77.6063919   3.0195773  34.6913695
  76.9669104   2.7181554  33.3530164  52.8598547  62.2953320  41.7581177
  52.2336435  61.8372059  41.1975670  52.6577425  63.2227993  41.6349030
  23.6146116  28.8114929   0.2185280  24.2026877  28.6895776   0.9638705
  22.8487349  28.2768106   0.4277563  49.5746565  76.7099142  49.8171043
  50.3534651  77.2508860  49.9476385  48.8939667  77.1414757  50.3334808
   0.9972622  62.6784754  42.0676947   1.3796820  62.7918863  42.9378223
   1.5053344  61.9695568  41.6733170  30.8953881  46.3410950  68.3033276
  30.7971716  47.2263718  67.9527998  30.2720261  46.3001251  69.0285683
  64.8316622  57.9828596  36.3421750  65.5240631  58.5643387  36.6563296
  64.8160839  58.1189632  35.3948283  49.9691391  66.7815065  13.0003679
  49.1242886  67.1715641  13.2246709  50.0715780  66.0592413  13.6201024
  14.1293323  29.9018312  15.7961130  13.6925542  30.5171132  15.2071428
  14.4030952  29.1808367  15.2291453  54.3801022  53.9560318  12.5361753
  53.6387825  54.5287514  12.3395336  54.5409918  53.4835482  11.7194104
  48.0770731   1.5459868  53.1772041  47.7654505   1.5376085  52.2721863
  47.5026751   2.1688625  53.6225414  69.4999743  13.2189548  36.2281585
  69.4524622  13.3953345  35.2885485  69.3178558  12.2824335  36.3055634
  58.1400871  78.4749651   9.1529059  57.7745056  77.6315117   9.4196653
  57.7550983  79.1059828   9.7610456  52.3772144  46.7687416  50.6298590
  51.8446589  47.5062609  50.9276628  52.7552938  47.0651913  49.8019695
  11.9510317   5.5246890   9.4744676  12.1819735   6.4335179   9.6666342
  11.3179970   5.5845737   8.7589866  53.6293411  49.8970890  47.6237345
  53.9121246  49.5340157  48.4630489  53.9590263  50.7957077  47.6282310
   2.7328643  14.3335855   8.1011987   2.2009557  13.5444558   8.2040507
   2.4073233  14.9312639   8.7742776  39.7237802  69.4301224  67.0782757
  39.8844790  69.4253540  68.0218744  40.5559683  69.1569042  66.6922045
  58.4227467  68.7283182  35.0939512  57.6665163  69.1234064  35.5278301
  58.2463217  68.8366508  34.1594076  17.2079182  18.0949199  32.6540732
  17.1453512  17.3677993  33.2734394  16.3170242  18.2033658  32.3212385
  76.0193920  14.9169624   6.2130827  75.2216434  15.0537407   6.7240775
  76.6424322  15.5514824   6.5672553  53.2278538  19.8499060   6.0963106
  53.2309580  20.7193327   6.4967072  54.0312958  19.8226309   5.5767238
  14.8120916  71.8636179  18.4325171  14.2087901  72.5343895  18.7524068
  15.0816727  71.3892365  19.2189753  50.5072451  31.9313979  48.2356930
  50.7132053  31.6444421  49.1253376  50.6577444  31.1571193  47.6934052
  41.3557863  55.5492163  42.7438545  42.2567081  55.2840424  42.9289198
  41.1223364  55.0670338  41.9506121  31.7396307  29.1830087  60.1162004
  31.0499978  29.6090603  60.6252384  32.5279427  29.6905828  60.3089857
  19.9518466  40.4476166  12.3609889  18.9957225  40.4248381  12.3217654
  20.1472044  40.9458208  13.1546259   8.8569021   3.4402966  33.4803081
   8.7592381   2.5470790  33.8102412   9.2145056   3.9311555  34.2201781
  71.3674259   7.6961154  24.0328336  72.2544336   8.0146813  23.8656020
  71.1415529   7.1942443  23.2496738  76.9742203  60.0790691  67.6646614
  77.1588230  59.1759729  67.9226780  76.6163158  60.0069761  66.7798233
  60.8248329   4.4353247  22.2438359  61.0510492   4.1659316  21.3536191
  61.6505718   4.7420970  22.6183701  28.8605833  21.7777872  13.3502197
  28.6831093  21.4683151  12.4619842  29.6467400  21.3014436  13.6172140
  76.3637924  77.9569149  18.3920443  75.4600573  77.7835941  18.6555934
  76.4525032  77.5251293  17.5423837  28.2979584   4.2207220  31.0191941
  28.0562282   3.8636282  31.8737602  27.5950503   4.8355094  30.8089828
  68.9945412  26.5171075  65.6031513  68.9508057  27.4652171  65.4790068
  68.2010508  26.1838388  65.1841784  70.6337118  10.7674253  41.4139223
  71.2707233  10.6110311  40.7167959  69.7858477  10.5845201  41.0090637
  71.3213205  20.6091332  19.0942252  70.8055305  20.9670138  19.8168004
  71.0032845  21.0734487  18.3199537  32.4144125  53.0448818  25.5104589
  33.0980682  53.4499216  26.0441160  31.6595960  53.6255169  25.6071377
  35.9480906  19.8347270  64.6957254  36.8782759  19.9212432  64.9042988
  35.5113792  19.8267972  65.5474615  22.0430136  26.6147923  59.5841408
  22.9906821  26.5450907  59.4688129  21.9087029  27.4945116  59.9366856
   7.5849026  13.0070221  21.6798425   8.3088791  12.4539888  21.3861704
   7.8244054  13.2619727  22.5708365   7.9473388  67.1212053  24.2347193
   8.9039612  67.1522617  24.2465568   7.6757956  67.9744196  24.5731306
  62.5896645  64.1291332  44.3456507  62.6236677  64.8970509  43.7752295
  62.7059412  64.4810104  45.2282000   9.2320305   0.8282523  68.0364847
  10.1865995   0.8388755  68.1066084   8.9292175   0.6210338  68.9205599
  58.2887268  24.4891238  58.5241079  57.5366402  24.2947197  59.0833998
  58.8889694  23.7573266  58.6669779  10.6875670  18.8241482  59.6227169
  11.3300657  18.1983972  59.2882538  11.0902691  19.1808259  60.4144526
  57.4649715  56.2907028   0.7380566  56.7197132  56.4461994   0.1578458
  57.1158314  55.7309961   1.4316434  44.7241354  69.3584251  24.1532421
  44.6236849  69.4560242  25.1001406  43.8657761  69.5868874  23.7965178
  38.3327317  21.5533590  50.3662014  38.2096624  21.9266868  49.4934416
  39.0145397  22.0945859  50.7642555  48.6162233  39.6149921   8.1015527
  47.8772497  39.3315196   7.5632310  49.1403627  38.8235712   8.2246792
  44.7970200  33.1078267  58.7996912  44.0640068  32.4956346  58.7353325
  45.1009274  33.0234265  59.7034359  35.2703190   5.8366185  63.1995964
  36.1468935   5.9383881  63.5703945  34.6790457   6.0739207  63.9139605
  83.6234856  20.5859351  26.6694570  83.8698483  19.7953558  27.1495795
  82.9607677  20.2903128  26.0452366  17.7694893  23.7272716  54.3289804
  16.8830407  24.0793967  54.2486763  17.8780389  23.5630846  55.2657223
   9.4064021  49.5383596  46.4052057   9.7439831  50.3893471  46.1257601
  10.1710618  48.9626503  46.3961554  53.7580872  74.9496222   9.7031504
  52.9529190  75.4640675   9.7604060  54.0897799  74.9232292  10.6006551
  46.3685560  23.8467932  51.1014700  46.1315727  24.7591257  51.2679720
  47.2551012  23.8911581  50.7432842  52.5794983  64.3063021  21.8020368
  52.4032497  65.1447821  22.2287965  52.1165705  63.6626148  22.3383212
  34.5232940  70.9215117  45.6901836  34.7226477  71.1167049  46.6058207
  33.6848402  70.4607439  45.7205725   3.9070824  16.4257741  48.4130144
   4.3681225  15.5870771  48.4291649   3.3501941  16.4079881  49.1913414
  32.7682638  71.1089087  37.4009562  33.1602383  71.1902332  36.5314889
  31.8248606  71.1060095  37.2390604  80.1441669  76.4170074  11.8795216
  79.5953417  75.6378746  11.9688404  80.9185982  76.1115932  11.4070725
  77.5561142   7.2703266  24.7629857  77.0199585   6.4817548  24.8462033
  77.0028591   7.8865647  24.2829943  50.0068235  65.2339840   9.2032242
  50.5986118  65.1046610   9.9443668  49.2270803  65.6355810   9.5865750
  38.2002544  57.4663782  40.7940960  39.0804839  57.7721882  41.0129881
  37.9689646  57.9500341  40.0011158  40.8330631  67.7046919  16.4198649
  40.6406498  67.6055145  15.4874635  39.9746656  67.7000761  16.8433797
  10.4584217   1.3219664  47.0925379  10.7733476   1.3527894  46.1891508
  11.1039543   0.7858366  47.5530624  32.3317313  13.7881875  16.1876285
  31.9872928  13.1317890  15.5820417  31.9800687  14.6184385  15.8663046
  40.1966000  52.4623442  11.6282237  39.2668056  52.2670984  11.5116155
  40.2603626  53.4088993  11.5009725  38.4197259  20.8712673  57.7103901
  38.6437774  21.7745662  57.4866009  38.9571142  20.6742477  58.4776115
   3.4183797  44.1348171  58.3954144   2.8557244  44.5318508  57.7305698
   3.9470327  44.8608875  58.7264442  32.2467875  78.6671162  26.6887188
  32.3489642  79.4192982  27.2718191  31.6028070  78.1104422  27.1264815
  18.3614707  18.7081218  53.0811310  19.2807162  18.6006331  52.8368664
  18.3270812  19.5605671  53.5151672  11.7066240  21.7501616  57.9990530
  12.1037805  21.1979556  58.6725235  11.8254566  21.2591934  57.1859980
  20.2367806   3.9621297  44.5144606  19.3297064   4.0286043  44.8128366
  20.2275896   3.2478717  43.8772917  80.2883053  77.8147507  51.4420462
  80.6854534  77.6000500  52.2860861  80.5873013  77.1216679  50.8534288
  12.8062582   3.3808523  13.3133769  13.5648298   2.8092417  13.1947875
  13.1102741   4.0606028  13.9148307  12.5924742  19.1883004  45.5348110
  12.0561194  19.4629371  46.2785339  12.1649075  19.5803607  44.7734213
  68.1349993  32.2876096  59.6379566  68.2349825  33.2351995  59.7290993
  68.2572126  32.1227026  58.7030220  54.9210882  58.7384224  12.1555686
  55.8774233  58.7272120  12.1945894  54.6438646  58.7287855  13.0716944
  49.7498322  58.4001684  16.6135883  49.0115213  58.0087090  16.1468041
  50.2351427  58.8750267  15.9388936  83.9615059  74.7314787  30.1748037
  84.1459942  75.3154230  30.9104705  83.2110119  75.1305199  29.7346306
   4.4284481  26.7802858  65.8035135   4.4429556  27.7145123  65.5955696
   5.2767110  26.4546895  65.5024004  61.1930513  15.1796234  52.1629429
  62.0245171  15.4616416  51.7816830  61.1986399  15.5457997  53.0473185
   4.6372730  12.1790528  41.3662672   4.4109949  12.1915329  42.2962570
   4.0068701  12.7727389  40.9583950   1.2250501  68.4139919  27.5958753
   1.0640793  67.8101635  28.3209348   0.6030406  68.1468725  26.9191313
  78.4779596  39.4119120  61.7989349  77.5985432  39.0779233  61.6220045
  78.4460354  39.6989489  62.7115297  61.2455416  69.7705460  23.7340164
  62.1348095  70.1246214  23.7418532  61.3605022  68.8311481  23.8773799
  68.8593197   3.4765175  33.4625220  67.9995632   3.7012568  33.1068015
  69.1531467   4.2748949  33.9012623  13.3023965  12.2004688  40.8048630
  14.1310418  12.3549247  41.2584257  13.0473065  11.3158190  41.0666943
  14.9342299  13.1822944   7.7539057  15.5229652  13.1814158   6.9991726
  14.2303932  13.7825835   7.5079387  77.7831173   7.1215796  67.5503731
  76.9182396   7.4749744  67.7585459  78.0329466   6.6251665  68.3297253
  63.7100649  24.2467189  49.3177605  62.7961969  24.2998552  49.0380239
  64.0250301  25.1498246  49.2799234  56.5430307  58.2169008   2.8677136
  57.0314550  57.7516651   2.1885750  55.6340456  58.1917095   2.5688154
  69.7337723  76.0354233  28.9555740  69.1148901  75.4050112  29.3240762
  69.9864435  76.5847826  29.6975946  30.7078862  51.6822338  38.0366063
  30.3368378  50.8005667  38.0017567  29.9469519  52.2603369  38.0914569
  11.0405803  79.2404175  66.6202927  11.3760710  78.6651421  65.9327316
  10.8989406  78.6613083  67.3691559  73.3455801  21.0239768  16.8779969
  73.6440802  20.5887008  17.6765382  72.6689243  21.6321993  17.1753693
  47.1565199  42.7001143  68.3436060  47.8906870  43.2762384  68.5564756
  47.2755384  41.9400644  68.9131594  24.3420148  37.1562409  35.8384442
  24.0608764  36.2906599  35.5418611  25.2675009  37.2027040  35.5985570
  36.0965776  18.1110322  67.8332472  35.6117225  18.9049864  68.0586004
  35.9831762  17.5378275  68.5914087   5.6692410  45.0583076  34.5140243
   5.3874213  44.1438484  34.4900417   6.3275683  45.0879240  35.2082586
  32.2250628   7.4135691   1.4439720  31.5785480   7.0947152   0.8142234
  32.5452471   6.6235209   1.8793300  69.2365170  75.3506041  58.3450508
  68.8976717  75.5767441  57.4788666  68.6533499  74.6587276  58.6572266
  37.7360916  16.7821848  63.8505077  38.0455017  16.5020251  64.7119045
  36.7820144  16.7350507  63.9117289  27.6082850  43.1695175   3.6161545
  26.9891644  43.8855600   3.4740174  28.3944106  43.4342384   3.1384942
  29.0873790  43.4030867  68.7816191  30.0045347  43.2456350  68.5574102
  28.6185431  43.3089399  67.9524279  41.8757868  64.0665627   2.3145244
  42.2634697  63.7632227   3.1354499  41.1061478  63.5105228   2.1932541
   6.7989570  70.5833578  42.3902559   7.1271300  70.6814384  43.2840776
   7.4947971  70.1143551  41.9297457  51.6388988   4.2096192  41.0733843
  50.9504795   4.8140648  40.7959700  52.2957420   4.7688150  41.4882135
  38.0779076  66.3682652  15.7270539  37.5675559  66.1242008  14.9549115
  37.8131795  67.2688770  15.9142661  64.4562054  21.3834548   6.2850147
  64.8501682  21.3838649   7.1573824  63.5288858  21.5623689   6.4409059
  13.4172595  33.3733582  28.5519886  13.1859577  33.2988143  29.4778252
  13.6107850  32.4761081  28.2804704  76.1608791  23.4267306  66.8808317
  75.6868553  24.2342091  67.0796108  76.1205626  23.3538866  65.9272623
  63.3756065  15.9486163  67.9680538  63.4849024  16.7794836  68.4305954
  62.6878834  15.4929268  68.4534550  77.6298571   2.2255787  46.3447189
  77.2521591   2.2568661  45.4657459  77.4635267   3.0954093  46.7079830
  59.7823095  52.6467514   4.9762994  59.6313286  52.2297096   5.8245409
  60.5877638  52.2442722   4.6515089  24.7151709  14.0125668   8.2999551
  23.9380813  14.1720819   8.8356036  24.5793080  14.5450997   7.5162584
  25.3064632  53.2477236  66.2257528  25.3481817  54.1173553  66.6235304
  25.0069427  53.4078074  65.3308249  26.8369603  16.3378441  17.6060152
  27.4367833  16.9662619  17.2041023  27.0497346  15.5030656  17.1887589
  26.7339182   6.7925698  12.4900937  27.3077703   6.7328036  13.2538712
  27.2968030   6.5672988  11.7493868  12.4685538  62.2692680  58.9753437
  12.2479093  61.9233990  58.1105185  12.9890132  63.0520105  58.7946129
  19.4961214  69.4719982  16.1594629  18.6940587  69.0118647  16.4068604
  19.8109913  69.8602819  16.9757497  73.3987856   6.1777008   6.0696614
  73.8677645   6.4332092   5.2753043  74.0892029   5.9592777   6.6956347
  76.0211277   0.3022319   6.8491644  76.2962914   0.5274137   5.9604520
  75.9860039  -0.6543117   6.8538898  32.1449780  17.4168730   2.1332520
  32.8148317  17.9104018   2.6064914  32.2008038  16.5316069   2.4930014
  20.6716347  49.2336082  59.8276281  21.2728691  48.9399719  60.5121183
  19.8474205  49.3961906  60.2863979  24.6737528   2.4741995  29.6513772
  23.8722992   2.9719967  29.8129344  25.1311660   2.9703909  28.9725542
  75.8886194  67.2725725  10.7765853  75.9799671  66.3228798  10.6993186
  75.1319599  67.3945379  11.3500166  59.2085266  69.9484491  16.0985601
  58.3717775  69.5451212  16.3296664  59.0443277  70.8897781  16.1548471
  61.7993593  74.5449400   3.0402389  62.1985626  73.9058542   2.4499539
  61.4647627  75.2296352   2.4610423  21.5062594  35.4581308   7.5745440
  22.4517822  35.4419684   7.4263597  21.4087582  35.3120065   8.5154867
  79.4304752  17.7060795  66.9610023  79.2543316  17.7751255  67.8993177
  80.1808167  18.2822263  66.8151283  70.9877443  18.3382332  14.1498709
  71.7012310  18.8180399  13.7292147  70.3289509  19.0062749  14.3394566
  34.9157858  38.1031561   3.9260224  33.9844799  37.9488778   3.7675950
  34.9347401  38.7610912   4.6210009  20.5196977  36.5523410  58.0973530
  20.0852084  36.7428088  58.9287233  20.1748514  35.6982017  57.8370523
  32.7991009  33.0736303  66.1156368  32.0296574  33.0592346  65.5464411
  33.5368061  32.9212952  65.5250311  25.1598620  47.0187855  62.3077822
  24.5241070  46.3210535  62.4665833  25.7040524  47.0307159  63.0951452
  16.8830109  35.1477075  25.2725172  16.8933427  34.3924332  25.8604670
  17.7323079  35.5680370  25.4076123  28.6895990  75.6192398  32.2045207
  29.3924427  76.2493992  32.3630691  27.9852200  76.1386013  31.8167806
  11.9684148  17.5686669  39.9808478  12.0714760  17.2173679  39.0964270
  11.1124802  17.9970264  39.9701786  55.2738619  77.7980995   9.7534734
  54.9086285  78.5988045  10.1299059  54.6080780  77.4992847   9.1340578
  58.3198071  63.9584970  26.8935895  58.5998106  64.4531441  27.6637530
  57.4092817  64.2209721  26.7583728  67.7440691  56.9064426  46.9333744
  67.8999233  56.1313820  46.3937235  68.2399178  56.7432976  47.7357149
  27.3743677  15.6294155  34.8389530  27.1969533  16.2631786  35.5340075
  28.1922030  15.9306538  34.4431877  15.2065325  74.0134430  42.2325802
  16.1544287  73.9010906  42.1611452  15.0066066  74.7414160  41.6440916
  55.1499510  23.1496763  20.7003880  54.2955923  23.3608127  21.0768461
  55.4648352  22.4104548  21.2206101   4.6604159  21.3723946  30.1071620
   4.3781781  20.4599118  30.1700234   5.5650485  21.3225579  29.7983122
  68.9646864  40.2746010  63.7283564  69.1481972  39.9737430  62.8383923
  68.0647326  40.5985022  63.6908960  52.9983473  66.1758375   8.4759223
  53.0582571  65.8327484   9.3675119  53.6022949  66.9183588   8.4639293
  82.9656124  70.7727385   5.2439851  82.4762154  71.5382195   5.5452526
  82.6499748  70.6221104   4.3529683  24.8308039  18.5454988  67.0022774
  24.3679929  18.5613835  67.8400040  24.1376615  18.4636915  66.3472271
  49.2743635   2.9346660   5.9727484  49.9950457   3.1298617   5.3737932
  49.3673944   3.5766035   6.6766608  67.5638485   6.6294360  40.7032585
  66.9782305   7.0380074  41.3407135  68.4276819   6.6656226  41.1140060
  54.1766167  56.0654259  57.8966761  53.7408876  56.6029358  58.5580826
  55.0269747  56.4858150  57.7686167  34.5530319  31.5875077  64.2540550
  33.9482212  30.8768821  64.0408659  34.5771050  32.1267772  63.4635830
  75.6262732  65.3064966  24.6073961  76.3521290  65.5514717  24.0335011
  75.4387617  66.1001921  25.1085114  12.6258790  63.5447645   6.2513965
  11.7397594  63.9001513   6.3201278  13.0945623  63.9245415   6.9945902
   9.8199672  68.8686800   2.7114186  10.2999294  69.6914768   2.8055933
   9.7561944  68.5252428   3.6026067  41.5056896  25.7675028  44.9992514
  41.0480738  25.9822202  45.8120966  41.7133570  26.6168547  44.6097565
   6.4780205   1.6545969   6.7596000   5.8910763   0.9773308   7.0958126
   6.3902014   2.3775697   7.3807520  70.8532572  36.6779327  19.0329838
  70.8000803  36.3421202  19.9277663  70.9650898  35.8973074  18.4904420
   8.0510730  35.3805852  23.3248138   7.4737346  35.9882212  22.8625464
   7.9250389  34.5435524  22.8779125  66.4785671  23.3955646  16.4515042
  66.3495827  23.0404115  17.3309708  66.3879204  24.3422842  16.5598404
  83.4160614  70.0255919  57.3666906  82.6223660  69.5669127  57.0912123
  83.8824558  69.3913603  57.9111671  70.0308418  51.5498447  16.9763565
  69.5889044  52.3837996  17.1358585  70.9535599  51.7833328  16.8748450
  31.3117146  78.3193350  15.8891261  31.8450761  77.8247499  16.5113318
  30.8546233  77.6497555  15.3802431  42.5970697  20.2483225  68.4806347
  43.1402874  20.3961754  67.7064991  42.3059797  21.1226678  68.7395144
  66.7048120  33.2024956  40.8827305  66.5054035  32.3455548  41.2597227
  66.6914749  33.0569696  39.9367547  41.0749578  21.9339633  46.2524605
  41.0433292  21.6561747  45.3370047  41.9276953  21.6317868  46.5651274
  57.3339605  56.6848278  21.1418557  56.4695644  56.7650747  21.5451050
  57.1881247  56.1387014  20.3693843  63.3631516  14.2794549  50.0574160
  63.5576630  15.2140212  50.1279974  62.6284790  14.2332578  49.4455719
  24.5318675  16.3990843  58.2776403  24.9513817  16.4970016  57.4228621
  24.6902370  15.4864609  58.5190344  73.2064199  74.3191719   3.7791535
  72.4130249  74.2006731   3.2569388  73.0729389  73.7635231   4.5470542
  28.9728498  32.1769762  68.0578232  28.5159516  32.9386163  67.7009249
  28.3690071  31.8185377  68.7083054  22.9555273  16.1533105  47.6352835
  23.4683228  16.1446261  46.8270779  23.0640101  17.0403481  47.9782486
  81.1541748  41.1533976  23.7595844  80.8411217  41.3490057  24.6427441
  80.9266853  40.2337027  23.6230540  51.2246847  13.4999740  22.6685715
  50.9612036  12.9286218  23.3899355  50.4166746  13.9395857  22.4038172
   6.8629354  76.3848019  11.0373104   6.4690030  75.8556747  11.7309046
   7.7196139  75.9847116  10.8881068  83.2437515   4.2167836   6.8361664
  83.3250046   3.5621983   7.5298142  83.5159492   5.0369799   7.2477734
  57.9025984  34.6565509  13.5516202  57.7095509  34.4712114  12.6325917
  57.0977640  34.4274235  14.0163493   5.5541277  74.6173811   1.7932847
   5.4995102  73.9804554   2.5057283   6.1899251  75.2644539   2.0987162
  54.9554110  71.6365337  22.6662278  55.5258894  70.9472609  22.3260927
  55.3814983  72.4520302  22.4023175  46.1754036  62.5606155  28.0949354
  46.9887543  62.0995712  28.3001852  45.6351662  61.9070911  27.6507783
  42.3526430  57.8445292  40.0077724  41.6335392  57.9622889  39.3870878
  41.9551659  57.9929399  40.8658028  53.9286089  58.0011225  37.8730273
  54.4548130  57.3148918  38.2834315  54.5306349  58.4354496  37.2687459
  68.8881636  65.1285219  21.5841889  69.6316719  64.6009350  21.8758678
  68.1576347  64.5113182  21.5439439  69.3705273  66.3688612  19.2730367
  69.1356564  65.7840919  19.9935329  68.5869360  66.8997431  19.1302764
  83.2025146  67.3716116  26.2466073  82.6881218  68.0960846  26.6026616
  82.7369118  66.5849876  26.5306282  55.4905748  74.3267632  14.6017981
  56.3889742  74.5829105  14.8103607  55.5370140  73.3805895  14.4645691
  58.4361935  28.3260298  44.6634340  59.1944742  28.0665493  44.1400671
  57.9755163  28.9635658  44.1179466  59.9268436  18.5488582   9.4300300
  60.6497526  19.1586220   9.2823088  59.8879051  18.0251575   8.6297464
  53.0734062  34.6586013  58.7035847  53.3792830  33.9216828  58.1747913
  52.7729559  35.3040862  58.0638123  16.4700246   6.1570638   8.3169544
  16.1423087   6.9536281   7.8994393  17.0335817   6.4716178   9.0238428
  83.0646229  19.4583869  29.5781565  83.2524681  19.5245159  30.5144119
  83.9262486  19.4154990  29.1634464  16.5402400  12.0523071  15.9779668
  17.2220826  11.5214920  15.5661929  16.9887817  12.8556883  16.2418222
  17.7768314  11.5922153  13.6154795  18.0019569  12.4996781  13.4103906
  18.5166752  11.2727726  14.1320240  46.6264391  28.7367678  62.3675585
  45.7228136  29.0361619  62.4678469  47.0164394  29.3550873  61.7496443
   1.7253257  63.7334394  13.1522763   2.5837916  63.9430618  13.5201442
   1.7821844  64.0112782  12.2380531  18.8412380   2.2921635  17.2218835
  18.4156418   1.8441132  16.4908898  18.6310422   3.2168031  17.0911491
  27.7209330   9.0703380  29.1901398  26.9629955   9.6115625  28.9691424
  27.6705551   8.9640814  30.1400876   8.3799297  31.3694143  43.4390593
   9.2102176  31.7985272  43.6457348   8.0185407  31.8825054  42.7163076
  33.7538552  31.0414696  67.9338551  33.2210183  30.2518725  68.0279398
  33.1837535  31.6625214  67.4805212  77.0448351  54.6420527  68.3349705
  76.4163208  54.0266991  68.7125206  76.7162848  54.8080730  67.4513865
  20.5496001   4.3074992  32.5594711  20.1313257   4.8892856  31.9248056
  20.9549046   4.8977935  33.1946993  21.5222239  26.9523907   1.0290294
  22.1340632  26.2322879   1.1817798  20.9648061  26.6454673   0.3139652
   0.1983421  24.8683763  34.0840292   0.3737132  23.9777422  34.3877506
  -0.5304272  24.7731638  33.4707880  18.0648184   7.7179223   4.8337790
  18.2098174   7.0417476   5.4955906  18.8811231   8.2175827   4.8190206
  16.4696562  50.9228230  62.2690105  16.7080390  51.6972446  62.7786016
  15.7946777  50.4903555  62.7920866  56.1233616  51.7716885  12.7411675
  55.4091644  52.4009562  12.8420591  56.7251396  51.9755697  13.4570765
  10.6297278  24.5457077  29.0646172  11.2328315  25.1386309  29.5128822
   9.8904574  25.0999904  28.8146520   3.3228895  76.7880154  31.7242408
   4.1049847  76.5028763  31.2517428   2.9997247  77.5365829  31.2227964
  58.2961750  60.2853918   0.4631421  59.2505121  60.3501368   0.4989360
  57.9865885  61.0001183   1.0195147  62.4033022  33.4982681  54.5581961
  62.2330427  33.1259751  55.4234409  63.0817842  34.1562152  54.7098398
  63.3891439  62.8355742  13.0014360  63.1637669  62.4599600  13.8525259
  62.7673912  62.4379015  12.3919141  13.9895844  16.7498326   5.6099862
  14.8014045  16.2461555   5.6690514  13.4426248  16.4062631   6.3164043
  48.4929991  66.2823868  19.7415614  48.6446428  65.4667377  20.2190065
  49.2670584  66.8147516  19.9249983  25.4373574   3.3904308   5.8148688
  25.8267236   4.1966346   6.1534858  24.5326066   3.6281982   5.6120688
   4.2951420   7.3053020  15.7830679   3.4024948   7.0418519  16.0066915
   4.8088953   7.0971709  16.5634346  28.8980460  24.4710064  13.8458872
  28.8136744  24.7132015  14.7680891  28.9593792  23.5158062  13.8537574
  56.6328764  72.6076126   4.0524343  56.9360209  72.7206087   4.9533057
  56.7974901  73.4538174   3.6364171   7.7889293  47.2463989  37.3545480
   7.7159417  46.3136005  37.5565314   6.9371217  47.6108885  37.5949717
  52.7001429  68.8987541  29.7869849  53.0350304  68.4841394  30.5820823
  53.3581066  68.7035656  29.1197348  38.1541800   3.0095670  37.6653051
  38.4817386   2.4609670  38.3780289  37.8204346   2.3878856  37.0185018
  23.2637596  74.8400211   3.2729819  22.4896550  74.3608952   2.9772905
  23.9922428  74.4284916   2.8080261   6.1180693  22.7342343  33.0570412
   5.3850394  22.8346443  32.4497390   5.8559370  22.0153165  33.6320853
  46.7989302  75.7074213   0.6434555  47.6181126  75.2262068   0.7601095
  46.3124943  75.5520391   1.4530668  62.5759840   7.7716398  11.8581593
  63.3672476   7.2556192  12.0126224  61.9080067   7.3545223  12.4022627
  49.3612623   0.6220973  43.1286621  50.1374483   0.9936719  42.7094984
  48.8583565   1.3830613  43.4189272  44.7745132  49.4659662   9.5685530
  43.9764118  48.9936924   9.8056704  45.0301838  49.0952682   8.7238967
  51.2623596  50.4349947  59.1291332  52.0911169  50.8264256  58.8531351
  51.0100222  49.8691034  58.3995247  59.9504137  70.2085066  27.1639824
  59.6766710  71.0673094  27.4861002  60.7922411  70.3697109  26.7378736
  70.3435516  76.9995975   4.7410834  69.6799660  76.3182974   4.6328133
  70.0134611  77.5440216   5.4558378  71.9594145  57.9924393  18.5488379
  71.5013552  58.5389328  19.1873956  71.7652655  58.3977222  17.7036858
   7.6580840   4.7467211   6.2737691   7.6387107   3.8097027   6.0792100
   7.7567393   4.7918835   7.2248000  48.7511635  65.5079603  34.2299509
  48.2164860  65.1982450  33.4989047  48.7185192  66.4622688  34.1631246
  46.2581253  42.4286938  62.3454666  46.0479879  41.9725561  63.1603384
  47.1178532  42.8185129  62.5040340  68.3774662   7.0526063  51.2309265
  67.4348545   6.9883615  51.0773420  68.7731838   6.6098756  50.4801750
   0.6235193  25.6012559  30.7877827   0.1661546  24.7659492  30.6912923
   1.1794870  25.6610441  30.0108933  72.6755714  50.6691551  40.9631157
  72.3997211  49.9403524  41.5189791  73.5926390  50.4830027  40.7617092
   0.4808693  37.1897745  10.4107022   1.1554244  36.8111849  10.9745073
  -0.0064717  37.7811790  10.9842634  18.2738280   6.9433266  10.1209688
  19.2171693   6.8943447   9.9662495  18.1453848   6.5005177  10.9598100
  66.6374779  66.2512016  17.9029405  67.0366716  67.0744991  18.1841159
  67.3715401  65.6409740  17.8322017  44.9694347  66.1800718  34.8398829
  44.2142105  66.6541958  35.1878357  45.3868008  66.8001652  34.2419481
  47.9456758  19.8635232  67.3134756  48.1918383  19.1537368  67.9066372
  48.7029934  19.9677622  66.7374229  81.6143513  11.4659357  18.9444268
  82.4461937  11.2222612  19.3504858  81.8468094  11.7053068  18.0472660
  69.9341774  69.8767900  11.0394192  70.2252102  69.8393917  11.9505370
  69.7493076  68.9661980  10.8094704  76.3718987  52.6209354  39.0253353
  75.8520889  53.4246588  39.0175915  77.1395826  52.8372860  39.5545721
   6.5194553  12.3410797  10.0010026   5.6670785  12.7685559  10.0843644
   7.1186972  12.9040670  10.4910886  64.4714069  64.6430683  47.3470545
  64.3746281  65.5900049  47.2461891  65.3260994  64.4474077  46.9630623
  82.1016502  66.4725065  33.1837654  82.6540279  66.9126892  33.8297939
  82.0392323  65.5701876  33.4970689   6.9893062  13.0413628  38.9883065
   6.3434237  13.7477994  38.9844513   7.7875429  13.4484804  39.3249130
   6.7344111   4.5741197  41.1691952   7.5378811   4.7650146  41.6531658
   6.0301244   4.8485950  41.7564583  74.1145515  14.0313447  52.1784973
  73.4274578  13.3751655  52.0620203  74.5697451  14.0535116  51.3367462
  24.1061997  10.6076586  19.6395731  23.3719826  10.6027746  20.2536845
  24.6472192   9.8647463  19.9071753  57.2650433  77.0052147   0.6585642
  58.0930710  77.4616861   0.5094418  56.6701984  77.6852703   0.9746654
  76.3292313  18.6396337   8.8659984  75.4225826  18.6287880   8.5592294
  76.7304993  19.3740737   8.4014398   2.1786028  14.0575635  24.8749495
   2.1948209  14.1707158  23.9245987   1.6620401  14.7969568  25.1954079
  25.1599407  55.6091881  67.4878454  25.3119731  56.2299776  66.7752934
  24.9924803  56.1592627  68.2530975  34.5211601  18.7768686  54.1043949
  34.0809560  19.6264100  54.0773582  35.1249266  18.8433981  54.8441744
  27.1666002  71.0686302  65.0841808  27.1711564  70.1858473  64.7141743
  27.8155446  71.0370588  65.7871103  78.8960314  73.2369232   2.0685096
  79.5058632  73.6382484   1.4494181  78.2888365  72.7410555   1.5192701
  84.1117573  42.8941107  68.2430792  83.4088326  42.2764158  68.4445477
  84.6991825  42.8427219  68.9970875   9.6589583   3.4093985  17.5703990
   9.4475591   4.0576530  18.2421935  10.5401826   3.1105456  17.7948153
  54.3761158  64.1930866  67.9585457  54.6201563  63.2740021  68.0679083
  54.6506739  64.4094038  67.0674467  37.9021716  32.6996350  62.5264406
  38.5328388  32.4575615  63.2045937  37.9532790  33.6544204  62.4816656
  12.6345599  20.8273530   9.9517173  12.9515719  20.7208824   9.0548342
  11.8221545  21.3253617   9.8610640  10.3271735  33.3438253  14.6347463
  10.4668772  34.2080951  14.2477691  10.1639223  33.5198355  15.5613530
  13.8942587  35.2881885  21.4920259  13.0734766  35.2651048  21.0000730
  14.2789543  34.4221807  21.3568521  55.9928846  48.3115196  68.0510044
  55.1619768  47.9462528  68.3549833  55.9876537  49.2147446  68.3678532
  28.6095309  40.2217197  66.3098478  28.7668943  40.2874088  65.3679562
  28.1157041  39.4083834  66.4140272  29.8809552   3.7528718  12.4414146
  30.0390792   4.0532851  13.3363891  29.4244123   2.9181048  12.5461149
  62.1759844  73.2490683  17.5062490  61.2436390  73.4459877  17.5967240
  62.6103401  74.0964222  17.6040494  41.4655638  45.7890987   7.2287542
  42.2161198  46.0276937   6.6847306  41.2890053  46.5722322   7.7500558
  37.4363112   4.2117009  46.7444515  38.0175376   3.4511825  46.7400217
  37.8128481   4.7970966  47.4015379   9.5603764  35.6105113  13.1549501
   9.8895723  36.5090466  13.1772411   9.1729975  35.5188799  12.2844481
  14.7878718   3.2946199   4.3227771  15.5054414   3.0935368   4.9235198
  13.9989543   3.0258489   4.7935233  70.6531382  15.8110762  40.7917070
  69.8586988  15.7736433  41.3243389  70.7458019  14.9267292  40.4373360
  69.8932934  60.8966351  51.4889193  70.8389616  60.7485151  51.4902973
  69.5146799  60.0284529  51.6272783   7.4084038  12.5928199  48.0558729
   8.1788808  12.9762948  47.6368952   7.2380370  11.7932618  47.5579643
  36.7752314  49.7922182  29.1576529  37.4370241  50.0815058  29.7858071
  36.2065434  50.5533314  29.0413046  64.7259569  13.8730156   6.7235178
  64.2445326  13.5481441   7.4843854  64.0459967  14.1695416   6.1185771
  32.6103997   7.6125669  54.0047169  32.4538827   7.5129819  54.9437666
  32.9776812   8.4919393  53.9150476  42.9915237  19.8968542  19.6180987
  43.1439734  20.8019710  19.8896790  42.9713249  19.4013131  20.4367948
  55.3560686  39.9789953  66.8433905  54.4962311  40.3508806  67.0398903
  55.7241201  39.7610331  67.6996994  57.7468395  28.1791735  52.4078321
  57.5678110  28.7044859  51.6279459  58.6606598  28.3692384  52.6200581
  54.3676996  57.2857237   4.5662534  53.9888668  57.7358389   3.8111922
  55.2565765  57.0619154   4.2904994   4.0928239  39.2483687  38.9520240
   4.2825517  38.4026837  39.3582916   3.4433866  39.0497160  38.2774878
  53.7846518  30.8193493  55.3224659  54.5494461  30.7038665  54.7585630
  53.2899094  30.0057769  55.2246475  56.5096617  73.5097790  21.4867425
  56.7660427  73.2287025  20.6083941  57.3166370  73.8476086  21.8751931
  47.8847408  69.0899754  11.2039924  47.7642632  68.4665108  10.4877460
  47.3436928  68.7458134  11.9146645  31.4795637  62.8577995  65.8785629
  31.9379663  63.0186844  66.7033148  30.6180549  63.2563972  66.0016632
  62.6197815  14.7730684  39.8885226  62.0905161  15.3827906  39.3743753
  62.7349043  14.0144444  39.3162751   5.7826400  38.6444664   5.8677369
   6.3525331  38.8175154   6.6170752   6.3843769  38.5008430   5.1373148
  67.2927761  40.1643753  67.9531717  67.1262169  40.8123589  67.2686243
  67.8588867  39.5151234  67.5357676  30.5746293   9.0080309   3.9913309
  29.7415519   8.6947674   4.3435755  31.1201143   8.2236362   3.9329869
  62.1475983  49.9903631  31.9841242  62.9814053  49.7929001  31.5575004
  61.6136646  50.3856564  31.2950015  21.7438078  22.4075460   1.9062972
  20.8384299  22.6866269   2.0428051  21.8049717  22.2448993   0.9650020
  59.5521736  20.0075126   0.1973864  58.8310146  20.6137872   0.0282925
  59.9451780  20.3237295   1.0108885  83.2862377  21.4182210  19.0279973
  82.6262283  20.7885766  19.3181181  82.7809715  22.1365142  18.6472166
  18.0121756  66.6160822   2.0593865  17.4582994  66.5996361   2.8398877
  17.3966467  66.5690136   1.3278535  79.2628193  75.8476162  48.2704401
  79.6170664  74.9667454  48.1487560  78.9120483  75.8437872  49.1610432
  34.3543196   3.3291543   0.7521463  34.5403361   2.8791958  -0.0719695
  34.4187832   2.6449627   1.4184481  39.7222233  14.9367404  33.3242726
  39.6584868  14.6572924  32.4109936  38.9425373  14.5706248  33.7417412
  29.3020535  43.8089705  64.0220928  29.4633460  44.7343111  64.2063761
  28.7474561  43.8132524  63.2419395  28.7677526  53.6855412  37.6447511
  27.9218364  53.6349726  37.1996665  29.1386485  54.5207691  37.3600364
  30.2928209  17.7613294   0.1741647  29.5582724  18.1076908   0.6808263
  31.0419488  17.8208840   0.7670313  17.5197315  32.0653558  12.8939962
  17.4412537  32.4620819  13.7615681  17.2048020  32.7402139  12.2926497
  49.3191862  22.1161270  15.3414786  48.7573051  21.9899011  16.1060631
  50.2099895  22.0718837  15.6889594  34.0981770  27.6876616   6.4543176
  33.3776879  27.1754193   6.0872555  33.8300395  27.8665161   7.3556197
  41.8563747  43.1155396  66.4976692  42.3524761  43.1087875  67.3162460
  42.2087908  43.8600969  66.0101557  18.2127476  24.2166138  15.0852025
  19.1006541  24.2558074  14.7297907  18.0836904  25.0686789  15.5018079
  59.6267271  78.1039572   3.8194668  59.8397636  78.4204197   2.9415745
  58.8039589  78.5412931   4.0386072  35.9951854  15.7100391  13.3315492
  35.5456090  15.3846979  12.5516343  35.3003120  15.8182883  13.9809048
  12.8117692  21.1296558  28.3432031  13.1896842  21.4211464  27.5134778
  13.2964993  20.3333998  28.5605621   7.0961440  65.9235430   0.3264898
   6.8947297  66.2215328   1.2135447   7.9876047  66.2332296   0.1664188
  69.1035891  71.7840576   3.3204708  69.3027115  72.4002838   2.6155961
  68.2635069  72.0822811   3.6691228  17.2156286  10.2683794  20.9890199
  17.3739076  11.2116861  20.9522367  16.4188278  10.1794279  21.5119219
  52.5053883  63.0301809  33.6724567  52.2077513  63.8777113  34.0031147
  52.8828430  63.2267380  32.8150630  83.8078499   5.3332084  65.1938534
  83.8549900   4.4772017  65.6196022  84.6734142   5.4546028  64.8036051
  14.1077316  10.1696289  20.2578068  14.3971288   9.2622495  20.3534269
  14.2237127  10.3612101  19.3271732  22.6793790  24.6417189   6.8882596
  22.9082823  23.9548111   7.5143522  22.3458338  24.1691709   6.1255813
   6.3772702   3.0867952  19.8596942   6.3755137   2.2170031  19.4600809
   5.4823208   3.4057248  19.7431564  20.0275826   9.3119562  12.3319340
  20.4012108  10.0371718  12.8326285  19.4609153   9.7337300  11.6860032
  66.6881800  74.9344444  37.7519631  66.0915756  74.7321796  38.4726501
  66.8480158  75.8749628  37.8301215  52.9668999  32.9328752  47.6316500
  52.9909611  33.0650592  46.6839266  52.0564604  32.7039242  47.8185081
   9.7518057  15.6590545  33.1637383   9.3913013  16.3448775  32.6016760
  10.1121485  16.1299896  33.9151382  57.9023695  59.6853638  13.2641852
  57.8082848  60.5151367  12.7963579  57.5937891  59.8737764  14.1504753
  40.6952572  49.8865747  23.3637691  41.1892033  49.0717077  23.2729793
  41.1733723  50.5176735  22.8258562  80.5268097  38.6219549  30.7361317
  79.9857044  39.3908834  30.9155416  81.3843822  38.8424492  31.0997009
  16.7920160   8.1062597  52.3035908  17.4892557   7.4632776  52.4326754
  17.2521091   8.9221847  52.1065807  38.1903815  14.2514169  48.0618477
  37.6427698  13.8332784  48.7263155  38.1216502  13.6774004  47.2989511
   7.9962343  77.3620081  38.8328815   7.2614539  76.7663765  38.6860681
   8.7732857  76.8323183  38.6544108  62.5978136  73.3481359  22.3644638
  62.6461172  72.6273012  22.9923916  63.4934998  73.6818743  22.3135710
  22.4295878  17.3770392   8.8144898  23.1555986  17.0557141   8.2798034
  21.6759348  16.8594992   8.5309553   4.9243167  21.0063219   1.2459441
   5.1280457  21.6297102   0.5487257   5.3904533  20.2081227   0.9972961
  68.4105015  71.8268919   9.7685832  69.0520000  71.2030602  10.1084948
  68.9306736  72.4590158   9.2725259  51.6777182  53.0137682   2.9307228
  51.5011501  52.4933720   3.7144601  51.5325928  53.9188290   3.2064611
  82.5570202   8.5958463  12.0069826  82.6326275   7.8483766  12.6001143
  81.7781639   9.0632957  12.3088145  36.4653230   0.9825740   3.9761978
  35.8811688   1.1076854   4.7240913  36.8157935   1.8551798   3.7974229
  76.9015741  23.2736540   7.1826404  77.1913290  23.6257553   8.0242461
  77.4673939  22.5163817   7.0322454  54.0056849  20.9191322  31.9214869
  54.7610426  20.6692696  32.4536872  53.7873030  21.8033934  32.2158098
  72.5054598  45.1617575  66.3461685  72.5076914  44.9745798  67.2848845
  73.2845306  45.7003117  66.2074709  60.4084015  23.3126283  19.8728931
  60.1055956  22.6192069  20.4591584  60.7593250  23.9843535  20.4575920
  83.7146854  77.5638914  25.9329700  83.7717819  77.7414417  24.9941158
  83.5902977  78.4248257  26.3324118  44.5224619  25.2742124  62.1124983
  44.6003437  24.4984460  62.6677895  45.0022221  25.9553027  62.5838518
  29.0886140   6.5912974  11.2141562  29.4420242   5.8149946  11.6485381
  29.8390913   7.1788460  11.1258221  81.8497467   1.9313990  40.5671310
  81.1763668   1.3502458  40.9207535  81.4577198   2.2978246  39.7744918
  56.3557673  70.4674959  30.5777860  56.7048597  70.0867891  31.3836598
  56.5054178  69.7966814  29.9115705  33.7975001   8.0424500  14.1835654
  33.6632800   8.9899659  14.2042804  34.5075607   7.9148269  13.5544717
  47.3309326  39.5862985  58.6912251  47.3425007  40.4669762  59.0660620
  48.1513596  39.1902041  58.9848948  52.6265860  75.0169802  54.7471428
  53.0026388  74.1373968  54.7131872  53.0682611  75.4379892  55.4846430
   6.8244880  13.6204827   1.5150277   5.9462887  13.4175563   1.8372358
   6.8098336  13.3540666   0.5957677  17.8689718  46.8023157  63.7046003
  18.0606461  47.5696754  64.2437220  18.3434010  46.0871887  64.1285563
  78.2920408  48.8763380  10.1010180  78.2706118  48.1036854   9.5364094
  77.3739004  49.0422630  10.3148460  14.5556831  11.7526448  32.3755884
  14.0671062  12.1490228  31.6541934  15.4410923  11.6376424  32.0305419
  49.6803188   1.9815189  24.6962309  50.6302309   1.9153206  24.5986962
  49.3934679   1.0835809  24.8625326  22.7904654  25.2818155  13.9735758
  22.4029756  25.5149746  14.8172104  22.6273608  26.0429621  13.4165442
  39.6637726  16.6278231  50.1996136  39.4876862  15.7198524  49.9530029
  40.0959635  16.5651596  51.0513878   0.8146890  27.3459673  32.8923011
   0.7681216  26.6088462  33.5011649   0.7698915  26.9434333  32.0250106
  80.4553413  77.7280807   5.3997862  81.2284756  78.1010294   5.8233410
  80.7966042  77.2936869   4.6180731  14.7386460  62.6941418  -0.1819620
  15.2440791  62.6745319   0.6306782  14.7011570  63.6209225  -0.4184017
  68.1101418  11.8504727  18.8584340  68.6545801  12.6376510  18.8453794
  68.2420874  11.4824617  19.7321558  71.5499401  12.6343465  16.8733943
  71.0140228  11.8479013  16.9760025  72.0403290  12.6986134  17.6929176
   0.9766565   5.7377505   1.6503747   1.8331680   5.6447011   2.0674619
   0.8736968   4.9384943   1.1338277  70.6551552  41.8178129  21.7841959
  69.9531317  41.2903261  21.4032030  70.2350855  42.2943211  22.5002360
  76.2467766  76.9781685  22.9245877  75.9585762  77.5888872  23.6029649
  76.4084578  77.5294828  22.1589875  82.0787239  45.3415442  26.2849712
  82.6097393  44.7885180  26.8580484  82.4859333  45.2540302  25.4231405
   4.0881452  34.6807623  22.2029543   4.2303675  34.7094297  21.2568116
   3.7031123  35.5315232  22.4131656   8.1918919  36.8067002   6.8252105
   8.2000989  37.3575282   7.6079953   9.0460050  36.3745904   6.8274420
  51.8288422  65.0659180  68.7447548  52.3001623  65.8979654  68.7025118
  52.4818468  64.4083214  68.5052109  68.7015200  70.2294588  14.9193704
  69.1276884  70.6671619  15.6562734  68.4814501  70.9380484  14.3146396
  17.2510612  78.4647465   7.4885231  17.4367809  78.2542467   6.5734118
  17.5969875  77.7201128   7.9805434  43.4749317  75.4240274   6.3379991
  43.5027838  74.9864292   7.1888590  43.8134480  76.3028049   6.5094316
  77.4304676  66.9897985  64.1072226  78.2956553  67.3844671  64.2164135
  77.2644567  66.5431499  64.9373865  20.1411438  12.0393038   9.2243361
  19.6350634  11.4278102   9.7593039  20.3195524  11.5591514   8.4157228
  16.8696308  60.2220488  13.5182679  16.9716132  59.6008682  12.7971804
  16.0856557  60.7231951  13.2936168   0.9411286  11.9030285  18.0653393
   1.8107818  11.7281687  17.7056742   0.3382267  11.4979565  17.4419153
  15.0769055  29.9608326  46.3367891  14.3490434  29.4838119  46.7354107
  15.1262367  29.6198869  45.4437304   5.7875645  33.9120388   8.1964123
   5.8943766  34.4752598   7.4298579   6.6621000  33.5575438   8.3568877
  68.1501055  46.6722870  67.5408316  68.0373240  46.0102892  68.2229376
  67.8281641  47.4818897  67.9372311  32.0839596  39.7935367  31.4207864
  31.6187453  38.9859676  31.2025261  31.7952967  40.0036860  32.3089004
  42.6831818   2.5445929   6.6731793  43.6100292   2.4195600   6.8770355
  42.6768875   2.8555745   5.7679260  76.0284662   7.0422161  15.8370411
  75.6589031   6.2949663  16.3074386  76.9728136   6.8860370  15.8434844
  76.5337610  70.0336695  59.9809361  76.9050884  70.6324863  59.3330431
  75.8657074  69.5449543  59.5002127  66.2624598  25.7667971  39.5666027
  65.7066441  26.1903644  38.9124680  66.9691801  25.3683925  39.0586114
  10.3656077  10.1511467  10.2102637  10.9930563   9.4659752  10.4406571
  10.0210333   9.8837000   9.3582231  23.6602211  21.1959600  14.6644807
  24.1320562  21.9940686  14.4265223  23.6659169  20.6674075  13.8664639
  83.7304592   2.7369186   4.6804717  83.0726814   3.0805027   4.0758985
  83.7301350   3.3550444   5.4113287   7.4721360  71.6350985  30.8786249
   6.6717714  71.9789028  31.2754202   7.8194606  72.3663282  30.3678417
  36.2610650   2.3861684  17.4573803  36.9159055   1.8241271  17.8715372
  35.5183125   2.3734978  18.0610240  20.4732084  15.8321822  11.0127926
  19.9338496  16.0532713  11.7720306  20.0140762  16.2248302  10.2703261
  63.9778566  63.9403009   2.4994351  63.0621004  63.8485146   2.7624846
  64.1810083  64.8623562   2.6568404  81.8127155  76.4339447  14.8759067
  81.4070034  75.6101322  15.1460242  81.1237717  76.8944216  14.3967843
  43.4526825  68.5450268  46.2604284  43.0374432  67.9006004  46.8336058
  42.8186464  69.2599773  46.2049437  20.0411677  23.7270617  24.5825148
  20.4861045  24.1663241  25.3072977  20.3756833  24.1611791  23.7977409
  59.9220800  48.3082056  55.9883738  59.5095968  47.9960728  56.7937708
  59.5435286  49.1757774  55.8460712  12.4509311  12.6775682  30.1097417
  11.7422724  13.0349910  30.6447959  12.1592736  11.7939615  29.8852301
  63.2168674  50.5237007  13.6289167  62.7146101  50.0862646  14.3163908
  64.1295815  50.4266882  13.9005208  73.3837080   3.5417956   9.8102880
  72.6313114   3.2133764   9.3180799  73.0567169   4.3246061  10.2535903
  83.6862850  -0.1421619   1.9780695  82.8580475   0.3372419   1.9985621
  84.2146587   0.3202673   1.3275206  29.7330546   4.3205327  41.3986397
  29.8729110   3.7913647  40.6133699  30.6147480   4.5163333  41.7156744
  74.3390179   6.4662713  12.0511591  73.4010506   6.2851959  11.9906259
  74.6438789   5.9128422  12.7701914   4.2553970  70.3118229  15.0038707
   4.8634976  70.6551361  15.6585324   4.1592979  71.0227203  14.3701351
  36.9600034  21.0786390  61.6278696  37.1811008  21.3521409  62.5181198
  37.3626661  20.2151680  61.5356159  17.1292293  18.8400495  28.1678963
  17.3846805  19.1602659  27.3027730  16.9778192  17.9033911  28.0414963
  64.5811224  59.8463631  58.4632635  65.0450945  60.3164148  57.7704334
  64.1020536  60.5274057  58.9353991  18.8856697   1.7042783   5.0122583
  19.5911479   2.3497725   4.9690136  19.3158150   0.8672664   4.8372793
  73.9185286  33.7501407  47.3447847  73.8954306  33.3334947  48.2062387
  74.5671606  34.4484162  47.4337673  75.5105591   1.9210853  17.9295945
  76.1662626   1.2355147  18.0571866  74.7212839   1.5786889  18.3491635
  74.0826130  67.9319048  15.2892685  73.8853788  67.6816797  14.3866491
  73.9686775  68.8821697  15.3047299  25.7258964  11.4452851  16.1551034
  25.4079175  11.4864743  15.2532029  25.0479579  11.8847930  16.6683912
  52.3608208   5.2653140   7.9375929  51.6421890   5.6970066   8.3995897
  52.6559114   5.9117728   7.2963101  71.4419794  61.8396854  15.9440815
  72.2208405  61.4837694  15.5163789  71.1350489  61.1316442  16.5103841
  11.6419828  21.0713792  12.9572022  11.0688305  20.3322625  13.1607640
  12.0252907  20.8505392  12.1083570  61.2143373  10.2067435   8.8935286
  61.1638594   9.3438298   9.3047005  61.6470289  10.7578552   9.5456707
  18.2720935   5.8592188   2.6688948  18.0530190   6.5348816   3.3105469
  17.6299965   5.9765911   1.9687763  54.0737152  27.6893163  41.6685677
  54.6402073  27.6198673  42.4370050  53.2434416  27.3031473  41.9473982
  51.4259100  27.1278429  61.2347269  51.3174248  26.5347385  61.9781590
  50.6582928  27.6986122  61.2696886  28.2372618  43.2742596  23.2493424
  28.6226559  42.8858042  22.4639726  27.5524139  43.8550901  22.9179072
  14.6201611  34.4970918  15.5824065  15.4845154  34.2936993  15.9398353
  14.1949749  33.6451268  15.4843974  18.1678200  21.5921807  36.4397764
  18.0426705  20.7141447  36.0797501  19.0656376  21.8230796  36.2013602
  17.1144724   8.6430109   0.7589387  17.0228803   9.1563869   1.5616143
  16.4003086   8.0069107   0.7986625  51.0796309  56.4108372  57.6277924
  51.3553572  55.5030632  57.7548933  51.5274715  56.8964100  58.3205318
  83.5917282   4.8296535  10.3602552  84.4485760   4.9708980   9.9576354
  83.7501335   4.9232036  11.2996101  70.1078749  73.5885859   8.7943131
  69.8742390  73.9481306   7.9385245  71.0621405  73.5171986   8.7716907
   2.8098357  21.6902041   2.6243305   3.0220973  22.4198794   3.2063556
   3.6109972  21.5442085   2.1212828  40.9925842  35.8683133   1.4454508
  41.6416121  35.4425478   0.8853428  40.4664087  35.1479983   1.7926034
  63.0641365  23.9056301  21.7493296  63.3113909  24.0932393  20.8438468
  62.9462099  22.9560328  21.7735720  37.6530719  10.9243417  10.9614766
  37.4210596  10.7552052  11.8746006  38.2464814  10.2101946  10.7289004
  70.2694082  31.1735487  60.9407711  69.6066666  31.7595625  60.5752754
  69.8933411  30.8730435  61.7681217  52.7611876  41.3391590  59.9297667
  52.4431038  42.2096539  60.1691389  53.5190868  41.1967993  60.4968214
  21.1638546  71.4138079  13.2876217  20.8697653  70.5029583  13.2776427
  20.4506087  71.8911505  13.7114763  16.4585114  15.3864658   3.1162506
  16.0461509  15.6924772   2.3084469  16.5210211  16.1686409   3.6644524
   2.6919696  48.7729120  19.2395294   3.5981667  48.4672642  19.2797363
   2.5326103  49.1635418  20.0987411  70.2833986  74.7592354  26.5362978
  70.2731323  73.8032579  26.5835285  70.1835966  75.0449896  27.4443793
  60.1460743  40.2480888  39.4298911  60.2582455  39.3158865  39.6160460
  59.1991234  40.3647232  39.3530107   1.4134946  24.3955207  46.4919901
   1.2871680  23.9883566  45.6349659   1.7061543  25.2850604  46.2937450
  15.2311122  30.9978151   5.2970296  15.9551477  30.7618904   4.7170779
  14.9335575  30.1636648   5.6601918  60.4427528  28.7414932  53.1732798
  60.5639791  28.0190349  53.7893867  61.0509014  28.5516524  52.4588966
   6.0198557   5.4262143  23.8299942   6.0751730   4.5998862  24.3099451
   5.2718180   5.8794624  24.2188883  81.8903255  77.7747822  17.3883951
  81.1971378  78.3697224  17.1024430  81.9094181  77.0902348  16.7196178
  80.4475403  35.9368634  55.0650358  79.9454641  35.8820224  54.2519236
  81.2228966  35.3990149  54.9045038  63.2755709   0.1679104  53.2679749
  62.6299953   0.0320215  53.9615154  62.9037762   0.8653410  52.7279806
   5.6622970  47.9764318   9.3184716   5.1404220  48.2050896   8.5493207
   5.3183800  48.5346603  10.0158477  20.8769631  28.7634373  32.3705578
  21.3907027  28.3859754  33.0845785  20.3138900  28.0475426  32.0761514
  63.2025003  74.4010067  31.1445522  63.1205130  73.6439657  30.5645561
  63.7693167  75.0075388  30.6680322   3.7768984   9.7704542  18.8739192
   3.9106959  10.3809667  18.1489325   4.4574606   9.9980259  19.5073843
   7.9054999  75.8155203  34.1606116   7.0041263  76.0406685  34.3909717
   8.1925321  75.2296925  34.8610783  78.4398556  55.6046486  55.8137465
  78.5304308  56.5012074  56.1365557  77.5656271  55.3356695  56.0958958
  74.7405052  30.3267288  18.9938176  74.0619707  29.9909520  18.4080887
  75.2499914  29.5540428  19.2379713   4.4801608   4.6172410  65.0227690
   3.9605442   4.4502640  65.8091211   5.2455199   5.0973558  65.3389120
  58.2119417  72.3007154  36.9608760  58.7824869  72.0718241  37.6945782
  57.4893951  71.6752434  37.0151544   4.4691381   8.1804883  23.5553789
   4.0408745   7.5777775  22.9474616   5.4050964   8.0347359  23.4176469
  31.0444736  45.6566525  22.2269535  31.3830066  45.3846931  23.0799866
  31.2782907  46.5824795  22.1605682  77.1550798  48.9280844  28.1033206
  77.5161839  49.7203398  28.5010314  76.5824986  49.2493486  27.4067807
  69.6397495  58.8759661  45.9295511  68.9773130  58.2099628  46.1135197
  69.1469479  59.6945667  45.8723640  66.4135504  41.1282825  63.1933546
  66.0753918  42.0237589  63.1912374  65.7646704  40.6283951  63.6886311
  43.8497448  25.4303336  55.9514952  44.6464205  24.9744225  56.2229538
  43.7608480  25.2238584  55.0210667  56.8801785  77.8582716  61.0387087
  55.9318352  77.7384520  61.0888910  57.2424841  77.0071411  61.2847853
  54.5582485   2.3680575  11.6016448  55.0149441   3.0900627  12.0333517
  54.3616295   2.6989254  10.7252324  30.8867407  37.7229762  11.9257605
  31.2710238  38.2800341  11.2488210  30.3235960  38.3112216  12.4288177
  64.8016882  77.4066925  15.5622089  65.2478695  77.1193600  14.7655940
  63.9715052  77.7700377  15.2539659  74.1336918  66.3509130  12.6976502
  74.8522043  65.7839012  12.9777658  73.3551025  65.7971001  12.7552927
  33.4358573  26.9144273  58.9927006  33.1507802  27.7739859  59.3027401
  34.2877889  26.7804503  59.4080257   5.9597355   8.4615070  44.3235970
   6.5455091   8.2845592  45.0596619   6.4691329   8.2224268  43.5492659
  47.9050970   2.7799839   8.8365644  47.6869249   1.9761983   9.3083286
  47.1869946   2.8948277   8.2141751  53.7490273  51.0857058  51.9249725
  53.5414124  51.7193699  51.2382412  53.5237741  51.5337181  52.7403116
  58.4988689  36.3410020   6.7590529  58.5123205  35.5758095   7.3339701
  57.9770613  36.9880486   7.2336864  68.6525965   3.9351699  64.9311638
  68.1467867   3.2101154  65.2981567  68.4765482   3.8983148  63.9910126
  26.4088559   6.6915959  52.9947042  26.4474630   7.6443762  53.0780745
  26.7904639   6.3642383  53.8092279  64.8869991   7.9115868  48.1363535
  65.6744766   8.1026435  48.6458731  64.3540668   7.3659062  48.7146711
  76.2883806  12.9655874  22.3457813  76.0873365  12.4788845  23.1451130
  75.9563255  13.8477170  22.5125647  70.4864359  74.2069387  68.4868765
  71.2807083  74.5800018  68.1045246  70.7711220  73.3758450  68.8669634
  81.9978523  24.6517396  32.5752664  81.8654442  25.3936076  31.9850683
  81.4582348  24.8543620  33.3394623  45.6672716   5.8317268  43.6239195
  44.8657179   6.1358953  44.0496302  46.1373711   5.3572273  44.3095493
  50.1232719  58.2923079  27.5967431  51.0188961  58.4765816  27.3136783
  50.0883055  58.6061621  28.5003519  29.9753141  17.1950340  43.2472944
  30.8157778  17.6497960  43.1921291  29.6663880  17.3696792  44.1362762
  36.1333656  14.6246707  27.3401356  35.2617240  15.0089610  27.2463608
  36.7111135  15.2228892  26.8662429  23.1794119  31.4903903   6.3593602
  23.0236506  30.8440065   5.6707674  24.1222143  31.6525459   6.3268209
  23.8720632  21.1221266  53.3279610  23.9730740  21.9868112  53.7258911
  23.0874968  20.7593894  53.7391853  31.8078732  22.2898984   8.3255923
  31.4388800  22.8746462   7.6636666  31.3065982  22.4793315   9.1187310
   8.1208813  59.9395418  46.2984657   8.8257670  59.9011612  45.6520176
   7.5740117  59.1789150  46.1019611  51.3894176   8.4625769  57.3075914
  51.0132504   8.6346656  56.4443922  51.1180067   9.2099833  57.8404665
  71.4508867  71.9524956  39.3897891  72.0738220  71.8022680  38.6787224
  71.8138695  72.6944971  39.8734379  11.4572144  67.6252651  65.7494926
  11.6437459  68.5460663  65.5662823  12.0555055  67.1417427  65.1798534
  80.7476521  75.9220028  41.1419153  81.3512325  75.2011061  40.9623909
  79.9481058  75.4942513  41.4484739   8.6730742  74.4403934  44.5738316
   9.1362810  75.0758696  44.0280771   7.7489424  74.6704245  44.4774008
  47.9603148  10.6911612  59.5859385  47.6891422  11.6090703  59.5740271
  47.5578642  10.3327692  60.3770304  75.1994038  53.1710625  27.8792524
  75.9860086  52.6261520  27.8556776  75.3870153  53.8338661  28.5438776
  44.1426611   2.7017874  58.2632971  44.1731405   1.9078252  58.7970829
  43.4280109   2.5477076  57.6454258  52.8151226  67.4857044  57.9709625
  52.1909237  67.2109795  57.2992945  52.2812128  67.6180792  58.7543249
  79.3028259  15.2336764  56.0021734  78.6654806  15.3140938  56.7117882
  78.9773083  14.5084882  55.4689074  71.5119648  58.2857084  21.5193868
  72.0693684  57.9395151  22.2162938  71.1344004  57.5090122  21.1065722
  34.7522593   0.5431006  66.8942070  34.4826293   1.3911659  66.5416193
  35.6000829   0.7130093  67.3047638  76.2645245  61.9832277  14.0568149
  77.0691204  62.4453163  13.8215923  76.5253639  61.0643244  14.1185462
  72.5215816  78.4717751  41.1139679  72.0115423  78.4373379  40.3047085
  73.0104828  77.6489162  41.1241531  21.5829921  66.5457106  63.0415297
  21.1089683  65.7632971  63.3232403  20.9155822  67.2310448  63.0081272
  61.9801664  60.0110006  12.3226857  61.9922400  59.4369221  11.5568364
  61.3532591  60.6982327  12.0970106  53.2865858  55.9452581   6.5769666
  53.8699722  55.2008867   6.7246389  53.5576487  56.2975073   5.7292199
  33.3722782  25.3535366  56.7424774  33.1600690  25.8468056  57.5348711
  33.9773273  24.6734643  57.0385361   2.3160091  26.8627286  12.6251447
   2.7531058  26.4048100  13.3431196   2.5450292  27.7832222  12.7534878
  27.8765130  29.0991831  66.5523672  27.1191001  28.9935350  65.9767008
  28.3090591  28.2454085  66.5382004  79.3231106  46.9153976  17.2387111
  79.8591852  47.6246119  16.8839300  79.9547625  46.2451553  17.4995148
  54.9831724  46.1285019   5.1076502  54.3674564  46.2990952   5.8204079
  54.4330692  45.8370495   4.3805480  70.1563549   5.4943359   7.2483844
  70.1755619   4.5781130   6.9719827  70.9432793   5.8778548   6.8612188
  20.8919215  19.0850675  47.2692490  20.8362794  19.7790134  47.9261923
  21.1825037  19.5310974  46.4737272  45.1670170   6.3147587  62.0778942
  44.7791433   5.9950292  61.2633038  44.4607735   6.2505943  62.7208042
  52.4139452  33.6575842   2.1883884  51.5100718  33.8967395   1.9833234
  52.6348495  34.1894317   2.9529604  53.8491344  14.5279324  63.1987381
  54.7056675  14.5914328  62.7761889  53.7995243  15.3036666  63.7573147
  46.7830086   3.5038254  40.6259823  46.9224310   2.7117288  41.1450005
  45.8351612   3.5427836  40.4983377  36.0131049  65.9302473  18.7460899
  35.7351351  66.0209513  17.8346419  36.5400529  65.1312304  18.7574041
  21.4681625  35.6982279  22.4621153  22.2692609  36.2220049  22.4507356
  20.8771825  36.1513352  21.8607259  34.6101904  15.9687817  32.2424674
  34.4251275  15.3448534  31.5405440  35.5374861  16.1809635  32.1359992
  26.4770794  16.9612491  37.2549438  26.9639683  17.6864374  37.6464462
  25.9514809  16.6099751  37.9736805  12.2358131  59.2862511  34.1355181
  12.3228335  58.5586309  33.5197020  12.0081604  60.0375891  33.5878921
  73.1865168  51.2846375  57.2675610  73.2829142  51.5682411  58.1766844
  73.8593721  50.6134701  57.1534061  62.4532318  59.7217989   1.2954070
  62.8104877  60.5848217   1.5046680  61.5449476  59.7594690   1.5951213
  70.3498316  50.4632187  19.6743226  70.3639698  50.5411148  18.7204015
  71.2602282  50.2901411  19.9140179  79.7586060  35.9255075  58.1714392
  79.3838835  36.7845607  58.3659697  79.9080372  35.9378910  57.2260571
  54.3501329  14.2864645  53.3645487  54.7488880  14.8097265  54.0598345
  55.0688267  14.1056204  52.7587366   9.7517627  50.3902626  59.8958111
  10.6888390  50.2912092  59.7275639   9.5964587  49.8826313  60.6923199
  60.4594517  24.1510248  66.0203934  60.3716183  23.7369061  66.8788910
  59.8933220  23.6349344  65.4464769   9.4880795  38.3629704  50.8422470
   9.3888897  37.8599524  50.0339365  10.2101278  38.9651227  50.6625462
  26.0438657  74.2075658  69.0217152  26.3532472  74.4549036  68.1503150
  25.0904489  74.1848349  68.9398559  83.5039711  15.7303321  23.1447554
  83.1409836  14.9104571  23.4798360  84.2485809  15.9143376  23.7174034
  61.7115307  76.1195469  22.8306961  61.6366482  76.1758137  21.8780923
  61.9125986  75.1993656  23.0012083  26.8441534  25.5546784  51.1445522
  26.2687016  26.3069391  51.0060120  27.3047996  25.7524681  51.9599771
  27.6428795  43.8336134   6.4772600  26.7234111  44.0994787   6.4884585
  27.7226567  43.2799101   5.7005477   8.3385336  19.3293238  61.3121653
   8.9838773  19.9756217  61.5986347   8.5748458  19.1412306  60.4038620
  43.0706692  71.4289856  15.0340998  43.9244223  71.3982725  14.6023715
  42.6077843  70.6586742  14.7045648  22.4717593   4.0983477  21.9740462
  22.5639963   3.5918748  21.1670709  22.2604060   4.9838221  21.6782475
  21.6847992  48.0918884  55.4271889  21.9590950  48.9640951  55.1438999
  22.4147224  47.5213289  55.1865482   5.1440084  47.7930880  25.2093625
   4.8692328  47.8725815  24.2959023   6.0853350  47.6258945  25.1626348
   8.3002794  27.8072309  48.3178091   9.0235591  27.2249794  48.5503674
   7.8854775  28.0196476  49.1539049  45.7229280  67.8460884  32.8163290
  46.2621260  67.5864840  32.0692658  46.1257267  68.6546230  33.1329679
  53.0093336  64.6079969   2.5788814  53.6787128  64.9841261   2.0073119
  52.5522184  63.9733791   2.0270298  12.1870720   4.2159656  34.9178147
  12.9563463   4.7764146  34.8161006  12.3984241   3.4263921  34.4196820
  26.5217495  28.1584382  55.6593227  26.8516040  29.0517616  55.5623770
  27.3084259  27.6134872  55.6792593  14.0737426  61.0914660  31.6895056
  14.6650755  60.3732681  31.4642358  13.2238936  60.6704187  31.8187571
  34.0660214  68.4889412  28.6536956  34.4500732  67.6133585  28.6079597
  33.6781788  68.6258125  27.7893615  39.9393916  14.8369670  41.6262388
  39.4840741  14.3113852  40.9684563  40.8681536  14.6720564  41.4636517
  48.3046246  11.3038731  35.1131272  49.2027330  11.0745215  34.8743248
  47.9426432  11.7074203  34.3242335  28.8463521  20.4394579  25.4461122
  28.7081957  20.0476146  26.3084364  29.7972274  20.5161381  25.3674364
  54.6608019  47.6453686  57.8256702  55.2442360  48.1345654  58.4057760
  54.2444754  46.9981861  58.3949375  45.4558897  18.9145482  39.6535778
  44.6746731  19.4674563  39.6684694  46.1029291  19.4003487  40.1650190
  65.6846857  -0.0036259  60.8192682  65.5473423   0.9429155  60.8570433
  64.8176146  -0.3778782  60.9753180  46.0935163  21.9023466  58.9129877
  45.3384542  21.8386626  59.4978428  46.7780590  22.3035073  59.4484282
  18.3780026  36.3765311  63.2978535  18.7186897  35.5134320  63.5328579
  17.4278283  36.2871146  63.3713675   2.6322559   2.9726529  57.7219915
   1.7628005   2.8524914  57.3401022   2.5244287   3.6952201  58.3404589
  28.4560037  11.4906216  30.3191471  29.1223407  11.6884744  30.9772372
  28.6497450  10.5945206  30.0440168   3.4652653  49.7480392   8.2483560
   2.6821497  49.7676659   7.6982862   3.2741559  50.3601027   8.9590526
  25.0627041   9.4947571  59.6608019  25.2368665   8.5768527  59.8690128
  24.1451621   9.5086586  59.3884850  56.1980677  19.1685164  59.5449686
  55.6462288  18.7373328  58.8924408  57.0677996  18.7925243  59.4092369
  55.5483866  14.9237394   7.1023756  55.9206247  15.3664172   7.8650737
  56.2582064  14.3703687   6.7765379  77.2986031  45.0134754   0.7587046
  76.7604160  45.5595160   0.1856169  77.0014238  45.2286053   1.6428061
   9.5169270   2.6357597  59.5589542  10.3475225   2.6996905  59.0875149
   8.9066231   2.2675382  58.9200687  62.3817635  37.9986405   3.9584494
  62.6057386  37.4499750   3.2067609  61.5016031  38.3215976   3.7654597
  71.7867899  65.2683687   0.6153164  71.7847443  65.4591608   1.5533060
  72.5553703  65.7291412   0.2788531   4.6239674  52.5903177   6.9426906
   4.3974593  52.2481108   7.8074569   3.8682592  52.3771095   6.3952631
  17.8651035   3.1409913  11.9032288  17.8899240   3.5057756  11.0186100
  17.9984331   3.8953257  12.4771929  75.4016876  57.9782534  23.9586711
  74.6235991  57.6799870  23.4876657  75.4197454  57.4449253  24.7533178
  75.5387115  57.0527840   7.1206534  76.0016823  57.3396063   7.9078162
  75.0120115  57.8095245   6.8634415  56.6984129  26.1584330   6.0129797
  57.3662233  26.8417978   5.9557790  55.9885931  26.5586472   6.5151930
  42.3406792  45.2660942   1.3515279  42.2296047  46.2082911   1.2244105
  42.8842688  44.9874258   0.6145834  55.5042505  47.9382372   7.8699255
  55.6302881  47.5464487   7.0057219  54.6718025  47.5788784   8.1767243
  64.6809912  78.5782099   1.3180694  64.8945713  79.4976902   1.4767212
  64.5747900  78.2027292   2.1921213  71.5252352  76.9356775  34.3694830
  72.1860027  77.4638462  33.9215374  71.9292164  76.7059088  35.2062821
  83.6792110  75.3244734  49.4456959  84.4974227  75.5374861  49.8944569
  83.7979729  74.4231558  49.1461086  22.8481364  68.5480165  51.6916227
  22.0758891  69.1088867  51.7643547  23.5887909  69.1460991  51.7914343
  46.3980293  28.1667781  58.4083366  46.1779165  28.0927563  57.4797344
  47.2191763  28.6584854  58.4213877  48.5885811  60.3863668  10.3233397
  48.8493538  61.2766695  10.5591190  48.1423521  60.0533628  11.1019409
  36.0186410  44.6486664   6.7969483  36.6224766  43.9859724   6.4616048
  36.2536502  45.4475784   6.3249975  24.2723536  47.2249413  23.7344980
  25.1156092  46.9516945  24.0957284  23.6245918  46.7365026  24.2424965
  58.6531687  49.7706461  58.1746531  59.3533802  49.9590015  58.7995243
  58.1832218  50.5996466  58.0844784  66.9574833  58.2469416  12.9284823
  66.5048504  58.2724714  13.7715149  67.8778124  58.3946705  13.1461954
  53.3957195   2.3595372  47.3351431  54.0797281   2.1615118  46.6954947
  52.7534342   2.8748965  46.8471861  15.2904606  48.1695509  42.3536825
  14.5978916  48.5314465  42.9065037  15.9556186  47.8655863  42.9712629
  55.1032162  52.2387934  16.6759038  54.3041182  52.1264935  16.1610651
  54.8273468  52.0940065  17.5809813  30.4231596  18.4876239  60.4799604
  31.0018873  18.9467883  59.8712969  30.6947637  18.7932611  61.3454390
  52.2675991  38.5055161  14.9448538  51.4926243  38.9475608  15.2916145
  52.4810982  37.8445387  15.6034589  48.9284611  55.0670433  23.7463355
  48.4274578  55.6019640  24.3620348  49.8420620  55.2086544  23.9943528
  48.8335323  48.0748034  12.7157009  48.4119701  48.6721230  12.0978630
  48.7103653  48.4880066  13.5702920  57.5345612  52.1513844  15.3479493
  57.6962280  53.0851603  15.2131975  57.0403099  52.1095753  16.1666059
  17.7720428  10.1181030   2.8144047  17.4304605  11.0108042   2.7630430
  17.9225385   9.9726117   3.7484363  14.0229344  71.1295080   2.3456693
  14.7572076  70.5412531   2.5218320  14.2123520  71.4971590   1.4824295
  50.5191040  13.7034929  42.4067545  49.8018932  14.3350565  42.4612331
  50.3079319  13.0436981  43.0672884   7.0038378  52.2100449  22.3834682
   7.9156232  52.1696806  22.6719975   6.6769964  51.3175535  22.4968767
  25.9131074  13.3503783  30.9827948  26.5326738  12.6208222  30.9718800
  25.5033207  13.3036983  31.8465805  77.5874424  74.1312933  15.8714414
  78.3098602  74.7574663  15.9188926  76.8862247  74.6078300  15.4270983
  21.5061140  29.3100762  12.7227247  21.6093469  30.2613831  12.6984012
  21.7711949  29.0180135  11.8505645  71.9430399  46.6382504  17.1181917
  71.8833256  45.6853437  17.0501113  71.1505413  46.8948174  17.5897312
  39.1520548  74.3408775  20.3573322  38.6162519  74.0653086  19.6135533
  38.5631084  74.2865992  21.1099458  50.2818918  21.8392515  11.3710332
  49.5276403  22.1523094  11.8703651  50.9943676  22.4285793  11.6186297
  42.9968977  72.1022415  11.0987699  42.0617342  71.9061613  11.0417366
  43.4116316  71.4614916  10.5211318   3.2062635  59.2297411  21.2101579
   2.3858210  58.9003468  21.5770435   3.5242528  59.8569870  21.8595219
  26.4362645  25.7155347  39.7342825  27.0902395  26.3706732  39.9778914
  25.6155610  26.2051249  39.6797276  29.6078515   4.6582386  57.0774412
  30.4764867   5.0075722  56.8782711  29.6210551   4.5080587  58.0226946
  15.3823996  74.7973537  66.7745304  14.7071254  75.3136015  66.3343906
  14.8996723  74.2495489  67.3934937  11.5632844  58.1578732   5.1893771
  12.1638405  57.7293110   5.7992089  11.5828562  57.6068544   4.4069275
  35.9647369  35.5504394  66.2217474  35.8680439  36.3780642  66.6928291
  35.8930421  35.7908463  65.2980042  36.5306377  13.3329070  67.7896690
  35.9477210  13.8337004  68.3603239  36.2330246  13.5385382  66.9034576
  78.9465523  69.7281790  56.3833046  78.6570072  69.7228384  55.4709625
  78.3283567  70.3085709  56.8273878  17.0790350  77.1913862  67.5204754
  16.4793682  76.5220547  67.8500605  16.8477404  77.2861481  66.5964890
  45.3217793  23.5784626  66.3781404  45.7325315  22.7833867  66.0384798
  46.0527897  24.1093969  66.6943121  69.0364313  20.4839325  61.9739199
  68.7158871  19.6105111  62.1989107  68.2911730  21.0619926  62.1372318
   3.1402156  65.3443861  46.7221260   2.3933186  65.3396893  47.3207521
   3.4660271  64.4444942  46.7385912  71.3904572  24.0394592  49.7500563
  72.0802450  24.1933608  49.1045046  71.8078756  24.2156672  50.5932331
  72.3772240  74.6834183  29.1918039  72.2049665  74.4756413  28.2734418
  72.8330040  73.9127588  29.5303106  27.3317099  54.1069365  44.3216181
  28.0502605  54.6839476  44.5804071  26.8091059  54.0037251  45.1168919
  27.0747757   0.7490487  52.2457266  27.1589351   1.6052860  51.8261957
  27.3466945   0.1248930  51.5728807  48.0040789  15.1789856  44.0625715
  47.9814720  16.1316645  43.9724350  47.4644470  14.8572099  43.3404303
  69.1311455  67.8055286  32.1582508  69.3646526  68.0477428  33.0543756
  69.2949963  68.5971880  31.6457415  61.9072771  69.7226477   7.1745950
  61.6404390  68.8041019   7.1385247  61.6766930  70.0730085   6.3141835
  18.1506050  70.9000397   5.8064955  18.3222485  70.6676769   4.8939288
  19.0144765  70.9059000   6.2187141  28.1040215  12.0941651  60.8015776
  27.2461915  12.0586205  61.2247753  28.0434918  12.8357816  60.1994371
  58.1039190  61.4143038   8.5691214  58.3032417  61.2649822   7.6448894
  57.4777412  60.7259321   8.7933499  60.3737354  57.0527840   0.3829976
  59.6085262  56.4813995   0.4478429  60.3430128  57.5853586   1.1777642
  13.8637054  13.5460079  49.8476791  13.6347461  14.4550323  49.6540642
  14.7043812  13.6022937  50.3019094  44.0453672  56.2630033  26.7920303
  43.4664631  55.5765104  27.1234322  43.7488651  56.4137030  25.8944750
  39.8688149  77.8216219  24.5900750  39.1833925  78.0794811  25.2064633
  40.5420685  77.4161005  25.1364398  19.6735489   1.5652996  23.7318492
  19.9683535   2.4083780  24.0761471  20.0415421   0.9187240  24.3341398
  82.4314976  27.7019835  64.6662092  82.0631599  27.3476028  65.4755163
  81.6825867  27.7766609  64.0747833  53.9957905  27.9198742  13.4441316
  54.8014736  27.4061584  13.3875513  53.3575010  27.3222089  13.8335097
  73.8950920  49.6706057  15.3396595  73.5357428  48.7834358  15.3440344
  74.0088129  49.8783875  14.4122291  19.0599930  47.4863625   2.8825879
  18.3537781  48.1211853   3.0029601  18.8496339  46.7762280   3.4889635
  38.5140538   4.3775135  60.6897211  38.4416890   5.2201879  61.1379385
  38.3844256   3.7271664  61.3799953  66.4167261   6.5826041  34.2112112
  65.4645777   6.5826732  34.3094134  66.5759945   6.0660470  33.4212518
  32.5460052   2.2916310  61.0258436  33.1593871   1.8001552  61.5721464
  31.7775512   2.4177352  61.5824461  83.3042622  58.0328655  20.1719713
  83.8773155  57.5448751  19.5806134  83.7599564  58.0178881  21.0136080
  79.1942835  62.1344423  24.1667008  80.0348663  62.3195505  23.7478995
  79.1744232  61.1813498  24.2529869  47.8094864  17.4593675  55.9955835
  47.3943758  18.0246234  55.3441191  48.1228018  18.0616009  56.6703987
  54.8216915  26.5868616  59.9183702  55.3417253  27.1248198  59.3213844
  54.2714739  27.2137260  60.3879833  18.3248019  61.6523457  38.9202547
  19.0102732  62.0166636  38.3602262  17.8828394  62.4181747  39.2868686
  37.7030087   6.9427037  37.0504475  37.2935677   6.8333673  36.1921740
  38.6347508   7.0503092  36.8593693  40.7070923   3.7859315  56.4525652
  40.7144117   4.1133353  57.3519993  39.8282361   3.9876601  56.1313963
   2.9472640   5.5981684  67.8510952   2.8181076   6.2435699  67.1561050
   2.5029325   5.9729457  68.6115837  31.1046743  61.5618467  25.9564066
  30.1940203  61.8233442  25.8201647  31.1682105  61.3964844  26.8970704
  45.5191469  38.0474472  63.4169579  46.1089897  37.9767227  62.6664162
  46.1014032  38.1282187  64.1723967  53.3479738  17.7345765  14.0200984
  52.8235531  17.3505771  14.7227788  53.7207031  16.9820392  13.5607600
   8.0537963  17.9667437  58.5654974   7.5059593  18.4059417  57.9149532
   8.9306474  18.3216000  58.4190702  75.3297758  10.1484883  58.0714369
  75.3672504  11.1045015  58.1008482  74.8767281   9.9016339  58.8776875
  63.9016342  46.6909790  68.7594557  64.2779112  47.5604534  68.6228704
  63.1556988  46.6560459  68.1606340  42.6371431  51.2302017  21.7732954
  43.2521200  51.9636440  21.7632651  42.1165657  51.3432407  20.9780264
  19.5795941  23.7476325  30.9676147  19.1115308  23.1474614  30.3871465
  20.1949477  23.1896734  31.4432764  34.3891263  78.6720371  58.7419701
  33.9133716  77.8437948  58.8044786  34.5275974  78.9379072  59.6510172
  79.6789408  40.9945822  35.0597286  79.4494629  41.6559410  34.4069052
  80.4685402  41.3361406  35.4793763   4.6073049  72.1699095  48.3958340
   4.8257655  71.2379694  48.3954096   4.9421197  72.4947786  47.5600195
  61.0031700  78.6813879   7.3681849  61.7501307  78.3090162   6.8995416
  60.3403330  77.9910803   7.3493975  72.0151186  62.9202700  52.0329762
  72.9251528  63.2081079  51.9607401  71.5248489  63.7207842  52.2201681
   0.8956520  60.5456972  18.0715978   1.2665689  61.3386059  18.4588289
   0.3360730  60.1829720  18.7582803  67.9341555  37.4326873  40.8403397
  67.2418070  37.7632999  40.2679968  68.6102295  37.1170330  40.2407408
   5.3716391   1.9320746  59.9229383   4.6603730   1.3568595  59.6410513
   6.1692244   1.4758904  59.6546364  36.2220454   3.0229861  63.8732100
  35.8563876   3.2217139  64.7352076  36.0968947   3.8268352  63.3688354
  49.8954439   3.4053016  65.9186172  49.2134047   3.8668999  65.4307842
  50.0055981   2.5773263  65.4511166  25.8921385  65.1979303  37.8750348
  25.7286716  64.2548609  37.8862691  25.2381253  65.5471802  37.2696233
  33.3143020  12.1307969  68.2717037  33.0501366  12.8643548  68.8269854
  33.1109262  12.4186838  67.3817635  70.1742268  31.6893458  49.2821026
  69.9486828  32.2485900  48.5387230  70.4624748  32.2988296  49.9615669
  51.0216475  33.1800532   7.2292006  50.4424572  33.0762720   6.4742160
  50.5828238  33.8279724   7.7804434  25.2182579  19.7941399  51.4136839
  25.2272463  20.5720282  50.8559752  24.6668959  20.0386715  52.1569443
  30.0778127  26.3914871  45.9250546  29.6366906  25.6355596  45.5374718
  29.8439169  27.1237206  45.3546524  77.8523493  43.8892651   7.2580445
  78.7904882  44.0351152   7.1361417  77.5500774  44.6613741   7.7362800
  58.4987640  66.3073301  23.5140014  59.2715216  66.1612272  22.9683495
  58.4775639  65.5551004  24.1055536  79.6251345  23.8233232  65.6488991
  79.9159002  23.3534455  66.4305019  79.1883230  24.6047044  65.9878206
  28.4912252   9.0193158  65.0533104  28.2627511   9.9359870  65.2074099
  28.1661129   8.8363689  64.1718006  62.3155403  22.4036765  54.4578314
  62.9968357  22.1052122  53.8553476  61.6223860  21.7482471  54.3792200
  72.5518703  76.8591499  15.4892397  73.0350924  76.3249969  16.1196423
  72.5957584  76.3632154  14.6717107  71.1153650  21.6606927  41.3667679
  71.9145489  22.1809387  41.2838364  71.2528515  20.9155679  40.7818604
   9.7013444  53.1086493   2.3132983  10.1425946  53.7826300   1.7963062
  10.2054548  53.0615711   3.1256336  43.8036394  22.0716763  60.5794811
  42.9628038  22.2691512  60.1668882  43.6393595  22.1706057  61.5172768
  78.9184761  57.1945095  44.6289206  79.4933367  56.4652777  44.8612642
  78.6887693  57.5949764  45.4674339   2.1371210  35.8246493  44.0299559
   1.6386999  36.4291811  44.5798206   2.7394733  35.3917575  44.6349430
  32.8868484   3.4089679  14.4754910  33.3345318   3.8177767  13.7347555
  33.5388780   2.8187841  14.8533452  40.9798002   7.3995835  65.7252884
  41.1894321   6.4992374  65.4769707  40.9311247   7.3792869  66.6810369
  64.0057802  71.5436983  24.7540021  64.0975332  70.6891394  25.1753569
  64.9052715  71.8336868  24.6021557   0.7773683  19.5793808  42.8197670
  -0.0443338  20.0335026  42.6331949   1.3962394  19.9315155  42.1800566
  45.1515484  18.5309541  50.9939623  45.0754118  19.4714248  50.8328724
  46.0893774  18.3842051  51.1171389   4.7196901  47.8072786  15.7118416
   4.0254733  48.3924341  16.0149682   5.2912116  47.6996851  16.4721167
  19.3055069  75.7128048  15.3610671  18.8770545  74.9052000  15.6446743
  19.1866446  76.3170719  16.0938466  34.1329956  20.4208040  67.1870184
  33.8121128  20.7170749  68.0387735  33.8850975  21.1194301  66.5814590
   5.7369971  72.6703262  10.4000008   5.3736740  73.5556507  10.4206514
   4.9869272  72.0996523  10.5672133  42.1078300  15.7098150  52.0895767
  41.9168854  15.0850129  52.7891445  42.2924042  16.5309215  52.5455904
  39.5904922  73.4851313  51.7412996  39.3464518  74.1447306  51.0919857
  40.3749514  73.0722904  51.3801670  38.5706401  27.1823096  51.5614319
  38.8731170  28.0734634  51.7363167  39.2949128  26.7719388  51.0889339
  71.6896725  26.3824701  17.8712893  71.2055111  27.1110964  17.4827993
  71.2391472  26.2091684  18.6978638  27.3424220   2.6512870  57.5543165
  28.2008529   2.7642193  57.1461821  27.0721626   1.7680337  57.3032045
  77.8525543  44.8845339  41.1417198  77.3322392  45.6777573  41.0140419
  77.3560524  44.3726015  41.7801905  56.7555285  48.4025192  59.3827343
  57.4886894  48.8028431  58.9153481  56.6175795  48.9688873  60.1419640
  53.7774515  30.6941915  65.8820295  54.0865421  30.4259372  65.0167322
  54.5751762  30.7894588  66.4024019  29.3193030  75.7403517  53.1817532
  29.5387912  75.4427767  54.0646505  29.8725629  75.2119827  52.6064587
  63.9781713  26.5229797  42.9120922  63.4384346  26.6095781  43.6978483
  64.8776197  26.6050053  43.2291126  44.8986530  36.2173581  53.2278252
  45.4196787  36.4241529  52.4519396  44.0514040  35.9389281  52.8801537
  79.5261049  78.5195541   9.1960055  79.2878389  77.8456116   9.8326111
  80.4341316  78.7374210   9.4063687  61.4124918  47.2000504  49.4344854
  62.3645592  47.2362232  49.3423510  61.1883926  47.9945707  49.9189901
  42.2090864  18.6265004  58.5426188  42.5661850  18.8002813  57.6716900
  42.9394245  18.7930071  59.1385317  55.0563765  42.5863171  63.7206936
  55.0965071  42.0550013  62.9255056  55.8299971  43.1479645  63.6727762
  56.6759253   7.9035890  61.2973547  57.3289204   7.3866302  60.8255672
  56.2871122   8.4667337  60.6280804  25.5625820  21.2071300  66.6296387
  25.4581070  20.2556491  66.6302776  24.7091818  21.5419698  66.9050026
  69.6417141  71.5389395  30.8413339  69.0850830  70.7608223  30.8718896
  69.8504066  71.7202711  31.7577386  12.9318225   0.2978078   2.0630024
  12.5401115   0.4421543   2.9243729  12.3340547   0.7295355   1.4526603
  75.7996559  20.2483439  60.9325361  75.2038622  19.6117103  61.3274479
  75.2370071  20.9828329  60.6872082  50.3833866  36.2693477  46.3941956
  49.7215033  36.1897969  45.7073069  50.0302029  35.7645130  47.1267509
  10.0786161   6.6948885  39.7656727   9.2756182   7.0350105  39.3710279
  10.7827437   7.0674670  39.2349911  57.3641968  39.0877056  65.0961924
  56.4352751  39.1839933  65.3061152  57.4619532  38.1653428  64.8597193
  66.2345982  17.3576975  14.5800734  66.1977291  16.8287277  15.3769815
  65.8392668  16.8041265  13.9066470  73.0353546  79.5894814  28.6218429
  72.8954172  79.0061235  29.3677258  72.6143217  79.1436958  27.8868318
  21.9907761  64.6425295  40.9825945  21.3928771  64.1280937  41.5249109
  22.7668190  64.7631168  41.5298176  53.6999989   9.7355795  36.9872713
  53.8265944   8.9802408  37.5614405  53.9743614  10.4858804  37.5145364
  82.9131985  13.7003183  65.1051760  82.4311447  13.2915246  64.3863249
  83.0040359  14.6162271  64.8423290  50.9858656  20.5192471  53.9148140
  51.4906883  21.2414050  53.5408163  51.0020924  19.8408282  53.2397461
  58.2803822  30.0411654  50.2365923  58.3613253  30.3930187  49.3500948
  57.4427223  30.3794622  50.5529928  83.3295536  79.0092707  13.0719352
  83.7575912  78.2760048  13.5139060  82.4318314  78.9979935  13.4039080
  37.8735399  19.2787468  53.6579800  37.4514174  19.7060061  54.4032955
  37.1815944  19.2051089  53.0006981  57.7876282   0.2785191  62.7792072
  57.0985079   0.9246715  62.6248360  57.4699354  -0.5171107  62.3522711
  47.8557730  57.9802656  26.2866950  48.7191296  58.1502438  26.6634536
  47.7269745  57.0383549  26.3982749  44.7099161  27.2641945  45.4877806
  44.9186134  27.7923203  46.2583399  43.8975811  27.6423335  45.1511002
  32.8357267  75.5122089  41.8892002  32.5166011  75.3176403  42.7704144
  33.6817122  75.0674200  41.8371964  11.1045420   1.2675834  10.1522481
  11.8272257   1.8849528  10.2654529  11.1930847   0.6582084  10.8850873
   7.0741129  49.3360996  39.6084809   7.3664629  50.1205730  39.1444087
   6.5308505  48.8702583  38.9727974  14.9316251  54.8077869  20.5517077
  15.3234792  55.6798744  20.5979848  15.3042555  54.4194698  19.7601342
  34.4574761  78.1847811   5.0136554  35.3409624  77.9504299   4.7294655
  34.5923805  78.8302469   5.7074904  63.8511515  36.3705754  31.3535428
  63.0635452  36.6581917  31.8152595  63.8095760  35.4146886  31.3815308
  49.6369743   7.6968080  50.0040197  49.2289162   6.8924040  49.6836233
  50.1978636   7.4102062  50.7247829  31.9244719  37.2862768  60.0514126
  31.0254645  37.3897958  59.7394800  31.9633365  37.8135467  60.8493519
  83.7919903  13.3093488  67.9155397  83.8492775  13.4687841  66.9734478
  84.5641804  12.7805555  68.1163597  53.7564182  50.5063486   1.0475853
  54.3728161  49.8892212   0.6533319  53.7421560  51.2491655   0.4440537
  69.7382736  25.7141614  68.5569668  69.7156572  25.8901620  67.6163578
  68.8871765  25.3196716  68.7473536  40.3687525  25.2099466  54.1895819
  39.7884917  24.7645760  53.5721874  40.0126219  26.0959077  54.2565203
  70.9165430  57.7584076  66.5368986  71.5572691  58.4691858  66.5146923
  70.1198673  58.1646824  66.8781948  41.1954498  32.2211242  65.8583879
  40.9237003  33.1207681  66.0401249  41.9489145  32.0781755  66.4311790
  73.9844084   5.6478024  66.7557907  74.3899727   6.2643826  67.3653650
  74.3787098   5.8543879  65.9083939  42.5710964  28.0273390  67.6596308
  41.8630171  28.5719371  68.0035305  42.5447750  27.2341800  68.1948280
  38.3997393  20.6689572  67.0520782  39.0137839  20.0091887  67.3743963
  37.5922394  20.5024624  67.5383425  83.3090973  29.5593691  62.4679852
  83.7395191  30.2684593  62.9456425  83.2121468  28.8597322  63.1139994
  37.4372005  27.7769113  61.4874554  37.3998737  28.6270809  61.0492182
  37.1916223  27.1471238  60.8097458  76.2488794  54.0736151   4.3928269
  77.0527077  53.9128494   3.8986102  76.4671230  54.8014832   4.9749029
  46.7758656  37.1839714  51.4442492  46.8579674  38.0455303  51.0353374
  47.5296021  36.6916871  51.1190271  37.6028943   7.8394759   5.4809761
  37.7947068   8.3395541   6.2742996  36.6866994   8.0384880   5.2880615
   1.7479020  18.8776255  68.5206556   2.2843064  19.5219684  68.0587816
   1.3951775  18.3189785  67.8280258  67.0700502  28.6700559  66.9759941
  66.6042280  28.4473777  66.1699867  67.3259783  29.5850515  66.8597317
  16.8144214  68.5900927  17.0109570  16.5675890  68.1295490  16.2089562
  16.8246257  67.9098463  17.6843035  45.8883142  37.2690701  59.1901350
  46.3143778  37.2748756  60.0472641  45.9571648  38.1728077  58.8823175
  34.6870995  21.0529852  52.3948574  35.0444484  20.4410315  51.7513943
  33.8099289  20.7186341  52.5819874  68.4175444  41.8461037  60.3032637
  68.7988186  41.0693836  60.7126188  69.0551233  42.5408745  60.4676437
   1.2378293  48.9993525  61.6528463   0.9514725  48.4771252  60.9035015
   1.3822575  49.8747253  61.2935448  63.5012197  20.0960827  40.7248878
  63.3524513  20.3845859  41.6253710  63.1193876  19.2191064  40.6881809
  14.8638797   8.0024487   7.0435572  14.0831757   8.5322100   7.2050726
  14.6449769   7.4829453   6.2699747  25.9977221  27.0584059  59.1731453
  26.0683656  27.9836059  58.9381075  25.7240129  27.0645165  60.0903559
  59.1437674  67.1943855   9.7045094  58.7975597  67.7361393  10.4136443
  58.4439182  67.1784973   9.0516752  53.9642525   5.7883078  36.0863400
  54.7243595   6.1019152  35.5963230  53.2184744   6.2296462  35.6798100
  76.0876513   6.1668313  61.0928535  75.7238007   5.7796782  61.8890667
  75.3555012   6.6440302  60.7023764   6.0302860  71.5229607  16.9292879
   6.4485466  71.0293770  17.6347411   6.7438447  71.7291641  16.3255131
  45.9183455  78.1531906  24.8766041  46.5318537  78.8877153  24.8942780
  46.3493538  77.4941635  24.3324161  17.9728556  36.2895918  19.9354208
  17.5296509  37.0320559  19.5248735  17.6260293  36.2669349  20.8272886
  59.2336273  23.5957003  38.7008643  59.9676561  23.6379695  38.0879593
  58.4565687  23.5699058  38.1425214  29.6940899  30.9103441  65.3986549
  28.9922214  30.3089643  65.6475687  29.9006057  31.3840342  66.2043858
  -0.0739763  29.0086055  20.8119941   0.2497839  28.9423299  21.7103362
   0.2332136  29.8630834  20.5091166  25.7194495  46.4037991  67.7698374
  24.7696996  46.3376665  67.8690004  25.8944440  47.3448324  67.7614832
  61.0731936  28.6288595  56.3102961  60.9257603  27.7461624  55.9706736
  61.7361736  29.0014887  55.7290554  61.6533899  65.2706051  22.4838257
  62.2878122  65.5913305  21.8428326  60.9169340  64.9599743  21.9571614
  31.2278914  13.2934403  44.8111439  30.7829189  12.9577291  44.0329885
  32.1099353  13.5091519  44.5083284  35.2192760   3.8886774   5.2570122
  35.1692224   3.8935131   6.2128901  35.7971978   4.6213073   5.0437248
   1.9450808   3.4331766  28.6959815   1.4895852   3.4324667  29.5378566
   1.3091737   3.7969214  28.0799103  69.8298645   0.4862481  30.5832458
  69.6675396   0.3706611  31.5194750  70.7355404   0.2018808  30.4602861
  61.6185331   5.6736183  38.5694933  61.1577559   6.1955011  39.2264247
  62.5347042   5.9379452  38.6531258  61.5497637  67.2734261  13.6329520
  61.6086960  67.3365545  12.6796556  60.6853437  66.8955898  13.7949824
  77.2956419  51.6999006  29.0635371  77.9081154  51.2818575  29.6688056
  77.8392124  52.2918272  28.5435534  30.7827878  70.0385618  56.3761854
  30.7584953  70.5909061  57.1575642  30.1879191  69.3155861  56.5753412
  59.9935579  16.4275050  63.2090759  60.1167440  16.1648667  62.2968912
  60.3159523  17.3280764  63.2446480  13.2732522  39.5632648  44.5561409
  12.8607631  40.1976490  45.1423550  14.0508604  40.0129938  44.2255354
  67.9215193  29.9996734  57.0960236  68.2912016  30.8289313  56.7928743
  68.6766052  29.5002413  57.4069071  73.2786608  22.7929568  39.7413421
  73.6358500  22.0517969  39.2521310  72.8880548  23.3554649  39.0725780
  13.1971157  44.5728159   9.3239570  13.4657371  43.8334322   9.8692918
  13.0192721  45.2776146   9.9467427  61.9222355  47.7156925  42.2329378
  62.1895933  46.9145250  41.7825079  61.7922688  47.4471426  43.1424522
  54.7758865  17.3236203  53.1955528  55.1265621  16.6834426  52.5763321
  54.6069241  16.8193686  53.9914274  71.2497425  75.1758718  17.8620839
  70.7853079  75.2295685  18.6973381  70.6373358  75.5412769  17.2235930
   7.3863667  72.6367760   5.2889168   7.6448500  72.7510118   4.3743855
   6.5179384  73.0355644   5.3439653  19.5718908  49.2969370   5.7255054
  19.3234348  48.7429905   4.9854741  19.0434802  50.0881290   5.6204712
  28.1140614  24.1184974  44.4550896  28.8125730  24.6140218  44.0275717
  28.1818604  23.2392049  44.0829611  57.5082541   2.6009324   1.8100421
  58.0410290   1.8379545   1.5858847  58.1448555   3.2882974   2.0062546
  15.1173508  55.4849672  10.5096078  16.0492587  55.6296396  10.6734633
  14.8055577  56.3155985  10.1503396  65.8911324   9.2648530  19.6609640
  65.1810884   9.8980725  19.7663367  66.6491890   9.6852589  20.0669742
   3.8425714  32.1576858   7.7047342   3.1463322  32.1247864   8.3607829
   4.4334307  32.8430986   8.0167073  57.7737951  35.3279448  57.4634123
  57.2805738  34.7579956  58.0534315  58.1530237  34.7326708  56.8168354
  43.7987661  27.6213670  52.4599648  43.5918808  26.7064524  52.6506567
  42.9569626  28.0141902  52.2291327  10.6467533  60.5354261   0.6479094
  11.1122847  60.5607224  -0.1880766  11.3132811  60.7520390   1.2998693
  62.9838371  31.6018581  52.8905058  62.7174902  32.1927333  53.5948896
  62.2620869  31.6368747  52.2627401   4.2844504  60.7248449  23.3386230
   4.7010005  60.0342846  23.8542223   3.5983339  61.0696554  23.9100957
  31.1974239  71.0483265  11.3693142  31.4601016  70.3158236  10.8119357
  30.3160024  71.2723923  11.0707772  18.7717676  27.6897025  56.6854477
  19.4041562  27.8913188  57.3751307  18.5252154  28.5433865  56.3295412
  13.7849104  48.7913275  16.0773122  13.6504102  48.3892345  16.9354868
  14.2733550  48.1356955  15.5795217  70.9432793  28.9681339  66.5457010
  71.7750835  29.4095254  66.7174673  70.4596472  29.0399075  67.3686123
  42.4646950  26.8690991  63.6166668  42.7682304  27.7365112  63.3489084
  42.6114178  26.3164854  62.8489923   9.1546762  56.6089106   8.9423168
   9.3353891  55.8717012   8.3591396   8.6603487  57.2257423   8.4025085
  56.3027143  40.2477741  54.8255301  56.6749001  39.5375943  54.3026972
  56.6923904  40.1364040  55.6927013  47.2897243  11.5852296  66.3083935
  46.4269638  11.9521821  66.1154842  47.1103382  10.6903219  66.5968275
  67.2769451  36.5376186  52.2156525  67.3765516  37.2750807  52.8176975
  66.3801479  36.2336326  52.3555851  48.0618572  20.3622532  49.3871880
  48.6159992  19.7512054  48.9016199  48.1601286  20.0993562  50.3023195
  49.6443272  11.1990857  47.8503704  49.8931360  12.1218514  47.9035521
  49.2811680  11.0992742  46.9703770  58.0624199  48.3445215  14.7431624
  57.2802973  48.4814215  14.2085791  58.1603289  47.3932695  14.7851813
  59.2348099  21.4278674  51.2936449  58.2949400  21.2491918  51.3245678
  59.6167469  20.6362844  50.9144974  21.4819670  50.7753754  24.9339986
  21.0946417  51.6328907  25.1097345  21.4865589  50.7057381  23.9793468
  27.8332376  72.0528460  45.7132721  28.2640553  72.9075766  45.7054853
  27.0136809  72.1933889  45.2391338  82.9461670  56.2584209  22.7872086
  83.1024265  55.5972958  22.1128750  83.6882114  56.1704206  23.3854175
  63.0912256  15.6610441  43.9461422  63.9402533  15.2914429  43.7037039
  62.4625349  15.2030945  43.3882380  19.2747140   2.6823616  27.9824662
  20.1221514   3.0994594  28.1377459  18.7556386   3.3527353  27.5381780
  80.7906342  57.2287655  20.3020215  81.6934681  57.5412178  20.3611970
  80.4858208  57.2039843  21.2090564  29.7596288  15.2855361  49.1173315
  30.0508428  14.5287466  48.6087084  30.3026056  16.0085356  48.8032007
  63.4946442  35.6367517  44.6934032  63.9075422  36.0273886  43.9232349
  63.8712597  36.1119938  45.4340363  15.7556880  63.0740690   7.6268882
  16.1943305  62.8781557   8.4548026  15.3839910  63.9470243   7.7534759
  72.1191597  71.1035013   8.6370605  71.6893196  71.5016556   9.3939924
  72.8480339  70.6070471   9.0092236  48.7122059  33.1106663  69.0953636
  48.4938049  32.3885179  68.5062695  48.8544893  33.8584876  68.5150576
  21.6408420  17.1534407  41.8912745  22.0422792  17.8818023  42.3651600
  20.7154036  17.1915865  42.1328068  29.1764069  32.9099822  34.6290541
  29.6600652  33.7114096  34.4290066  29.6171880  32.5500226  35.3987122
  75.0939512  53.9589214   7.5345939  75.6064987  54.7672653   7.5446457
  74.1830111  54.2528820   7.5362581  69.8906946  46.0496855  47.7416945
  70.2824974  46.5243387  48.4747887  69.3717003  46.7082262  47.2799540
   8.4560376  65.3260756  42.6271963   9.3443346  65.1319742  42.9263306
   8.1695908  66.0515070  43.1821108   2.4522564  75.8754683  50.0408077
   3.3448923  76.1672068  50.2260637   2.5573310  75.1812696  49.3902111
  53.6757135  11.6041636  63.5578728  53.7676191  12.4048734  63.0414915
  53.1261539  11.0340893  63.0200672  38.3816409  14.7351098  14.3238997
  37.5113845  15.0918233  14.1460216  38.3637619  14.5129931  15.2548003
  28.1862569  33.7186813  65.6899691  29.0102053  34.0834188  65.3670025
  27.8630900  33.1803846  64.9674511   1.8008001  53.3540821  66.5037060
   1.1245094  53.5910797  65.8691263   2.2588867  54.1751099  66.6834211
  55.6703568  23.3067131  65.8466291  55.5797291  22.3538971  65.8339643
  56.3597155  23.4902430  65.2084017  11.0444546   3.2736373  21.1079431
  11.5766156   2.5459301  20.7862616  10.1409733   2.9836029  20.9821129
  64.5037317   7.0312178  19.0896058  64.8569441   7.9181463  19.1591060
  65.1539946   6.5541685  18.5740316   9.1393030  24.5844603  31.7416072
   9.4833338  23.7713766  32.1114302   9.5839173  24.6710110  30.8983636
  59.2981958   4.5665893   2.0236561  60.1777172   4.8247913   2.2993518
  59.2920446   4.7101030   1.0772957  13.9964402  34.5286727  53.8669777
  14.2356384  33.6018467  53.8697767  14.5402431  34.9143076  53.1801033
  42.4846745  16.0352457  35.8448291  43.1804705  15.5487740  36.2869215
  42.7430344  16.9530201  35.9295321  65.7957458  66.6300440  10.2914536
  65.0336504  66.2034225  10.6831646  65.7376623  67.5396442  10.5838275
  76.0176373  10.5474138  41.8766260  76.5144205  11.2464011  41.4513493
  76.5185499  10.3440094  42.6665306  53.6318588  49.3516541  55.9639168
  53.2175732  48.7892103  55.3095007  54.0017796  48.7428808  56.6032791
  59.3145418   7.6913708  42.4800634  59.3811083   8.6450475  42.5280333
  59.0325832   7.4266142  43.3556414  22.0837569  53.7744427   7.6223087
  21.2375784  54.0395689   7.2618586  22.2006965  54.3303490   8.3927149
   5.7405287  14.9548078  20.8471084   6.2822515  14.2555022  21.2128115
   6.3510805  15.4910994  20.3412938  14.9216771  55.9398937  60.2494526
  15.2834189  56.3093281  59.4439173  15.3524888  55.0896788  60.3376007
  83.2289886  64.4282389   5.3226352  83.4344006  65.0056458   4.5873514
  82.2754860  64.4659424   5.3976768  20.5221963  65.2139235   0.5453394
  19.6223891  65.2494860   0.2208218  20.4889417  65.6579399   1.3926736
  60.4276562  38.5088444  48.0873299  61.1537027  38.4894156  48.7107944
  59.7168875  38.9411330  48.5607958   6.9149727  58.1594086  25.5301499
   6.9977599  57.2815514  25.1576614   6.8182254  58.7337542  24.7705483
  46.4227867   7.5323051  36.1298418  47.2267342   7.9793352  36.3945365
  45.7449389   7.9044873  36.6939616  10.6303620   6.0304743  62.3115349
  10.7400846   5.9042811  61.3690567   9.9673462   5.3877640  62.5636530
   2.7652869  60.6032085  49.2294121   3.1982052  60.2032661  48.4751844
   1.8349889  60.4219770  49.0955019  49.5666790  14.9396050  53.5791874
  49.4680595  15.8715057  53.7742901  50.2025175  14.9105573  52.8642750
  58.4495878  15.0628591  57.4522495  58.9152002  14.9998093  56.6183090
  58.8048792  14.3473983  57.9796219  13.5480165  67.4135447  57.0455074
  12.9070961  67.4665308  57.7544832  13.2158387  66.7216206  56.4735556
  68.4779215   9.7285128  38.8589454  68.9974689  10.0241268  38.1113386
  68.8086271   8.8504243  39.0482211  62.9950571  43.5554504  47.2741604
  63.7401152  43.4443569  46.6835833  62.4030256  44.1432619  46.8048954
  62.2968864   9.0723741  56.6736937  62.1492434   9.7842067  57.2963715
  61.8061495   9.3309152  55.8935881  81.4192772  24.9178624   3.9848614
  80.6946850  25.0277805   3.3691359  81.2343025  25.5423069   4.6863499
  74.6276236   4.5376214  13.9384592  73.8485479   4.0741396  13.6311173
  75.2836466   3.8507783  14.0572464  66.4981222  11.0489178   0.8977692
  67.0032644  10.2900398   1.1896051  65.7996893  10.6785703   0.3580816
  18.1289148  44.9641943  19.5650458  17.5648046  45.1474857  18.8137710
  18.0927122  44.0129519  19.6653128   3.6951426  44.6846342  16.5503311
   3.4447995  45.5717611  16.2923336   2.8640553  44.2408180  16.7193139
  75.2068949  49.8976088  26.5523362  75.5487061  50.6594086  26.0842991
  74.2771053  49.8748255  26.3260627  51.8320656  38.5674262  47.0677042
  51.2347269  37.9012322  46.7276955  51.8852186  38.3850884  48.0058718
  40.9034348  25.2848315  48.8968563  40.6229258  26.0659885  48.4200525
  41.8552017  25.2714825  48.7958860  68.1988192  41.1717987   7.6555395
  67.9589224  40.5110264   7.0058757  68.8319254  41.7312527   7.2056276
  49.4429493  11.9371617  55.7812929  49.0916109  12.1235847  54.9106407
  49.0167284  12.5754452  56.3532734  53.1417513  66.0412216  26.7085838
  52.9333591  66.8884993  26.3149786  53.9401484  65.7595348  26.2619829
  28.2663131  19.4514799  57.1642542  27.7324843  19.9825490  56.5733004
  28.0793977  19.8012948  58.0354166  74.1753483   7.6213318   9.5954013
  74.6672010   7.0009595   9.0573925  74.2607212   7.2849369  10.4874682
  26.2805963  67.4029922  46.3688517  25.9525895  68.2061243  46.7733526
  25.5860400  67.1374512  45.7660961  46.7023897  74.2719936   7.2901624
  46.7207718  73.8258886   8.1368542  47.6032925  74.2178297   6.9712943
  71.8105173  48.9204073  64.4478941  72.0883512  48.9983273  63.5352230
  72.0664072  49.7515011  64.8479414  58.2028341  23.7959576  47.4006271
  57.6872396  23.5390902  48.1650972  58.1689262  24.7525549  47.3992872
  26.3483286  14.8745155  26.0124898  27.1181560  15.0955236  25.4883218
  26.2001896  15.6469822  26.5580010  20.1861525  62.5143194  21.1767197
  20.1956606  63.2771873  20.5986404  19.8707318  61.7990971  20.6242704
  66.9325209  52.8512335  17.1677613  67.5350523  52.5909567  17.8644979
  67.5006485  53.1704712  16.4666557   2.0637053  73.0298138  11.5820479
   1.2555525  72.8351688  11.1074603   2.5697115  73.5752153  10.9797812
  76.4557266   2.5841582  14.7441733  76.5915298   1.7215112  15.1361299
  77.2792387   2.7756670  14.2954171  73.1458664  14.0931106  61.1817837
  73.3653402  13.9856541  60.2563047  72.2558737  14.4454217  61.1775446
  31.4793420  58.5614967  44.6802139  31.6669726  59.2384148  45.3304577
  30.5248880  58.4890604  44.6784592  12.4950182  55.7962894   9.1958582
  12.8172183  56.0664701   8.3359623  12.1790421  54.9025297   9.0632552
  25.6049037  15.5851603   5.0412416  26.3619781  16.1060297   5.3091329
  25.5026627  15.7734299   4.1083258  68.1305552  56.2294149   4.9258119
  67.5492859  56.9880247   4.8722398  68.3592033  56.0381651   4.0162101
  12.5291944  36.8788552  44.1942930  13.1054974  37.5935745  44.4649982
  11.6516042  37.1735358  44.4376659  51.7248678  40.4641151  56.1999226
  52.4616241  40.1969671  56.7495155  51.0071898  40.6106949  56.8161058
  16.3147140  45.5554771  14.5259941  15.8084691  44.8074865  14.2090452
  16.9408941  45.1767349  15.1429904  58.6486816  29.1218114  10.5112314
  58.6738443  29.7447252  11.2375760  58.1083155  28.4002686  10.8331096
  47.6966476  26.6107464  63.6825132  47.3439407  27.4098349  63.2909966
  46.9497490  26.2136722  64.1305161  65.6861448  53.3035517   2.4676548
  64.9087572  52.7514505   2.3835129  66.0865736  53.0292463   3.2926682
  19.4102085  58.5689306  16.7700469  19.2399466  58.0083036  16.0131180
  19.1361535  59.4416714  16.4881730  52.7847099  30.6502438  35.7279587
  53.0419683  30.2164245  34.9144173  51.8461037  30.8092642  35.6281590
  59.5845509  68.6396646  59.9380159  60.2448750  69.0774918  60.4751492
  60.0894833  68.0924606  59.3364859  10.6389892  50.7078362   5.3206044
  10.2525902  50.2759981   6.0824722  10.6016374  50.0489521   4.6272743
  64.4493771  59.0305710  40.9968901  64.7591877  58.3535767  41.5984964
  65.2059269  59.2232752  40.4430580  80.3582191  71.4331245  60.8127689
  79.6190262  71.9322491  60.4653358  80.1446152  71.3003397  61.7363310
  67.5960779  29.9775767  43.4901381  68.4103298  30.4735065  43.5754633
  67.8497267  29.1782141  43.0287170  83.6627102  13.6038435   6.6826397
  84.0344429  12.7270663   6.7791414  83.0849743  13.7036574   7.4392658
  76.5798044  45.9807253  46.0740471  76.4379311  46.6538715  46.7396164
  76.2247801  45.1811886  46.4625454  45.2097702  33.9593410  61.5645456
  44.5469284  34.5754910  61.2527323  44.8778963  33.6582923  62.4103975
  64.1816759  74.9355078  43.0089617  64.9709177  75.4770613  43.0023432
  63.6169910  75.3431463  43.6656189  25.0558352  30.2347946  24.2789841
  25.7460833  30.6887579  24.7624159  24.4192266  30.9188008  24.0713906
  72.9657269  21.1342955  57.5264740  72.7389097  22.0404029  57.3172903
  73.5830593  20.8776617  56.8414402   2.3356692   3.5683230  16.2039125
   2.6570961   2.8968528  16.8056130   1.9808353   3.0763638  15.4634380
   7.3208266  34.9171019  45.1369905   7.7410555  34.2756057  44.5641708
   7.4279410  34.5581126  46.0178328  49.2735100   2.5258368  57.9346609
  48.7316656   2.0274484  57.3229027  50.1215076   2.0820916  57.9198456
  26.6616988   0.0836190  29.8989964  25.8109689   0.2381972  30.3095984
  26.5139484   0.2569036  28.9692783  32.2494173  64.8011351  28.4442830
  32.1930504  65.4373550  27.7313471  31.9237280  65.2717209  29.2115545
  74.8831224  31.4252448   2.8634894  74.1156387  31.7016029   2.3626605
  75.1822853  32.2216249   3.3022547  70.5152655  71.2585497   0.4815263
  69.9029398  70.5746126   0.2103821  70.1372385  72.0682335   0.1383976
  63.3610821  78.7999153   9.8650473  63.7468100  77.9483986  10.0708723
  64.0492725  79.2661905   9.3904829  62.9704094  42.4108410  11.3438034
  62.1862841  41.8619013  11.3507271  63.0678368  42.6777840  10.4297578
   0.7493239  63.4409571  29.3851376   1.0981006  63.4166574  30.2762032
  -0.1567220  63.1454229  29.4744301  46.9975853   0.5178598  18.6160398
  46.8923426   0.6612529  19.5565689  47.8123617   0.9688349  18.3946991
  57.9300880  34.1639018  67.2978020  58.3805323  33.3553624  67.0536757
  58.6100340  34.7051001  67.6990652  69.0351534  47.5213528  57.0329809
  68.7473679  48.4145308  56.8441868  69.5862150  47.6066780  57.8109789
  11.8176949  29.7341442   7.7262521  12.5982201  29.3263602   8.1013834
  12.1377492  30.5447078   7.3302925  80.5400276  21.8057871  67.7304888
  81.1992741  22.3626590  68.1446457  79.8473644  21.7263389  68.3863306
  62.8258848  29.6426821  45.7073402  63.6375809  29.6042919  45.2014685
  62.5148726  30.5407405  45.5933523  25.3960514  22.6030803  44.9279833
  25.6299520  23.4784460  44.6193504  24.8897457  22.2232819  44.2099047
  29.7784638  22.1780705  22.5777102  29.8152328  23.1118369  22.3704457
  29.2546153  22.1306896  23.3774400  49.5665932  61.2485361  29.3480062
  50.0989485  62.0235634  29.5273495  50.0545454  60.7731628  28.6755824
  35.2622581   3.2365471  45.1525927  36.1182117   3.4944665  45.4947186
  35.4496694   2.5036120  44.5661497  83.5338020  33.1586909  35.4407454
  84.2668915  33.6990023  35.1459885  83.7147617  32.2913074  35.0786281
  42.9367781  75.5573559  20.3259134  42.6120806  74.7444248  19.9386835
  43.7908268  75.6936455  19.9157226  79.8902035  32.2984028  64.7186613
  79.5818806  33.0250859  64.1772795  80.3066921  31.6985750  64.0998125
  21.0259342  -0.1244058  20.7769608  20.4735303   0.5221149  21.2163830
  20.5193806  -0.3902056  20.0095057  32.5441909   7.2874987  27.4483323
  32.0595956   7.9990703  27.8667378  33.0718589   6.9106412  28.1524467
  78.2566833  58.5395622  46.9674826  79.0319967  58.9377928  47.3631239
  77.6747704  59.2774820  46.7855978  28.8865638  65.3926992  19.7344422
  29.3402100  64.5753479  19.9402893  28.1231046  65.1211309  19.2249167
  57.2652245  48.1847715   5.3016043  57.5079727  48.5106230   4.4349274
  56.6616631  47.4629688   5.1257008  18.9178085  34.0346456  32.3945332
  18.3850861  34.6323824  31.8699861  18.3234656  33.3188486  32.6195312
  75.7909107  34.4393826  50.9240437  75.3777647  33.9143085  50.2385902
  75.2905416  34.2375636  51.7146969  51.4077759  67.3189497  55.4876995
  51.2661219  68.2359838  55.7226658  50.8851528  67.1910667  54.6960258
   6.6770291  78.8375902  43.3738422   7.4950767  78.3478403  43.4585428
   6.2655002  78.7672853  44.2351961  37.9786777  40.7449293  61.7550564
  37.1303487  40.9052658  61.3416958  38.5834193  40.6264210  61.0226107
  55.9727001  71.8552637  57.8937244  56.7150259  71.4615107  58.3521414
  56.3150883  72.6790524  57.5467634  75.6528425  42.0029449  35.7699084
  75.1853228  41.8437767  36.5898609  74.9681902  42.2481537  35.1475310
  43.8090086  29.2432642   1.1130138  43.7878752  28.6062050   1.8271138
  43.9379597  28.7154889   0.3249431  82.1543789  78.4156799  10.2387476
  82.5395012  78.8354826  11.0079563  82.1813297  77.4798298  10.4379547
  68.3058357  69.0283346   3.7887138  68.4890795  69.9155140   3.4795770
  69.1262197  68.5537577   3.6546493   6.1853850   0.9846157   2.5667354
   5.3742826   1.4725699   2.4244487   6.2642586   0.4213757   1.7968190
  17.1314394  51.0235691  11.5447092  17.4923563  50.3258133  12.0916188
  16.5988457  51.5464163  12.1440446  28.0502224  60.6257629  32.9684758
  27.3096657  60.1780272  32.5594020  28.7529588  60.5668306  32.3212361
  82.8375149  76.4526272  19.5972049  82.2257328  76.4981651  20.3319764
  82.5275517  77.1206331  18.9857125  61.9918823  29.4496536  61.1790323
  61.1609888  29.7207499  61.5693521  61.8647480  28.5259533  60.9625816
  77.0477295  31.1610150  65.8949518  77.6861382  30.7902336  65.2857018
  76.7982292  31.9969749  65.5010605  60.6119490  26.4766145  54.7405720
  61.4568424  26.0268044  54.7331905  59.9653864  25.7726765  54.6890211
  25.2775097  45.3187227   0.7447146  25.5991793  45.6798029  -0.0813500
  24.3660927  45.0871038   0.5661003  11.4742565   0.5635162  51.1222935
  12.0776832   0.7498275  51.8415928  11.2270069   1.4255752  50.7876968
  75.9272337   8.2979786  22.2091007  75.9723902   9.2465198  22.0888424
  74.9976921   8.0888712  22.1171403  25.1750064  40.3556442  26.2549829
  24.2745638  40.3812599  25.9312844  25.5050588  39.5010710  25.9774971
  71.6371822  25.2218890  65.8026028  71.3114262  24.3821239  65.4787016
  70.9743404  25.8567834  65.5309725  75.4339695  76.9326353  54.6573973
  76.2216187  77.3235846  54.2792463  75.4307699  77.2320557  55.5665541
  36.5924263   9.1133112  15.1135063  36.3983274  10.0406504  14.9771225
  37.3372364   8.9374238  14.5385706  60.3791761  70.5056047   9.3967962
  61.0101366  70.3766680   8.6886334  60.7576323  71.2042713   9.9305272
   3.1058377  31.3512611  59.1831398   3.5690391  31.8043327  58.4785795
   2.9484075  32.0287824  59.8407221  63.7413979  40.3611708  46.6762114
  64.4459963  39.7135401  46.6950274  63.9396620  40.9519815  47.4027538
  72.4898243  14.7838271  30.7922077  71.6070604  14.4230413  30.8746648
  72.7274561  15.0414109  31.6829443  63.0201721  41.5320492  56.6100740
  63.7883997  40.9660053  56.5348577  63.3601761  42.4165201  56.4746475
  44.2113686  64.1269684  44.7902632  44.9347401  64.6306467  45.1634598
  44.6354342  63.3967400  44.3395185  50.3621769  61.8339682  51.7658663
  50.3305149  61.1599016  51.0869932  50.9052706  61.4533997  52.4561214
  70.5344915  55.9963703  52.4140882  70.8256149  55.0887251  52.3265743
  71.1281538  56.3769627  53.0613470  59.9667025  30.3890085  63.0916262
  60.7911253  30.3304911  63.5744667  59.4612265  29.6321797  63.3881569
  62.1781158  66.4478064  42.7507162  63.0377054  66.7668486  42.4758530
  61.7014742  67.2364759  43.0096388  55.9121609   8.2177895  50.3308058
  56.3274813   8.8923478  49.7934866  56.6383076   7.6738596  50.6359005
  83.4784412  72.1253204  28.9060044  83.6004257  72.9007435  29.4537902
  84.3625736  71.7822266  28.7762594  62.2097683  44.2590475  49.9410725
  62.5108385  44.0452957  49.0579510  61.9957352  45.1911974  49.9020863
   7.8299141  64.3607044  59.1012001   7.1361506  64.7590780  58.5756302
   7.8868175  63.4607506  58.7801504  55.9527397  68.1647301  67.6615572
  56.3741112  69.0053034  67.4823427  56.6453123  67.6265335  68.0448580
  73.8108969  25.7331562   1.1643744  73.1195784  25.2618694   1.6293441
  74.3494511  26.1139822   1.8580335   5.2425599  50.6448889  63.6780977
   4.6818614  50.7334948  62.9073811   5.1325965  51.4701366  64.1504383
  82.5019550  50.7449579  46.0620403  83.1553936  50.2801800  46.5847635
  82.8223324  50.6770849  45.1626062   1.9471408  32.0156789   9.6273029
   1.5956649  32.9059100   9.6136588   1.6267417  31.6442490  10.4492617
  55.2595949  53.8855267  64.9703932  55.5406713  53.4093094  65.7517052
  55.9203100  53.6745834  64.3107033  29.4562674  60.4584885  67.6098824
  28.7970948  59.8789024  67.2280407  30.2147675  59.8937416  67.7581072
   4.5540062  18.9743137  42.0901251   4.4857159  18.6781609  41.1824560
   3.9475924  19.7126985  42.1474123  19.4413710  12.2357666  25.0552487
  19.1297901  13.0312526  24.6235633  20.3300118  12.1142054  24.7209239
  82.2766972  23.1316018  64.9158478  81.3686371  23.3634162  65.1106071
  82.5118256  23.6877060  64.1730881  38.5414004  28.6702418  63.9983511
  37.7130032  28.7948370  64.4614553  38.2962537  28.6372447  63.0736637
  59.4410515  63.0504799  50.9157944  60.3747272  63.2265997  50.7997751
  59.0715742  63.1280613  50.0361919  49.7742224  47.5363684  58.0091953
  49.3606281  47.6938677  57.1604538  50.2882004  46.7391205  57.8809071
  31.4991379  55.5779028   9.1834992  31.4768481  54.9064016   8.5017222
  31.9091296  56.3333654   8.7622881  17.8114760  15.8655572  49.5664120
  17.2518921  16.6016948  49.8137903  18.3607519  16.2085426  48.8615084
  74.8770666  71.0339451  55.7849121  74.5097399  70.1772785  56.0026836
  74.6931458  71.5755367  56.5524292  55.6071997  37.4720049  48.9880991
  55.4807568  36.5237141  48.9566660  55.5390596  37.7530956  48.0756426
  67.0673370  41.0912848  52.0714569  66.6292048  41.9420815  52.0917654
  67.9988956  41.2998629  52.1416330  17.5393236  71.4816475  17.6507485
  17.6532614  70.5449867  17.8117251  16.7702293  71.7216778  18.1675768
  35.3461742  20.5596662   1.1722236  35.8083463  21.3127255   0.8040827
  35.9331346  20.2269077   1.8511805  23.0588126  62.1444416  27.8952193
  23.9962673  61.9530678  27.8672218  22.6809049  61.5912294  27.2115707
  50.7266474  62.9288101  60.8237028  51.4656639  63.3892679  60.4261255
  50.7679653  63.1647873  61.7504406  75.3403044  18.3532155   2.6135367
  75.8827639  18.0238879   3.3301365  75.7131481  19.2098057   2.4050322
  12.6202989  36.8514037   4.4196105  12.5179267  37.7261400   4.0446594
  13.5309386  36.8216515   4.7130105  63.1357288  35.8404183  51.0664558
  63.2480526  34.9836564  50.6546545  63.9088154  35.9425545  51.6215563
  15.3182852  64.9200296  14.1180623  16.2201977  64.6591759  14.3044555
  15.2875543  65.8507919  14.3393588  63.2216787  38.2947850  66.8783140
  63.4303188  39.2242026  66.9725657  62.6232100  38.1090832  67.6019049
  59.3688059  24.3534136  50.8565044  58.5428524  24.5613074  51.2933159
  59.4664288  23.4075665  50.9664011  62.6825523  54.2176390   5.8811450
  62.8607845  54.0850878   6.8122166  62.8195572  53.3565903   5.4861027
  47.8214502  47.3474836  64.8091078  47.1255255  46.7007399  64.6922970
  48.1009340  47.2370911  65.7179165  58.6046791  13.0944228  55.0398111
  57.8087664  12.6095104  55.2580309  58.4859610  13.3504534  54.1251612
   4.3383768  76.6783857  23.3559537   4.7766647  76.2378168  24.0839863
   4.3814847  77.6084900  23.5779524  47.9472780  35.1083350  67.3279476
  48.6030245  35.7996202  67.2365808  47.8372383  34.7639346  66.4416599
  14.2527759  69.2560005   4.6320093  13.5650206  69.0050030   5.2486318
  14.8785353  69.7518682   5.1600003  74.1906309  63.4025574  14.8675847
  74.9567986  62.8555250  14.6944582  74.5538616  64.2587423  15.0939715
  19.4381583  50.0451708   9.7905213  19.2818832  50.7689571   9.1839397
  18.9085007  50.2580023  10.5588937  67.6744938  43.0291986  12.8736150
  68.4177542  43.2464457  13.4362876  67.6194763  42.0741844  12.9075694
  21.3772964  13.9568341   6.2729841  21.4644122  14.3149400   5.3895801
  20.7802606  14.5586038   6.7175663  48.8610697   9.7337061  63.8297749
  48.3748531  10.4929650  63.5082912  48.1930733   9.1679096  64.2169333
  50.8553171  64.0586233  50.4108477  50.7749176  63.2861042  50.9702969
  50.8473301  63.7105274  49.5192242  58.8232803  78.6534214  44.6088028
  59.5917654  78.9418030  44.1163635  59.1161299  78.6338043  45.5198956
  72.5143528  77.7558422  57.2608948  73.2595921  78.3557463  57.2919559
  71.7465973  78.3274889  57.2600174  83.7637234  69.4762087  31.2307692
  83.4118366  68.6881256  30.8168435  84.4540501  69.7708702  30.6367588
  31.2812686  11.6840291  14.2702305  31.3810301  12.2569203  13.5099185
  30.3524446  11.4527452  14.2756212  55.8010435  46.5397596  55.7862043
  55.3535032  45.7438469  56.0733700  55.3248644  47.2504807  56.2155771
  80.5271435  27.4228239  62.4435091  80.1008892  26.6388035  62.0973158
  79.8224878  28.0666876  62.5152063  14.0146911  25.0021410  34.2138386
  14.3432105  25.8500290  33.9148569  13.1216359  25.1814890  34.5079803
  68.9318132  39.2387438  55.4838371  69.0007114  38.9577627  54.5714045
  68.5417938  40.1116180  55.4368496  12.7876079  60.6360531  50.0020981
  12.5444543  60.4088974  50.8995962  13.7436581  60.5898762  49.9939823
  21.7746902  28.6898661  37.3929024  21.2567878  28.1387091  37.9796195
  21.4762068  29.5807981  37.5756097  77.7430677  50.3674698  65.2376842
  78.4780121  50.9177208  65.5084515  78.0581188  49.4714689  65.3566837
  48.9654589  67.6308727  53.6789274  49.5371199  67.1996450  53.0437326
  48.6065626  68.3822107  53.2067871  27.5342250  25.6551385   2.8857201
  28.2725954  26.2376142   3.0639461  27.1925092  25.9527063   2.0425627
  17.7627242  25.0185251   8.4436876  17.3428702  24.2410207   8.8117135
  17.6473999  24.9279332   7.4977881  67.8467035  16.3614035  41.7402935
  67.4016333  16.0127509  40.9679031  67.5099945  17.2530603  41.8286467
  -0.1537264  52.7624369   2.1288805  -0.1638334  53.0085993   1.2039292
   0.4974882  52.0630312   2.1834922  83.3691502  71.3259220  23.6651373
  83.8331699  70.8311844  24.3405223  84.0596771  71.6403484  23.0815792
  69.4407701  68.1881237  58.2617331  69.8275852  68.5796022  59.0448999
  69.4007349  68.9060545  57.6299047  64.3266201   2.8009349  20.2642345
  64.7197390   3.0029902  21.1132717  65.0647068   2.5353241  19.7156763
  13.4648716  57.8087234   7.0720381  14.0925407  58.4031534   6.6610467
  12.8986681  58.3798265   7.5911593   0.8183512  66.4284754   8.9765656
   0.7993726  65.7248163   8.3279222   0.9338682  67.2265577   8.4608608
  75.4873228  12.8215873  54.3386221  74.8336220  12.4281359  54.9166393
  75.0032711  13.0375683  53.5415745  14.8970187  63.8405848  16.6664362
  15.5726254  63.1961727  16.4554453  14.9476242  64.4815731  15.9573460
  63.8804722  22.9970098  51.9097424  63.9350080  23.4693837  51.0790062
  64.5094872  23.4402537  52.4790430  25.5676436  17.2986364  55.8366394
  24.9105740  16.8203497  55.3309393  25.7949686  18.0478728  55.2860022
  44.5953465  65.9105349  64.0901423  45.3454447  65.8204460  63.5023737
  43.9167356  66.3177872  63.5517502  77.0025444  23.3402205  64.3014383
  77.2070217  22.5397229  63.8180876  77.8396082  23.6140561  64.6763563
  74.4065905  23.1618714  54.4680166  73.4567833  23.0790210  54.5530891
  74.6052265  24.0248966  54.8312855  66.4313030  49.1482973  36.9021153
  66.7872906  49.4146824  37.7497840  66.8914461  48.3351755  36.6939449
  61.1011028  66.5505934  46.3614416  60.4456139  66.6598511  45.6725073
  60.7570744  67.0515537  47.1009827  61.3128996   2.3541492  14.6418762
  61.2062740   3.2146499  15.0473416  62.0661736   1.9697727  15.0902772
  56.4804077  53.3085060  67.3018026  56.9158268  53.6507320  68.0825233
  56.4109707  52.3669577  67.4595976  26.1288977  69.9870157   6.1333811
  25.7574058  70.7159138   6.6303086  27.0060420  70.2843475   5.8916283
  54.7967196   6.9930291  55.0587082  54.0381002   7.3983240  54.6386337
  54.4370842   6.5518528  55.8282900  14.2517340  53.3128691  15.7603002
  14.5009494  52.7417040  16.4868593  13.4087348  52.9696083  15.4640639
  62.3276329  43.3946180   5.9186602  61.6103077  43.4682322   6.5481496
  61.9145346  43.0593824   5.1229221  43.4074640  29.1175270  62.3706961
  43.7467718  28.6550784  61.6043758  42.7494001  29.7160935  62.0172739
  48.9031887  29.0353203  53.1208372  49.0493584  29.2281032  54.0469599
  47.9512358  28.9858317  53.0338335  46.0429573   6.5898246   2.7759206
  45.2804565   6.2550443   3.2478845  46.6204739   5.8318430   2.6855266
  27.7763796  62.0184469  18.8321471  28.2789445  61.4779186  19.4416463
  28.2032657  61.8851948  17.9858351  32.2786498  77.7915478  33.7167168
  31.7870784  77.0471048  34.0636945  32.3074245  77.6401854  32.7719975
  10.8581293  33.3045459  68.5167837  10.8563232  33.3016539  67.5595903
  11.2683594  32.4740386  68.7580347  50.1688766  67.4331379  29.3783188
  50.6506824  66.7737055  29.8775649  50.7515097  68.1923628  29.3596530
  75.5308247  35.5187178   9.0292758  76.1209393  36.2701631   9.0869242
  75.0441790  35.6581163   8.2168859  83.0011082  39.1350865  67.7408123
  83.4021854  38.6096716  67.0484924  82.5014973  38.5053325  68.2604599
  60.2492189  55.7479095  46.7049170  59.8338509  54.8920822  46.5987968
  61.1774683  55.5861807  46.5362978  34.3088913  35.5599928  63.4955072
  34.7186708  36.3613462  63.1697083  33.3689618  35.7333136  63.4432936
  34.7505283   0.8212843   6.5898353  34.8738384   0.2187395   7.3232973
  34.9661756   1.6822374   6.9482875  79.2829132  45.2207851  49.0600109
  79.1528463  45.0472212  48.1277084  78.7433004  44.5660114  49.5030928
  28.7452197  31.6247821  57.7415371  29.1480160  30.7585502  57.8017712
  28.2857800  31.7337060  58.5741711  15.5532598  43.1100225   2.3067449
  15.9807134  43.8729954   2.6958293  15.0558197  43.4641457   1.5695991
  77.1787739  43.6313820  56.1548090  77.0260096  43.1083202  55.3678513
  77.3036003  42.9861641  56.8507576  31.3844275  20.3319931  14.1387975
  31.2051749  19.9475873  14.9968958  32.0310163  19.7466242  13.7444639
   1.8222505  16.2599492   9.8908913   1.0553446  16.3446307  10.4573858
   1.9097160  17.1182585   9.4762975  69.2350912  60.8164787  48.1201839
  69.7536325  60.0648212  48.4071779  69.6856403  61.1334085  47.3373699
  35.8610415  10.0783360  52.8613424  35.9307241  10.1777017  51.9118690
  36.7309618   9.7887766  53.1363440  70.9595013  54.0648270  63.2206249
  70.6724596  53.7196398  64.0660143  70.6227589  54.9606228  63.2008696
  51.9979000  36.5633583  49.1610098  52.8272152  36.1254835  48.9693403
  51.3527393  35.8565187  49.1804361  32.8982496  40.6754971  67.4863291
  32.4433875  41.5151072  67.5525236  33.3489656  40.7131243  66.6427231
  52.3662090   0.5769586  63.8109016  52.0365191  -0.3214306  63.7900591
  53.1791735   0.5455120  63.3065891  22.5088835  71.4390850   3.9970228
  22.0131707  70.6756449   4.2930889  22.6463675  71.9575596   4.7898117
   7.9472005  56.4212179  48.4714699   7.3767519  57.1560621  48.6969137
   8.4754121  56.2783289  49.2568445  82.5239658  40.2644920  57.0515490
  81.9752026  40.9814596  57.3694277  83.2876492  40.2734232  57.6285505
  58.4158850  39.9000335  62.6377964  59.0009451  40.6575966  62.6439190
  58.2907295  39.6865845  63.5624647  31.6267395  69.8433304  29.2423820
  31.1944032  69.4141674  28.5040474  32.3298454  69.2429304  29.4901657
  63.3704805  35.0958705  62.2623491  63.3976221  35.6220412  63.0614996
  64.1665459  34.5655251  62.2976112  62.3066330  58.2122135  68.2074404
  62.6008129  58.8143492  68.8909006  62.4045467  57.3428297  68.5957956
  74.8993683  29.1798592  63.5589218  74.7029781  29.7829008  64.2758608
  74.8305130  29.7162366  62.7691174  54.2662668  22.5493050  62.3308039
  55.1906776  22.6867151  62.5377321  53.8222456  23.3130360  62.6993036
  13.4232700  13.2062232  62.7631330  12.4662066  13.2221770  62.7609015
  13.6583245  13.0650258  63.6802149  75.3522253  33.9269352   3.8619265
  74.6086550  34.1717958   4.4127232  76.1177588  34.2565179   4.3326372
   2.3954333   6.0590374  23.3605170   2.9152673   6.1603802  24.1578460
   1.8762317   6.8615693  23.3094811  37.9117560   3.6031732  20.2119708
  38.1403160   3.7702450  19.2975974  38.4353924   2.8393373  20.4540253
  14.6031547  64.5542860  10.6817389  14.7530913  63.6099434  10.7260895
  14.1252303  64.7589254  11.4854455  77.1326971   3.7976637  24.7583890
  76.7510033   3.6081305  23.9012909  78.0619621   3.5913894  24.6576524
  36.7937255  13.2146180   3.6002949  37.0304942  14.1087103   3.8468143
  35.9352088  13.2998693   3.1856725  75.0523138  78.9241886  -0.1756588
  74.9962139  79.5254946   0.5669843  74.8742723  78.0620718   0.2002224
  53.9642811  24.5157170  47.0133877  54.7554874  24.9929261  47.2633743
  53.4540367  25.1470232  46.5061045  36.4238167  24.7641492  11.6180897
  36.1042738  25.0479913  10.7616103  37.2404671  24.3024111  11.4280629
  68.7061644  77.0167160  23.5732484  69.3550825  76.3358021  23.7507033
  67.8781509  76.6428566  23.8746667  76.9086218  25.2473879  58.8324022
  76.9892454  25.0310111  59.7613335  76.3552189  24.5543933  58.4722137
  60.8492470  76.6663694  51.6600084  61.2672234  76.8002462  52.5106573
  61.0947371  77.4373150  51.1485338  44.4789267  79.3072844  30.4664612
  45.1846457  78.9789963  31.0236120  44.7991562  79.1787481  29.5736194
  26.7185640  74.1475248   4.5060837  25.9196472  73.9219761   4.9826241
  27.0473623  74.9309254   4.9470016   3.5697028  54.3584776  41.5193319
   4.3359545  54.8920965  41.3087654   3.7231433  53.5295820  41.0658693
  63.5849476  44.9020433  53.3561993  62.7150869  45.1587534  53.0501318
  63.8095903  44.1376495  52.8256702   7.1358413  39.3674088  36.1846614
   7.3252356  39.1408014  37.0951629   7.7375960  40.0848770  35.9862614
  78.8185167  56.0552502  29.6078157  79.4539833  56.6794729  29.2574406
  78.0983448  56.5996742  29.9259138  15.5700743  76.3497066  12.8263915
  16.5037966  76.5595818  12.8077531  15.5248523  75.4969406  13.2587945
  81.1176586  30.0114322  55.9395742  80.4202271  30.2699494  56.5420532
  80.9633064  29.0803552  55.7798815   4.4823387  42.5637341  41.4466000
   5.2650732  42.0204067  41.3552141   3.7533191  41.9478226  41.3730145
  37.2848964  27.6527643  12.7263856  37.1246552  26.7114496  12.7933037
  37.4075770  27.9397631  13.6312687  30.4364467  43.3642483   8.9404535
  29.7609997  43.5891533   8.3005929  29.9528337  43.1892300   9.7477442
  24.0437913  15.9546089  53.7975788  24.3851829  15.0618541  53.8492823
  24.5561814  16.3670766  53.1021929  16.4071345  26.3698721  56.8771696
  17.1835113  26.7857742  56.5023422  16.7076898  25.5027556  57.1492147
  43.8578653  15.4184556  18.6400306  43.8808918  14.4944572  18.3911765
  43.3665752  15.4331160  19.4614005   3.8449222   7.3752832   8.2665205
   3.9623216   8.3128077   8.4198099   4.5631671   6.9624090   8.7459898
  76.3310862  11.8345547  33.9957500  76.7447853  12.4536562  33.3942533
  76.9657993  11.7285764  34.7043681  71.8705702  55.8834982   9.9388599
  72.3366785  55.7010365  10.7547534  72.1387768  56.7716408   9.7032642
  21.1154532   6.5172726  43.6281204  21.9155884   6.5162879  44.1534948
  20.6852341   5.6902730  43.8454103  30.5833340  30.2268982  31.8554854
  31.2202501  30.0739312  31.1575103  30.4276204  29.3606186  32.2317100
  65.5031538  44.0633821  44.4136572  64.5840979  44.0025139  44.1531515
  65.7476759  43.1662178  44.6406794  54.7887707  59.2816019  46.0352039
  54.6316576  60.0879049  45.5438566  53.9734888  58.7871552  45.9511089
   6.1777365  77.1159649   7.6760858   5.9227705  77.3987532   8.5542977
   6.8383223  76.4393759   7.8246790   0.6028913  38.5143948  49.7570896
   0.4174273  38.1376648  50.6172705  -0.0357020  38.1047463  49.1734648
  16.7496884   5.9375077  20.4888105  16.1188459   5.2496207  20.2764845
  17.5971866   5.5718082  20.2353477  84.0463066  48.2111597  46.0556889
  83.1752777  47.8422308  45.9092426  84.5464993  47.9598522  45.2792406
  55.3648186   7.4272072   0.1260193  55.1388073   8.2122779  -0.3727953
  55.8760071   7.7530199   0.8668037  19.0035045  20.7586575  10.6177211
  19.2989624  20.4683876   9.7547740  18.4189487  21.4944649  10.4357469
  49.7661734  39.9558759  67.7296638  49.3394995  40.4030800  66.9987822
  49.0785503  39.8653674  68.3893776  18.7575841  14.3654513  62.2189093
  17.8154731  14.2113829  62.2890663  19.1043591  13.5591221  61.8370533
  48.2087994  38.1204963  61.3609171  48.9348745  38.5440707  61.8187666
  48.2260752  37.2149253  61.6705561  31.4679599  18.1925440  63.8473272
  31.9408607  17.8789639  64.6182156  32.1532154  18.5059392  63.2570410
  70.2562952  31.8329477  57.0542669  70.9815025  31.2233281  57.1909142
  70.3000498  32.0524597  56.1236048  65.3154802  49.2257452  32.4724698
  64.7999620  49.9209309  32.8813601  66.2177610  49.4125366  32.7317667
   9.2911637  60.5984592  27.6986551   9.2286545  59.6469641  27.6151419
   8.8151795  60.9372282  26.9404292  39.6389103   8.7252569  26.1362243
  39.8763347   9.4976103  26.6493821  39.1555905   8.1703115  26.7483258
  70.2918530  45.2450228  50.6749296  71.0891485  45.0115395  51.1503649
  70.2872467  46.2021971  50.6704998  47.2422886  65.6840467  68.0430079
  46.4800119  65.6889486  67.4640942  46.8780518  65.8066082  68.9196730
  35.9745884  69.2031097  40.2979040  36.6914177  68.8629484  39.7624826
  35.6913447  68.4543180  40.8226061  23.1116009  78.2085896  32.9811645
  22.1650600  78.0836916  33.0496812  23.3967853  78.3757067  33.8794804
  29.7478962  59.5183611   3.3704692  29.8656845  58.5883570   3.1769574
  29.0027022  59.7827435   2.8310075  79.9467850  61.2071657  55.4663563
  80.2398872  62.1181822  55.4856730  79.8723030  60.9599352  56.3880730
  67.4406052  14.3691814   7.2427171  67.8062725  13.5162282   7.4772137
  66.4968538  14.2185903   7.1889579  57.5678730  41.1771011  57.3464537
  57.5768375  40.7882118  58.2210493  58.4492445  41.5330076  57.2335434
   3.6479321  38.7786341  66.2926149   2.7241617  39.0250802  66.2463140
   4.0452337  39.4433069  66.8552780  54.7793245  37.3341751  11.4982116
  54.1772652  37.7405882  12.1215808  54.6634007  37.8359365  10.6913483
  71.7996979  29.2239881   4.5164207  71.3229561  29.8761296   5.0298989
  72.6867485  29.2379165   4.8758367  35.6795406  20.5787015  10.7111859
  35.5405450  21.1459827   9.9528283  35.2779794  21.0510850  11.4404571
   5.7525015  35.7928896  10.5601335   5.5995214  35.0844407   9.9348903
   5.1961434  36.5083647  10.2522457  75.3893280  50.0910234  47.1410608
  76.1359024  49.4919825  47.1428442  74.6726131  49.5793962  46.7658472
   9.8012334  21.9499755   9.0556961  10.0729811  22.7174115   8.5522795
   9.6448326  22.2856307   9.9383670  55.5930185  78.6310577  67.2386932
  56.1138201  79.1698170  66.6430998  56.0870409  78.6343002  68.0585480
  63.4532452  27.9378772  63.8863325  63.4257793  27.2381973  64.5389605
  62.5863981  28.3413577  63.9311314   3.3289409  75.1607418  63.8391256
   2.3981184  75.1566315  64.0622520   3.4084383  75.8260345  63.1555319
  10.6134188  68.4190941  26.8651199  10.9098852  67.7001715  26.3070107
  10.1186240  67.9913759  27.5640249  13.2845759  27.7939963  51.1719656
  12.5227451  28.2411766  51.5405798  13.9510477  28.4771371  51.0986948
  19.9357688  22.7715540  56.4213562  20.5525827  23.3389235  56.8838120
  20.2691174  22.7358580  55.5247879  22.0754576   8.9746261   7.6942307
  22.3214984   8.6554724   6.8259931  22.2100377   9.9212122   7.6484674
   7.0122063  23.3788204  13.0020308   7.5943816  23.9476585  13.5057437
   6.1612934  23.4662580  13.4316039  16.7551267  21.6376424  59.9038172
  17.2660792  21.1740422  59.2403126  15.9196687  21.1713171  59.9318027
   2.3486009  56.4610338  64.7051239   2.5289342  56.4442110  65.6450319
   1.9069777  55.6298304  64.5310593  18.5068142   5.7750404  37.3644185
  18.6905074   5.4864156  38.2583904  17.8612757   5.1480734  37.0381904
  74.3269682  42.2077322  16.7204762  74.0199137  41.8236494  17.5417125
  75.2799559  42.1271610  16.7599463  80.3907967  47.5461817  48.4408855
  79.7587204  46.8614531  48.6596346  80.8106804  47.2369719  47.6381922
   5.3997117  49.5438290  41.5718174   5.9725416  49.4281960  40.8137083
   5.3107351  50.4925776  41.6622877  68.2677174  44.8268032  63.3831739
  67.9914999  44.0218544  62.9449987  68.6951447  44.5280123  64.1858387
  27.1582866  48.7747622  16.8146622  26.3289738  48.3756351  17.0776629
  27.4097705  49.3185425  17.5611806   1.8277729  72.8028584  52.7560854
   2.4506462  73.1655025  53.3859634   2.3007770  72.0828009  52.3389292
  65.9212255  64.0292549  54.0515900  66.1934185  63.1309891  53.8638067
  64.9799681  64.0356064  53.8777256  19.3357944  23.7289810   2.4352589
  18.8871455  24.5727897   2.4894038  18.7567604  23.1835794   1.9028227
  13.4194005  74.9129486   4.0697989  14.0975356  74.7170877   3.4232670
  12.6297283  74.4989967   3.7215301  14.7724533  12.9255986  25.3106976
  14.9427903  13.4424567  24.5232487  13.8231194  12.9692233  25.4251194
  79.7093058  62.2287846  35.2448893  79.4161224  62.7784920  35.9715915
  80.6610012  62.1926022  35.3407311  64.9528599   2.2039971  42.8073454
  65.3440046   1.8572493  42.0054674  64.8631096   3.1427926  42.6435137
  32.6863432  11.6154063   0.7607497  31.9838309  11.0203576   1.0227157
  33.1604719  11.1404502   0.0782172  40.5732918   9.1446114   0.6948538
  40.7200480   8.8801813   1.6030237  41.3619709   8.8611019   0.2324196
  66.6679430  69.3109465  32.1066618  65.9048462  69.1455650  32.6603460
  66.9459391  68.4422541  31.8162704  38.1742883  46.9673967   0.9296002
  37.3558950  46.5783501   1.2379871  38.1931496  47.8358030   1.3317823
   3.9618754  78.5532284  66.2477160   3.9297786  79.0651083  65.4395199
   4.5896935  79.0180874  66.8008709  72.7051973  23.8738728  57.0807552
  72.4243069  24.4172406  57.8170204  72.2334766  24.2289615  56.3273478
  52.8400373  45.8307266  58.8443041  52.8526878  45.1304102  59.4967079
  52.2915459  45.4899454  58.1377220   4.5232520  10.0366008  62.1263409
   4.9592310  10.7024562  62.6581192   4.0565345  10.5341411  61.4548779
  53.7963343   8.8659370   7.8191549  53.5838079   8.9599085   6.8905902
  53.5562801   9.7078419   8.2061970  56.5504456  10.0180340  30.6803799
  55.8017540  10.1296914  30.0945306  57.0202303   9.2624545  30.3273392
   7.9085773   7.1141404  18.7786984   7.7457714   7.0960569  17.8356194
   8.4139925   7.9147953  18.9191937  67.4111605  72.8338289  56.6415644
  68.0063343  73.2345915  56.0080099  66.5643263  72.8146553  56.1957741
  58.1745672  69.0339756  23.9198089  58.2237434  68.0787182  23.8838291
  58.9495182  69.2951345  24.4172859  74.2479134  53.4455872  50.4481602
  75.0621748  53.2900286  49.9696064  73.5569811  53.2447195  49.8168993
  83.7809944  43.7715721  57.6858091  82.8608227  44.0338612  57.6589060
  83.9694977  43.6543179  58.6169147  20.8279228  44.7899818  14.0774584
  20.1648140  44.1481781  14.3316364  21.2520623  45.0346994  14.8999238
  36.9546080  67.6561737   6.5868592  36.0689831  67.4332905   6.8736023
  36.9403243  68.6075878   6.4827430  20.4074979  31.3054442  25.6276703
  20.8031440  31.9668841  26.1952925  20.7362318  30.4723334  25.9654474
  61.5334177  49.2080259  63.1367350  61.2835503  49.9538851  63.6821651
  61.6602659  48.4898090  63.7566566  64.2203379  20.7928872  61.8538237
  64.3472052  21.5562940  62.4171591  64.6667957  20.0805902  62.3115778
  50.2298450  15.1462448  25.8924961  50.7551050  15.7686305  25.3895378
  49.6098518  14.7878647  25.2573538  10.4161727  35.4893184   5.0265390
   9.9082142  35.7210112   4.2490250  11.2270105  35.9907913   4.9411091
  52.4927950  50.5977297   6.8327618  51.6327095  50.2017593   6.9730705
  52.3823166  51.5107393   7.0981675  66.5347433  56.3202477  34.3009186
  66.4569187  57.1297598  33.7960744  65.6547070  55.9439611  34.2873335
   8.7632090  78.6857224   0.9738232   8.6589223  79.4145727   0.3621590
   9.4181353  78.9915133   1.6013536  77.0541906  60.6309128  61.5559769
  77.7442646  61.2942553  61.5536690  77.3434258  59.9866581  62.2021294
  59.9168634  50.1744080  49.6838093  59.8415089  51.1194134  49.5514393
  60.7615948  50.0601578  50.1192522  54.7778702  71.3424826  68.2144308
  55.0189543  70.9423018  69.0498734  54.8009729  72.2841835  68.3844233
  38.8232899  10.9475350   0.5828621  39.4382882  10.2629006   0.8460779
  39.3789721  11.6876709   0.3386399  35.3603172   1.7107636  14.8907304
  35.5509114   2.0424791  15.7681525  36.2077904   1.7097476  14.4457364
  29.4320917   1.1832856   6.6601259  29.8105860   2.0620596   6.6871643
  30.1476026   0.6235019   6.3585973  30.1152134   2.3571149   2.7121642
  30.6709266   3.0586275   3.0517179  29.2219830   2.6787126   2.8344199
  43.2015705  59.7887897  35.3229284  42.3840189  59.8200703  35.8197832
  43.8765907  59.6282482  35.9823275  32.5768423  73.9065123  15.7161558
  32.1166086  73.5620260  14.9508154  32.5628781  74.8561239  15.5966759
  53.4648991  49.8264170  64.2499304  53.3126783  50.4897451  64.9230289
  52.9586267  50.1294422  63.4962082  83.3372879  57.2482252  62.9628515
  83.9107895  56.7256975  62.4022341  83.8858795  57.9765224  63.2541800
  54.6693611  55.7525444  51.5774536  55.5993557  55.8735991  51.3859081
  54.2903328  55.4594040  50.7488155  29.8159528  33.4823561  61.9194937
  30.5467439  33.9013219  61.4649105  29.0451789  33.9763451  61.6400099
  17.4148405  47.4697924  43.8405800  17.2179401  47.4286699  44.7764063
  17.5527298  46.5578365  43.5845375  16.4867365   2.6838884  52.3364973
  17.2132492   3.2744196  52.1372890  16.8570375   1.8067633  52.2377014
  70.0567532  46.7057228   8.2049853  70.1133442  47.3411798   8.9185864
  69.6716356  47.1953678   7.4782324  51.7896461  73.0154896  39.6674776
  51.0588169  73.6023092  39.4731426  51.7670679  72.3644304  38.9661622
  11.5101194  77.9080248  11.4145446  11.7605233  78.7895727  11.1381209
  12.1493006  77.6778412  12.0888531  32.3947382  29.7323108  64.5454502
  32.1666479  28.9746809  64.0067434  31.5670609  30.1974106  64.6673536
  49.8839474  73.1668568  60.4779911  50.2387762  73.4886360  61.3067150
  49.0440083  72.7730465  60.7138920  36.7167616   7.1286446  59.5449400
  37.0378518   7.2983825  60.4305601  37.4528599   7.3538637  58.9760208
  65.7207918  77.4656010  23.9897728  64.9258995  77.6384544  23.4852958
  66.2790918  78.2254314  23.8248777  66.0283661  60.9594250  31.6897058
  65.9902620  61.9146872  31.7371964  66.5625525  60.7791901  30.9161472
  75.8597088  27.1091413  18.5306442  75.3592348  27.3011947  17.7376270
  76.6721153  26.7159820  18.2118177  68.0318356  41.8705082  55.8292294
  67.8413153  42.1102715  56.7361164  67.5419712  42.5047922  55.3058290
  34.4951057  13.0171967   1.9641700  33.7735558  12.5560546   1.5364486
  35.1384926  13.1528497   1.2685530  62.1984911  51.4412069  53.8282490
  62.6101971  52.2560072  54.1160583  61.2873507  51.6802740  53.6582375
  60.7268524  65.3265429  17.8894949  60.3999138  65.8249903  18.6384261
  60.3256845  65.7466125  17.1286798   5.9816706  28.5327721   1.0455233
   6.0159057  28.6072564   0.0918399   5.5729496  29.3484974   1.3349548
   5.5084264   5.5216306   4.7002181   6.1705601   5.2414954   5.3321481
   4.7024977   5.0964803   4.9934024  60.1590586   7.7341372  65.4330254
  59.7290087   8.4977555  65.8179617  60.0542212   7.8508592  64.4887686
  39.6181250  21.0061431  24.2549825  38.8230968  20.8166218  23.7567425
  39.7840476  20.2066445  24.7544861  49.5374537  37.2428298   0.8452265
  50.0709057  37.9675937   1.1713879  49.2894077  37.5076866  -0.0405253
  82.0590878  11.4537430   1.8547714  81.9656944  12.2974265   1.4123821
  81.1767578  11.2453604   2.1618544  35.3732371   7.1594614  11.6747260
  36.2802052   6.9510758  11.8988121  34.8808169   6.3744950  11.9146895
  66.0260773  76.9006586  27.9725862  66.0230589  77.8162622  27.6934934
  66.6818857  76.4823866  27.4147391  64.6513557  54.2890978  53.2437468
  65.3296852  53.8076973  52.7700901  64.8178577  55.2077436  53.0325556
  83.0129719  16.2639534  68.0436182  83.0862427  16.6421115  68.9198923
  82.9294491  15.3225362  68.1952381  49.9010849  35.0602436  16.7921412
  50.4991293  34.6668363  16.1566842  50.4573011  35.2825713  17.5387502
  24.7488022  48.1826353  18.6092973  24.1502309  47.9970932  19.3328428
  25.0653410  49.0693760  18.7816954  58.4909916  78.0112648  63.9546824
  59.3130875  78.4006166  64.2526674  58.7583303  77.2369576  63.4594965
  63.4369469  11.8676412   2.7681383  63.5003042  11.5367925   1.8721712
  64.2971516  11.6922498   3.1496117  14.2258358  16.5179574  20.7256794
  13.8821590  17.0820689  21.4184237  15.0722480  16.2190485  21.0580516
  45.0357485  24.5066357   7.6249933  44.4871187  24.1778231   8.3371156
  45.0425529  23.7982941   6.9812268   9.0556496  15.6752789  21.9253302
   9.9291086  15.2914166  21.8481851   8.5723418  15.0616038  22.4785471
   7.1169370  65.4015493  48.0587339   7.0402890  64.5420218  47.6445246
   7.9649568  65.7342863  47.7648354  39.3656158  61.8170309  41.4443445
  38.5741901  61.6742373  40.9252214  39.0594292  61.8226433  42.3512316
  18.5879183  59.9590540  50.7867098  17.6332831  60.0289583  50.7827139
  18.7802327  59.3463135  51.4964962  36.5415978  31.3792801  67.4936342
  35.5872607  31.3106203  67.5211382  36.7758942  31.1064100  66.6065741
  46.4310122  24.6286631   0.7921468  45.8140850  23.9075422   0.6671904
  47.0971584  24.4934678   0.1182029  13.0773270  76.4974880  15.6820750
  12.7590728  77.0862675  16.3663864  13.9784408  76.2991333  15.9367967
  78.4749126  28.9761782  23.8981247  79.3916035  28.7119293  23.8201261
  78.3798742  29.2443037  24.8120737  63.0788898  39.8988366  52.2875214
  62.4531603  40.4866266  52.7108383  62.8238440  39.0247273  52.5826788
  67.0098734  50.1837492   9.2074883  67.3356867  50.3625107  10.0896013
  66.8317795  49.2432737   9.2039561  48.5219717  54.7161341  67.1214962
  48.7134027  55.4333162  67.7258444  48.4812450  53.9383936  67.6779938
  37.4801350   0.5630577  24.7506523  37.9250789   1.1332411  24.1236377
  38.0824876   0.5066305  25.4924202  82.5326824  75.7775450  10.7382250
  82.9943562  75.5647469   9.9271739  82.7888489  75.0857925  11.3482153
  17.3564994   5.6372613  42.2495937  17.6445651   4.9237305  42.8189135
  16.4951551   5.8811879  42.5884438  69.2611694  73.0128527  46.8868828
  69.0583992  72.4320745  47.6202440  70.0054264  72.5975657  46.4511681
  20.2691460  62.4255848   2.8783521  20.1732469  62.2746420   1.9380058
  20.2977967  61.5482569   3.2600623  80.7036877  51.5125370  50.8184147
  81.0861111  50.6380177  50.7462835  80.0518131  51.5473700  50.1183605
  74.6282148  38.1295252  59.0339804  74.8826933  38.9319634  58.5783911
  74.8299265  37.4281812  58.4145737   7.2063631  57.7095127  60.6594944
   8.0607533  57.5591564  60.2549648   7.0762450  56.9537449  61.2323093
  50.2626896  47.8398991  60.7055759  49.8248577  47.7406549  59.8601866
  50.9194183  48.5201931  60.5567789  25.9709907  51.7951059   4.4386765
  25.0966048  51.9594193   4.7917804  25.8704400  51.0047054   3.9082149
  28.3418107  10.1723301  56.7647076  29.1881132  10.6110907  56.8512869
  28.5386181   9.3634164  56.2923145  48.4105062  46.2216854  42.1398163
  47.5198603  46.5354252  41.9831371  48.3840084  45.8576250  43.0246830
  14.4689214  72.1463442  29.4705653  13.5926640  72.2366333  29.8450708
  14.4777071  71.2677622  29.0907693  67.9077101  45.8901644  26.1329627
  67.4307680  46.7177248  26.0705090  67.6464319  45.5263948  26.9789171
  33.2032061  34.1345930  39.3161273  33.7567735  33.6419177  38.7102699
  33.7461901  34.8740125  39.5893693  16.2511599  67.5705481  30.6382418
  16.5970707  67.7862692  31.5042925  16.9537234  67.8091049  30.0334883
  74.4655466  74.1248989  11.7445385  74.7976780  73.3543587  12.2051811
  74.5214510  73.8924360  10.8176792  58.2707024  15.0318599  14.2213976
  58.8571739  15.6509650  13.7866628  57.6165628  15.5829430  14.6511018
  43.2388592  21.9982886   6.6292220  44.1737080  22.1470046   6.4871818
  43.1972122  21.4953494   7.4425793  69.3758726  62.4384308  54.0163994
  68.5680151  62.2057343  53.5587358  70.0552702  61.9252872  53.5789824
  71.8101406  55.1657152  28.7771893  72.3117828  55.5536842  29.4941711
  72.4528599  55.0306129  28.0808496  68.6343384  59.3641186  66.8358564
  67.8407669  59.2207575  67.3515320  68.5706711  60.2742529  66.5463209
  11.9076276   6.8452877  16.9847608  12.1062899   7.7808100  16.9452190
  12.2663224   6.5595680  17.8249598  83.5937691   9.7219914  29.5812941
  83.5606098  10.6312013  29.2838550  83.0960464   9.2364758  28.9234376
  67.1770000  75.5349827  50.6561613  67.2381115  74.5844793  50.5610752
  66.8188763  75.8366680  49.8213196  29.2871332  46.4994287   0.7319985
  28.4478068  46.2075615   0.3762250  29.1566253  47.4284267   0.9221709
  25.3401947  60.8173132   4.0944800  25.1606941  60.2671528   4.8569348
  26.2401056  61.1174393   4.2222136  30.0799489  56.6176176  23.6572742
  30.1315022  55.7977390  23.1659818  30.0444078  56.3455105  24.5742941
  20.6912875  44.1475296   3.8951617  20.7807636  43.4820700   4.5773563
  20.2841592  44.8917961   4.3385020  18.4644496  46.1830854  21.8840790
  18.8094747  47.0356035  21.6187429  18.4732664  45.6609249  21.0818911
  19.4624782  52.0971441  68.1521177  19.8313153  52.7447796  68.7527466
  19.2410672  52.5975895  67.3667717   2.5411341  55.9881830  14.0006554
   2.2386535  55.2707672  13.4438288   3.0186906  55.5565453  14.7090781
  65.3533173  38.1524873  28.9683437  65.0220633  37.6802611  29.7322178
  65.0647116  39.0554142  29.1012478  22.1258807  52.8550720  50.0281143
  22.4013162  53.6216879  50.5307770  21.5306020  52.3863459  50.6130695
  59.4906425  46.8021965  43.8440084  58.6115837  46.5767527  44.1484118
  59.8367691  47.3836327  44.5210314  21.9827604  24.6115685  11.0268593
  21.5751290  23.9738703  11.6128707  21.4486456  25.4001451  11.1222351
  53.8820974  17.1142769  -0.1540527  53.8406316  16.4734936   0.5558100
  53.0496065  17.5838089  -0.1018057  79.6121693  58.6372852   2.7630830
  79.7597218  59.5830154   2.7554277  80.2684784  58.2875919   2.1604115
  43.2614183  48.4181499   3.4991804  43.9936590  48.3361721   2.8881669
  43.5672379  49.0424967   4.1571257  24.3065381   5.0957072   1.2406829
  25.1918340   4.8619664   1.5196958  23.7327170   4.5868328   1.8134025
   6.2441635  44.6003485  15.6228495   5.8802187  45.0227022  14.8447800
   5.5008382  44.5174551  16.2202013  22.9238272  35.6244087  55.3769064
  23.5505891  35.0646949  55.8352995  22.2105312  35.7481194  56.0031128
  20.2792287  25.6621861  34.5317245  20.9107208  25.1184654  34.0607500
  20.6638002  26.5386820  34.5222688  45.4922247  37.5475526  15.0091207
  46.1351633  37.9266667  15.6084001  45.0586176  38.3036327  14.6134484
  11.4114976  30.2373838  56.7141342  11.5000534  29.2915368  56.8314362
  10.5130434  30.4289985  56.9830132  49.1009426   3.2252502  22.1150661
  49.7282743   2.6620412  21.6617656  49.2075777   3.0060795  23.0407143
  58.4014177  72.1860218  46.7814779  58.4969282  73.1058455  46.5344095
  59.1344738  72.0198488  47.3741388  62.2648478  21.6116810  35.2532268
  63.0219507  22.0426679  35.6498027  61.5188599  21.9130087  35.7718182
   7.4826872   1.5072204  63.1380510   7.0804334   1.6865635  63.9879084
   7.3206353   2.2986221  62.6245785  13.5287523   5.9665322  55.1164436
  14.4124269   6.2892318  54.9397612  13.2496333   6.4471084  55.8957815
  25.5619550  49.3954563  40.2465582  24.6137929  49.5175076  40.2947998
  25.9103608  49.9467516  40.9472132  14.3696713  34.5544481  60.4166317
  13.4606421  34.4578385  60.7004690  14.7502697  35.1743388  61.0388136
  52.5780916  28.1549883  63.8366461  53.0382586  27.3226571  63.9448118
  51.6560650  27.9387569  63.9757395  41.6227341  68.7243223  28.3644176
  41.1263514  69.4654274  28.7116885  42.5149393  68.8638306  28.6818171
  38.7612677  67.1992111  55.2271843  38.8373041  66.4805746  55.8548880
  37.9862499  66.9832516  54.7085905   2.0242952  67.1274471  56.6662025
   1.3284166  66.5443230  56.3629723   2.7601597  66.5448046  56.8539858
   5.0617254  15.9296536  60.2377796   5.6981927  16.0222423  60.9467030
   4.2752078  16.3674080  60.5633450  64.0675354  30.6247878  49.1611338
  63.9290047  30.1647425  48.3332443  63.8298130  29.9857354  49.8329449
  16.5146136  12.9797423  30.4349136  16.1552322  12.8940475  29.5518899
  16.7159343  13.9114523  30.5221891   3.8865399  54.9995518  24.7380304
   3.7377793  54.0931749  25.0074434   3.7794188  55.5088615  25.5413723
  63.5445499  60.7429790  38.4519982  64.0666533  60.1308250  38.9705634
  63.0598927  60.1871729  37.8417373   1.5751228  22.9030204   6.2986684
   1.4381728  23.8374186   6.4548057   2.2031492  22.6374555   6.9704497
  19.1509151  71.1313534  46.0558367  18.5506213  71.8429089  45.8331966
  19.2105544  71.1582804  47.0107985  15.0646567   4.9153247  45.4868126
  14.9206400   5.6106651  44.8449421  15.2423227   5.3782219  46.3055849
  78.3550119  56.7510462  53.3454466  78.5566282  56.2320137  54.1240311
  78.2097769  56.1027098  52.6563931  43.1540585  75.9157944  23.0639768
  42.9758644  75.8280420  22.1276140  43.2582760  76.8574238  23.2007408
  16.5838814  50.2073956  49.0166759  17.1704304  49.4628477  49.1502428
  16.8874848  50.6083918  48.2022667  12.1113455  66.8697739  39.2426395
  12.4034226  67.4553967  38.5440922  12.8261447  66.2410450  39.3426180
  21.0281920  73.3849144  66.8907452  20.4122066  72.8012371  67.3335934
  20.9298730  73.1765652  65.9616804  25.7149339  67.2492075  25.8025002
  25.3146076  67.6385450  25.0250769  25.4981542  67.8541040  26.5119624
  63.2072306   5.4470885  60.1248026  63.2085657   6.0084021  59.3494606
  62.6365089   4.7154495  59.8898363  83.4650517  11.0190380  16.3073575
  83.5001755  10.0778461  16.1366045  82.8596401  11.3595176  15.6487334
  60.6302214  53.0123329  36.7097068  60.3702593  53.5075140  37.4865294
  60.9069443  52.1613836  37.0496178  77.6724577  58.0960464  30.9276938
  77.4056482  58.8227558  30.3647232  77.1851349  58.2312250  31.7403889
  32.4336028  11.4079869  47.7943611  32.7346349  10.7564974  48.4277439
  31.8197680  11.9539189  48.2856798  17.3971200  65.2256775  10.3845000
  17.9328668  64.5516205  10.8026540  16.5021586  64.8914146  10.4440427
  36.6713095  71.4394617  55.3730536  36.2167001  72.2738600  55.2575541
  36.2816548  70.8615828  54.7169590   3.5024235  62.6085711  47.1649981
   3.5567090  62.1358013  47.9955244   3.8497299  61.9953918  46.5172100
  21.9317297  63.0281615   0.1758232  21.4829640  62.9415678  -0.6652174
  21.5738205  63.8300132   0.5568304  66.4327955  74.0656757  53.7341118
  66.6897583  74.3525887  52.8578234  66.1430073  73.1612492  53.6146402
  71.8696833  27.8625512   1.6663684  72.3140478  28.1173992   2.4749634
  72.5461149  27.4257922   1.1487619  53.3063650  23.4461451  53.9115095
  52.7236891  24.1070700  53.5374832  54.0180731  23.9500690  54.3061829
  14.0309238   8.8793379  52.5943136  14.9616122   9.0636772  52.7210903
  13.7538671   9.4987500  51.9191837  40.0042677   0.6167079  53.7289715
  39.2857075   0.0214161  53.5156012  40.3565645   0.8811792  52.8791618
  51.6904974   9.4837219  62.9520845  51.8708897   8.9011890  63.6898804
  50.7516575   9.6608478  63.0107403  52.0512247  71.0487127  46.9128609
  51.7001772  71.6796780  47.5412560  52.7398920  70.5896282  47.3937082
  77.4332237  38.3745766  55.1236677  77.1378994  39.0719509  54.5382786
  78.2540655  38.0692029  54.7374058  17.1311176  16.7813277  61.2917852
  17.5834584  16.9111180  62.1253157  17.8313088  16.7647660  60.6393337
  10.7408941  50.2360487  49.4556141   9.9785256  50.3692722  48.8923407
  10.7819366  51.0264158  49.9940109  76.1584377   2.5844991  30.1430011
  76.3034105   1.6451800  30.2565527  75.2543116   2.7231282  30.4250693
  20.5978775  16.9551551  45.4514694  21.5011096  16.6626823  45.3295422
  20.6198478  17.4708176  46.2575960  21.2552977  13.3731306  46.6377926
  21.9764066  13.9676607  46.8446064  20.5696034  13.6007845  47.2656679
  34.1005754  15.0743437  11.2578523  33.9894152  15.8156896  10.6626368
  34.6796083  14.4744289  10.7876873  49.3918943  71.5839291  45.9797907
  50.3395128  71.6372490  46.1039543  49.0835333  71.0535336  46.7145205
  46.0322237  69.7061253  53.8333654  45.1494503  69.8857689  53.5098362
  46.6105938  70.1294708  53.1989384  56.5275145  55.7690716   9.5201355
  56.7786598  56.0202694  10.4089880  56.0033989  54.9763012   9.6343392
  73.4875202   7.2244412  21.6758728  74.1065836   6.9563055  20.9968352
  72.8081036   6.5503633  21.6602659  61.4670992  12.0858014  43.8988686
  61.1659098  12.9064667  43.5089588  62.2476959  12.3293340  44.3964577
  30.7722259  75.4450512  23.0217099  30.2806234  75.7952404  22.2787952
  30.5030870  75.9866047  23.7636757  65.2054977  26.5716863  49.2688131
  64.9531221  27.4245620  48.9150620  65.0671625  26.6533351  50.2124405
  54.6688223  58.6944342  15.0883758  53.7967873  58.7355852  15.4809248
  55.2015543  59.2800522  15.6264043  41.7454338  18.2587576  49.3275356
  41.9617033  18.6372507  50.1797104  41.0262012  17.6539695  49.5096540
  45.9526300   9.2478806  58.1441212  45.3284883   9.9201810  57.8708220
  46.7596722   9.7296923  58.3251476  38.8281822   2.0171225  46.3894415
  39.0623260   1.8909848  45.4699326  38.7365007   1.1300216  46.7371178
  21.9461465  20.1044655  42.5133705  21.2466860  20.0072694  43.1595469
  21.7993307  20.9690285  42.1296978  74.6133661  17.6085591  13.9238489
  74.1008854  18.4043860  14.0661705  74.0599728  17.0642889  13.3637094
  72.2303915  71.7092133  58.4715700  71.6910601  71.1426640  57.9198694
  72.1035862  71.3712835  59.3581104  14.6774888  21.9653487  46.3814402
  13.8213003  22.2231507  46.0398054  14.6590400  22.2325635  47.3003960
  74.2894983   8.2997555  41.5399122  74.7720337   8.2809758  40.7134485
  74.4530201   9.1743320  41.8929100  47.0821142  14.8659658  54.4567585
  46.7995405  14.0945840  53.9654827  47.9153204  15.1133406  54.0557623
   7.2962314  71.9112158  59.5797062   7.9739439  71.3248539  59.9160337
   7.0164508  72.4166155  60.3429413  70.3740168  24.3309641   9.6388429
  69.6634579  24.4454432  10.2698982  70.1246405  24.8796487   8.8952118
  48.5102510   0.7797227  56.0391474  48.9834738  -0.0520085  56.0164213
  48.5298443   1.0912402  55.1342726  39.3613791  23.7121272  44.9925661
  40.1509666  24.1727781  44.7087002  39.6313548  23.2353377  45.7774353
  70.7197189  78.8452053  64.3279123  69.8994780  78.4367371  64.6046591
  70.4503632  79.6596909  63.9033031  27.2935247  72.9505014  11.0584295
  26.8010497  73.5803843  11.5846837  28.2087493  73.2063580  11.1730218
  31.0209227   8.2810789  48.9657927  31.4603639   7.8531456  48.2309484
  31.6285038   8.1820530  49.6987772  42.4553537  14.4058383  33.6410189
  42.7039146  14.8672438  34.4419909  41.6798925  14.8711658  33.3273816
  65.0002861  42.8593254  13.5216451  65.8997679  42.9533434  13.2080758
  64.4734001  42.8029776  12.7244949  45.1370287   5.9481359  55.2468014
  45.1144361   5.0695270  55.6259727  45.8382177   6.3954908  55.7205486
  55.6319618   9.6358079  65.1822472  55.3068113   9.2438912  64.3717432
  55.1424932   9.1930962  65.8755398  47.6357508   4.7189113  62.3863411
  47.9771233   4.9309874  63.2550859  46.9275141   5.3476322  62.2472572
  59.7078705  55.7627773   7.7647591  58.8931894  55.7762718   8.2670981
  59.9887705  54.8480272   7.7884984  76.2114286  45.8052731  59.8577547
  76.7696285  46.4590788  59.4368267  75.4783344  45.6911373  59.2529631
  65.8310509   9.0749282  45.9533167  66.7599916   9.2964703  46.0183048
  65.5957127   8.7698507  46.8295479  53.0289173  12.9742610  29.0051126
  52.8017282  13.9022446  28.9462543  52.5138426  12.5572991  28.3144093
  79.4546175  53.2796001  67.9564714  78.6066818  53.7164402  68.0364943
  79.7563791  53.5018635  67.0756912  79.6746874  76.0734892  37.6244998
  80.3478622  76.7533827  37.6530099  79.8292255  75.6179810  36.7969346
  36.1949205   0.8814631  50.8524323  35.6029153   1.4804888  51.3073301
  36.2672138   0.1266079  51.4365530   5.5809546  74.8948812  12.9596865
   6.0878772  75.1820469  13.7191594   4.6771127  75.1262617  13.1736147
  83.1517792  64.8908281  11.6815817  83.4271908  64.1547394  12.2279787
  83.3409214  65.6657791  12.2106469  43.4791136   2.5862750  49.5263195
  43.5242939   3.4742320  49.8808956  44.3117952   2.4682514  49.0692091
  35.9113336  29.2886353  64.6615696  35.6725407  28.8612318  63.8390493
  35.5843377  30.1835966  64.5701885  81.0680962  44.3917227   2.0034744
  80.6557560  43.5532808   1.7955776  81.3039017  44.7602844   1.1521298
  48.3143520  17.1143103  59.3680525  48.5591078  18.0292261  59.2292881
  48.6186266  16.9166791  60.2538252  59.0218067   1.1596943  50.3767395
  59.0559006   0.7418634  49.5162249  58.5797977   0.5207749  50.9358835
  64.7093105  54.0685987  42.5250006  64.8355722  53.4524298  41.8034601
  64.0939951  53.6281443  43.1111956  45.7837677  10.8869159  22.1813869
  46.7129421  11.1166656  22.1903253  45.3389978  11.6974509  21.9335008
  74.0785503  19.0126204  18.7699533  74.5752573  19.2352247  19.5573294
  73.2075119  18.7825084  19.0933263  48.0039835  19.9550581  54.0619230
  47.3456764  20.5853796  53.7694216  48.8399267  20.3476238  53.8102913
   1.3626176  34.6432614   8.9162731   2.1937564  35.1014066   8.7916070
   0.7761082  35.3060651   9.2808652  71.6726685  26.1245203  58.7854958
  71.3599014  26.9821596  59.0733576  72.5330448  26.0335207  59.1950083
  73.7952709   3.5129949  16.4425945  74.2037868   3.7698147  15.6159210
  74.3980837   2.8714880  16.8185198  36.0966516   6.4859563  66.9551563
  35.6080198   6.4266849  67.7761030  35.9338713   7.3761612  66.6432762
  75.8399391  20.9648395   1.9843794  74.9992180  21.4194274   1.9317575
  76.1865520  20.9983325   1.0927687  12.9119360  25.4862237  45.6114292
  12.0804131  25.4099894  45.1434660  12.7302682  25.1318789  46.4818716
  61.4071131  36.0545754  46.7967844  62.3218918  36.0712147  46.5154791
  61.3103533  36.8344712  47.3432541  79.0502691  17.9058146  29.1923428
  78.9011955  17.7583659  28.2583880  78.4195900  17.3331797  29.6288848
  52.1941185  29.9118471  57.7820921  52.7595043  29.1861534  58.0465508
  51.8189001  29.6312547  56.9473982  27.2288108  31.5031600  60.1047421
  26.8943596  32.1904945  60.6808901  27.9613709  31.1209869  60.5879879
  27.0591497  21.4699006  56.1825609  26.6987419  22.1420908  56.7609215
  27.4713039  21.9612312  55.4719543  33.1349039   6.8777990  38.2235551
  32.8678823   7.6366472  38.7422848  33.9663458   6.6036797  38.6105919
  81.4678574  51.7605257   2.0810418  81.0629177  51.9229889   1.2290668
  82.2864628  52.2559690   2.0555337   4.0479052   5.8271492  33.0155921
   4.3493533   6.5821016  33.5209703   4.0718883   6.1230642  32.1055961
  79.4789028  17.6471031  38.3769655  79.1057920  16.7656171  38.3787274
  78.9559698  18.1298113  39.0170956  16.5732181  17.8544605  47.3372793
  16.2446702  16.9950116  47.0733929  16.0540032  18.4762621  46.8273640
  11.9757330  22.4241304  60.7188988  11.6893911  22.7827883  59.8788977
  12.9270852  22.5295830  60.7125521  18.8681722  69.0202284   0.7894017
  18.6228859  68.2807207   1.3454586  18.5206020  68.7963772  -0.0739162
  19.1196287  73.2534695  52.0955849  18.5079944  73.7679768  51.5688801
  19.1843486  73.7312937  52.9224634  79.5083094  11.4312291  41.0579252
  79.6540785  10.5050015  40.8653450  79.6740389  11.5094972  41.9974136
  11.4089239  60.7855225  56.0607815  10.8763373  60.2968836  56.6883278
  10.7746887  61.2829876  55.5445385  42.9352951  15.8248889  49.3588305
  42.5325108  16.6879153  49.4546604  42.6090002  15.3239477  50.1063728
  37.1049070  52.7775717  16.3168466  37.6151299  53.5743666  16.4618325
  37.5404286  52.3445559  15.5826449  41.5324211   1.3061786  55.8771467
  41.2397861   2.1728337  56.1591148  40.9133720   1.0557303  55.1913786
  39.0606403  11.3282239  58.3369017  39.2442060  12.2003615  58.6860609
  39.8678851  10.8358526  58.4857512  55.9180403   0.3232402  49.1551876
  55.7162523   0.0065668  50.0356579  55.9239388   1.2767373  49.2390919
  34.3393946  22.7725148  22.0314217  34.0076995  22.5537705  21.1605811
  33.5632110  23.0415201  22.5227547  81.0326195  57.0385408  60.7698917
  81.9367695  57.3527861  60.7683182  80.7022572  57.2551394  59.8980093
  33.0195951  69.2106342  65.1873016  32.3191357  68.9477777  64.5902300
  32.9153752  70.1579523  65.2764940  36.3002729  66.4420938  23.3384299
  36.3266969  66.8891764  22.4924684  36.7173958  65.5961323  23.1753850
  72.3181868  72.6355648  33.6076522  71.7576170  73.3036375  33.2131028
  73.2006931  73.0027103  33.5565424  63.3133888  29.3941712  54.9830818
  63.1400728  30.1403475  54.4091368  64.2631769  29.3988943  55.1018667
   0.4062673   0.2204839  37.7630997   1.0489038   0.3624002  37.0680380
  -0.4002963   0.6112891  37.4270082   7.1488059  77.5176334  65.4265118
   7.5659078  77.8783369  64.6441078   6.8218136  78.2835865  65.8983374
  52.1814156  12.0397770  55.7890844  51.2823153  12.3541057  55.6939650
  52.5770330  12.6347756  56.4260244  66.5071678  59.3244028   8.3298749
  66.1307955  58.7148476   7.6950395  66.1180544  59.0695095   9.1664457
  39.2044473   4.3037152  52.3103714  39.7365355   4.6147746  53.0427361
  39.7012281   3.5701600  51.9479656  25.2064466  10.1659656  28.9444280
  24.2780137  10.2020943  29.1745090  25.3101945  10.8295619  28.2624388
  54.1001654  76.4919138  44.1510153  54.5660830  76.8009853  43.3740807
  54.5898867  75.7190800  44.4323349  58.1914520   5.0654775  22.1268678
  58.0972528   4.8668405  21.1952543  59.1179323   4.9119106  22.3120213
   1.0623688  75.0225019  20.8554006   1.9122446  75.2660036  21.2223482
   0.8556729  75.7273340  20.2416253  38.9935184  15.4546511  56.4076138
  38.9964151  16.4072132  56.3135433  38.2053208  15.2666926  56.9171762
  35.4234958  30.2689672  14.6775401  34.6211529  29.7508073  14.7407031
  36.0990405  29.7126389  15.0653136  61.3820314  58.9933014  58.5209751
  62.1818542  58.4759665  58.6151981  61.2572718  59.3997622  59.3785620
  73.7409496  56.7881250   4.4404295  73.8835001  56.8871975   5.3817564
  74.6111202  56.6094398   4.0839109  45.2412987  29.3605018  14.5158303
  44.3739939  28.9570808  14.4802547  45.0669575  30.2913141  14.6551991
  39.8199749  19.1316676  20.1721668  40.1326561  19.9678934  19.8269296
  40.2440500  19.0516782  21.0265636  53.6751795  27.1638775  67.1684361
  53.0383062  26.4683461  67.0045280  54.0719461  27.3316360  66.3136482
  19.1638029  36.9464588   1.2085635  19.1117454  36.0434389   1.5217410
  19.7797775  37.3717403   1.8051711  12.2923863  70.4573965  65.6191492
  12.8813350  71.1597109  65.3432417  11.4642441  70.6532621  65.1809168
   4.5014182  65.4940128   0.2764054   5.4574168  65.5350113   0.2515411
   4.3034124  64.5599318   0.3435910  14.3656719  40.8501959   8.0907047
  14.4588876  40.1291466   7.4681026  14.6592295  41.6228914   7.6080102
  68.5614443  65.1016998  53.6434460  67.6152706  64.9625301  53.6032534
  68.9142132  64.2639875  53.9434910  57.6483011  66.6687536  16.2113082
  57.0062447  67.3257637  15.9423554  57.4470329  66.4999151  17.1317530
  45.5394697  28.2041216  55.8010578  45.7927370  29.0221167  55.3733063
  45.4065180  27.5882149  55.0804901  47.6955318   2.6627213  43.7236071
  47.5505304   3.3926472  44.3256140  46.8282652   2.2761479  43.6026049
   1.6558699  45.6768227  57.0750570   0.9116591  45.1218843  57.3083496
   1.4521961  46.5269804  57.4649096  32.9429007   8.3153975  50.9760809
  33.5062265   7.5682962  51.1779165  32.6722026   8.6492151  51.8313742
  29.0186048  71.3590670  67.0720196  28.2986975  71.8011379  67.5220633
  29.8094153  71.7246532  67.4685001  -0.1508499  50.6265354  40.9846020
  -0.0214504  51.5327358  40.7048082   0.6340301  50.1685953  40.6837940
  28.1602049  77.5640583  23.1585670  27.4510789  77.1651888  22.6543093
  28.8016105  77.8309679  22.5000954   1.1475724   2.1394970  33.8947701
   2.0139718   2.3328795  33.5367370   0.5373024   2.5301969  33.2693458
  53.5119438  28.8408232  60.8385849  52.6211596  28.5145879  60.9662676
  53.6689377  29.4098186  61.5921307  25.2842546  76.6979599  65.5815268
  25.4569316  76.6466618  66.5216208  25.1244664  75.7918549  65.3175640
  41.7915344  63.6906242  43.7732601  41.2540913  63.9265060  44.5293951
  42.6842260  63.9174366  44.0338087  72.2293663  43.9633942  16.8870974
  72.1262789  43.7477350  17.8139710  73.0492067  43.5400295  16.6324270
   9.5023412  25.4780340  49.9921894   9.6557134  24.5572448  49.7803926
   8.5603094  25.5331850  50.1527119  46.3998699  65.3726864  28.6612868
  45.7334518  65.6871319  28.0503488  46.3729763  64.4197273  28.5754037
  62.2263050  11.8709922  54.4676876  62.9446840  11.3116109  54.7630692
  62.5980997  12.3767114  53.7450218  65.9246254  53.1659079  27.9262376
  65.5838776  52.6521492  28.6584783  66.8316841  52.8752756  27.8313303
  47.0028687  39.7708535   3.3059725  47.3841238  40.2673340   2.5818303
  47.6595402  39.8182297   4.0007865  38.5990596  18.2992911  24.3943477
  39.2878056  17.7590919  24.0069914  38.3458090  17.8305686  25.1895809
  62.2020578  24.9334359  24.0590429  61.7449999  25.7273197  23.7814140
  62.4572706  24.5057249  23.2416320  44.4753504  33.2812047  64.2316484
  44.8193789  32.8301644  65.0026464  43.8099194  33.8752961  64.5787621
  53.8709593  49.7948027  10.4477334  53.0381346  50.2569628  10.5428410
  53.6627293  48.8822699  10.6481171  39.8662758  73.6071920  36.9899416
  39.3766093  74.3965912  36.7590594  40.3803158  73.4068441  36.2077260
  79.3073225  62.0856380  61.6234827  79.2110968  62.9410601  62.0420790
  80.1845932  62.1034813  61.2409878  79.6989536  53.8575602   5.2065694
  79.7862816  53.4938478   4.3254799  78.8079977  54.2063379   5.2344871
  25.3850126  61.8473959  41.3730717  26.1871266  61.7901945  41.8922758
  25.6890678  61.8896770  40.4664373  59.7928810  51.3159609  10.1751041
  60.4560852  51.6321707  10.7886207  59.0422106  51.0954380  10.7265496
  43.3145666  33.1246781   7.1638656  43.1072474  33.1455874   8.0981100
  42.4658918  33.0257821   6.7323524  54.0578079   5.2907819  27.5643873
  54.1525173   5.8869684  26.8215394  54.1646719   4.4179934  27.1861649
  42.5361109  32.8051972  14.6432328  43.1496048  33.4573007  14.9817848
  42.7619553  32.7221370  13.7167752  31.4380312  71.1228609  20.7440901
  30.5136538  71.1905050  20.5049586  31.8900776  71.6841936  20.1141787
  48.0267906  69.9531317  52.1312189  47.7430582  70.3239775  51.2956381
  48.7731314  70.4929018  52.3917246  68.3191395  13.5096443  60.1096106
  68.2664204  12.7361774  59.5481825  68.1821775  14.2470646  59.5148993
  43.2403326  60.7197952  44.9676323  43.9396572  60.0760603  44.8545694
  43.5584784  61.5010214  44.5151949  68.4744787  26.7585731  49.5287800
  68.6305046  27.3099875  48.7620783  67.6321840  26.3386321  49.3543673
  37.9555726   7.5897574  18.0259883  38.7209702   7.0370132  18.1836963
  37.8578115   7.5974822  17.0738256   2.1663211  18.2565224  13.7479782
   1.5270214  17.9913151  14.4091845   1.6372691  18.5135365  12.9928100
  75.7300711  65.9567308   2.3446901  75.0167418  66.5834665   2.2238831
  76.1609507  66.2369919   3.1521714  58.1481314  58.6318445  52.4802160
  57.8130484  57.7655649  52.2488928  57.5472355  59.2428064  52.0537424
  42.3069620  14.2544401  28.8635206  42.7444458  14.3965924  28.0240965
  42.9746819  13.8477242  29.4157577  61.1396837  23.9850712  56.2650967
  61.5858746  23.5851383  55.5186367  61.5734673  23.6109376  57.0319653
  30.8472872  67.0853853  58.7994862  31.3453555  66.3510513  58.4404421
  30.3176403  67.3971462  58.0656528  40.6451321  25.3923583  65.3112411
  41.1407948  25.8798933  64.6533203  41.2777233  24.7752452  65.6789827
  68.3928394  14.5105052  52.0268536  67.9062843  15.3346682  52.0427942
  69.0291071  14.6216238  51.3204193  34.1294646  22.5654268  46.7794418
  33.5069871  22.8379059  47.4536133  34.5075750  23.3838177  46.4577293
  65.0091553   8.3966595   7.4154085  65.3846931   9.0860504   6.8677354
  65.0444651   7.6111853   6.8695009   5.9717917  47.6673079  67.1484089
   6.4168853  48.4678984  66.8706036   6.0969794  47.6405096  68.0970097
  23.7666655  64.5266247  28.6968040  24.3376637  64.6360111  27.9363918
  23.2292581  63.7633753  28.4849644  49.4540930  25.3636718  44.2174244
  49.1872358  24.5295477  43.8310909  49.4009495  25.2180362  45.1619864
  41.3856792  67.2917747  51.8708801  41.4449692  66.3704729  51.6180563
  40.4475451  67.4817896  51.8652487  57.6907969  18.5318351  55.8724070
  57.1322632  18.9440560  55.2133560  57.6513100  17.5972879  55.6691980
  39.6617556  28.0935431  66.2426281  39.1661358  28.6468887  65.6389761
  40.1134396  27.4670005  65.6772470  50.3242207  26.3730145  63.8077784
  50.4029179  25.6426597  64.4214773  49.3842649  26.4469266  63.6427069
  38.0455256   8.2898074  23.9149785  38.5457134   8.7004036  24.6202850
  38.5183072   8.5262686  23.1169844  35.5905843  15.0062466  37.0683813
  35.8594394  15.6714070  36.4347363  34.6722722  15.2059507  37.2501922
  69.9328041   7.6023620  54.3062019  69.8817158   7.6728302  53.3529663
  70.5153561   6.8586868  54.4605112  37.1156406  70.0875473  68.8126421
  36.9022369  70.8367825  68.2564640  38.0675554  70.1225805  68.9067936
  56.6828012  76.5011597   5.2287191  55.7757807  76.4795732   5.5338097
  56.6370630  76.2032557   4.3202087  27.7769160  67.8489256  41.3123655
  27.3961949  66.9707966  41.3256025  27.9756641  68.0099344  40.3899765
  49.2319202  62.2166443  65.6009150  50.1856279  62.1607637  65.5413008
  49.0695620  62.6601982  66.4334631  76.4586449  59.2536688  14.3763208
  76.5533686  59.0817356  15.3131759  77.1807814  58.7739754  13.9705575
  51.2506485  29.6964765  15.7196438  50.5494356  29.7800231  15.0734591
  51.0623646  30.3763032  16.3666499   0.5102370  62.2702932  60.3801060
   0.4197495  62.5395870  59.4660378   0.9476461  63.0081177  60.8049870
  28.9698625  68.0633211  38.7914181  28.8762808  67.5697327  37.9766536
  29.9137092  68.0893946  38.9486003  22.2362781  51.4617348  59.3449354
  21.4818978  50.8842421  59.4617653  22.7185893  51.0802794  58.6113834
  48.7700272  13.2553506  67.8203678  48.1297398  12.7827704  67.2884512
  48.9018297  12.6983571  68.5875797  10.3758287  76.4770794  17.7512741
  11.1482263  76.0370684  18.1062710  10.5443430  77.4085522  17.8933573
  63.3041668   3.5701841  57.5500917  62.4212790   3.3087164  57.8115749
  63.3249855   4.5168421  57.6902199  53.0551577  72.7051640   6.3607550
  53.1402493  72.6837111   5.4075855  53.2179880  71.8030071   6.6361225
  29.5124006  23.0850720  37.7689886  30.3677368  23.5085964  37.6964664
  29.3324256  23.0681920  38.7089658  23.3653522  25.8493567  40.8921909
  23.7003040  25.1859975  41.4955091  23.2118273  26.6176128  41.4421368
  21.5479302  20.2657676  54.5013046  20.6357884  20.5551243  54.4788218
  21.5057206  19.3264616  54.3219852  40.1851320   8.1417394  38.6394167
  40.4855490   8.1842077  37.7315760  40.8029270   7.5499034  39.0687037
  15.0518882  17.6342189  49.6887922  15.6162155  18.2087255  50.2061987
  15.4357016  17.6477849  48.8120174  46.4917231  31.1369920  55.6151390
  46.1285448  31.7450023  56.2590742  47.3926020  31.4339471  55.4868174
  55.7131481  38.7562847  60.7371521  55.5490112  39.4829130  61.3382387
  56.5857410  38.9299417  60.3840876   0.1927393  55.3633118  15.1393700
   0.9515791  55.8393145  14.8020041  -0.5486246  55.7134438  14.6453846
  66.2838078  30.3754354   0.5406925  66.2617731  31.2342930   0.9627242
  65.7784605  29.8090029   1.1237937  36.6601920  54.3722439  21.7185473
  36.3240242  53.8558722  20.9860301  37.5976825  54.4541836  21.5435290
  27.4954724  65.8279228  52.4191284  27.4982882  65.7446575  53.3726978
  28.1517243  66.5001059  52.2354603  70.0688648  48.4275341  10.5223608
  70.1350784  47.6169395  11.0271251  69.1798782  48.7411547  10.6884277
  18.7175834  18.0490887   8.9026678  18.3581960  18.8251197   8.4727281
  18.1081653  17.8678608   9.6182090  75.8437872   0.6851233  25.0636125
  76.0443068   1.1323624  25.8858061  76.6963387   0.4097199  24.7266555
  48.9621925  27.8657913  61.0014343  49.0850401  27.4042463  60.1719046
  48.2343388  27.4096560  61.4238071  57.1234512  17.7605307  49.2917013
  56.3757896  17.2693932  48.9510918  57.3536301  18.3658004  48.5867929
  84.3826962  70.7466030   7.8138232  84.4840145  70.6730843   6.8648446
  83.5418701  70.3279114   7.9980701  74.6597624  37.1714878  20.1596928
  74.0375137  37.8976202  20.1176167  74.4158363  36.6043448  19.4282019
  30.6401491  12.6648557  61.6699076  30.4973602  13.5545874  61.9927359
  29.7789407  12.3797905  61.3644743   8.4897679  76.8219709  55.7960701
   7.9582798  76.5443659  55.0499535   9.3848640  76.5842104  55.5541897
  82.7622318  10.7488728   6.6112810  82.3370457  10.6185973   7.4589097
  83.4447002  10.0784218   6.5801024  74.7989464  18.5073781  51.1347008
  74.2023849  17.7594447  51.1654568  75.6609678  18.1338906  51.3181591
  81.5688992  54.9520302  33.6726356  81.7209530  54.2789221  33.0092812
  80.6230068  55.0974894  33.6538339  38.2546043   3.2004896  30.1562333
  37.4865842   2.6996624  30.4310966  38.9470935   2.9262981  30.7574892
  13.3631194  19.0017843  19.3407333  13.4410822  18.2892513  19.9751234
  12.8278685  18.6373520  18.6358023  78.2393026  15.8552480  40.6339884
  78.2127476  16.6055655  41.2277460  77.7082586  15.1874876  41.0679483
  30.3224564   5.1555699  45.4011059  30.5321908   6.0122365  45.0291300
  31.1326885   4.6529430  45.3167200   4.1224369  53.4617662  13.1552851
   5.0729221  53.3486462  13.1515217   3.7917703  52.7272511  12.6381969
   9.8240811  54.6801710   7.0614576   9.9906838  53.9080715   7.6021439
  10.0262344  54.3963957   6.1699212  83.4471989  71.8053675  52.1249866
  84.3824100  71.9681931  52.2479057  83.4017563  71.2409925  51.3532066
  60.4682589  13.5214853  13.5976040  60.4274750  12.6269996  13.9359295
  59.5677376  13.8407612  13.6555457  60.7055426  39.0713024  59.3428230
  61.4543056  39.6628499  59.4180393  60.9120226  38.3472323  59.9338531
  55.5821609  10.9530163  40.4192114  55.5561972  11.7756748  40.9078741
  55.0607586  11.1237860  39.6348596  57.6050138  19.8854268  35.6293869
  57.6371336  20.7845807  35.9560680  58.5066843  19.6912444  35.3734136
  54.6403027  25.0157976  56.0889912  55.2994108  25.6695938  55.8558416
  55.1471090  24.2419481  56.3350248   4.0584043  20.8181119  19.8001933
   4.1399330  20.0245571  19.2711830   3.1153145  20.9311366  19.9186814
  33.6667299  45.1038361  27.7910233  33.4331846  45.5916500  27.0012593
  34.6087885  45.2426338  27.8884602  69.2749882  67.1572399  10.7603598
  68.5311127  66.5830040  10.5783129  69.3310547  67.1810102  11.7156196
   2.6064214  79.1580391   4.2290699   2.3510137  79.7276258   3.5034192
   2.0428552  78.3894634   4.1400874  66.8449879  77.7440691  45.4127884
  67.3957586  77.3533440  46.0911846  67.2079182  78.6205292  45.2849913
  73.2213926   5.1582932  44.6747017  72.3535061   4.8402786  44.4259691
  73.5116148   4.5532700  45.3573084  79.8510599  14.2824256  35.0103641
  80.1021862  14.7079015  34.1905236  79.2998409  14.9262071  35.4552627
  58.5254478   4.2320088  33.7654233  58.6884689   3.3014038  33.9191461
  57.7899837   4.2483672  33.1530046  40.4958153  29.6957588  68.4061718
  39.8702478  30.4200339  68.4241581  40.0965071  29.0487742  67.8246307
  65.0498247  35.6142807  53.9313650  65.6029272  34.8935676  54.2328358
  65.0775003  36.2519908  54.6446609  74.8052740  29.2232323  45.7132053
  75.4882812  29.2052794  46.3835812  75.1601839  28.6985779  44.9955654
  32.3099279  67.0450497  23.6304116  31.5533710  66.7740583  23.1103921
  32.8382111  67.5700331  23.0291271  50.5933189  22.2512412  51.6780472
  51.0598135  21.8622446  50.9382534  49.7984934  22.6201153  51.2927914
  77.7750254  41.2904263  49.9985075  77.5666332  41.1362123  49.0770864
  77.4667358  42.1806192  50.1680565  31.5346098  25.7483363  54.3276596
  32.0927548  26.0519600  53.6117554  32.1225500  25.6877375  55.0805759
  76.2526274  21.5694928  27.9233742  75.8284855  22.1468616  27.2885680
  76.8938780  21.0785532  27.4095583   4.2971280  57.9258633  14.0247405
   3.8683063  58.6946249  14.4007027   3.5832530  57.3096609  13.8607037
  36.1678290  76.5113592  27.1745157  36.3772511  75.8934116  26.4741516
  35.2689075  76.2959957  27.4230909  66.0346985  26.4855623  33.2681274
  66.7255068  26.3792062  32.6141357  65.7879019  25.5911636  33.5034466
  29.7825074  75.0180531  62.7505541  29.6564817  74.5472574  63.5743904
  30.3822303  75.7306910  62.9712629  66.3979959  43.6250353  54.1158962
  65.7461166  43.6344099  53.4150410  67.0021820  44.3324184  53.8905048
  61.7886972  26.2560868  27.3307109  62.3604822  26.7188668  26.7182326
  61.9719124  25.3294277  27.1759009  68.8049793  25.8501267  59.3792677
  69.5752001  25.3219461  59.1694641  69.1234875  26.7527223  59.3690157
  35.4541278  42.9425764  29.2201567  35.6662035  42.5127268  28.3916140
  34.5296931  42.7408266  29.3649077   9.3056256  22.8392434  56.9122028
  10.2502120  22.7600956  57.0453358   8.9199722  22.4681997  57.7058220
  28.2830477  16.9107676   2.2167698  28.6285758  16.1635864   2.7051988
  27.5376534  16.5561163   1.7321658  42.0159292  16.1664832  68.7969017
  42.7675724  16.4627337  69.3102264  42.3458910  16.1091793  67.9002047
  19.5616210  14.1805995  67.5636768  20.2854347  14.0271258  68.1709385
  19.1592896  13.3197784  67.4481392  81.7979717  43.1523180  22.2015572
  81.7712116  42.7360439  21.3400292  81.8206120  42.4219608  22.8198600
  43.6515284   8.5862589  59.8781109  44.3880939   8.4947222  59.2736912
  44.0191174   9.0397757  60.6366873  80.4489517  59.5490074  22.6109171
  79.6494102  59.2811060  23.0639076  80.2100849  59.5503616  21.6840029
  26.5499425  56.8215466   2.0546271  25.6684613  56.5868473   2.3446894
  26.4892173  57.7503252   1.8312141   1.1019332  39.2631674  64.8842430
   0.9262627  40.1569128  65.1785040   0.2353907  38.8683724  64.7869158
  37.7769685  25.4412770  47.4670172  37.1859288  26.1134624  47.8062344
  38.6340094  25.8667803  47.4412775   4.1942587  51.7287874  15.9005332
   3.7744617  51.8718672  15.0522816   3.9762577  52.5090694  16.4103103
  61.2738848  16.4958715  24.7364688  60.7641029  16.2057388  25.4928923
  60.7479858  17.1943486  24.3468666  57.3059320  25.8359790  39.5233655
  56.7087030  25.5296111  40.2057791  57.2667980  25.1580119  38.8487864
  74.0753126  74.2383385   0.9212021  74.3688917  73.8728476   1.7557415
  74.7782707  74.0272856   0.3067621  51.7943001  20.8526754  68.3466864
  51.1753321  21.5783978  68.2664680  51.9642019  20.7855368  69.2862892
  10.5677748  20.5535555  46.8435240  10.2700436  20.1427150  46.0318613
   9.7617936  20.8080792  47.2927952  11.1358666  14.0111709  36.0875487
  10.4774380  13.4775269  36.5324378  10.7461572  14.8843002  36.0427809
  20.2500629  75.5406570  19.3058825  20.9685802  76.0659838  19.6580064
  20.6639528  74.9752426  18.6537838  51.1190796  17.9280698  22.3371148
  50.5802917  17.8497374  23.1243873  51.2896395  17.0240688  22.0726848
  31.4176607  29.8785996  42.2177219  31.3321209  30.4827189  41.4801884
  31.8841124  30.3808403  42.8858614  32.5545287  73.0094576  56.7597866
  32.6438642  72.5598526  55.9194803  32.3588586  72.3116970  57.3851490
  68.6207247  47.6063776  32.7243209  68.2675695  48.1920958  33.3939815
  69.3953419  48.0607510  32.3930502  25.9552407  17.1335185  27.7371621
  25.9954381  16.7054093  28.5923457  25.7254982  18.0415547  27.9344463
  19.0645254  49.1918230  64.6490288  19.9745095  49.2002010  64.3522263
  19.1110420  49.4441462  65.5712032  74.2437029  23.6280560   5.8749121
  74.7211838  23.4636641   6.6880637  74.7132969  23.1188583   5.2142823
  55.7402706  33.6221671  55.2076435  54.8565531  33.9065552  55.4408789
  55.8198929  32.7488160  55.5912447   0.4593457  48.6489582  15.5724502
   1.3223398  48.9865065  15.8123064   0.5353708  47.7006054  15.6777143
  43.7471294   5.0603646  50.4646492  44.1313124   5.0528628  51.3413334
  43.1193924   5.7827157  50.4844093  38.1607556   2.6713762   8.4714341
  38.3336401   3.3284074   7.7971554  38.7403536   1.9425401   8.2498586
  62.5393963  45.7612228  66.3719845  62.1584415  46.4010334  65.7705307
  63.3747911  45.5226326  65.9702206  81.9163513  50.1778460  12.3181367
  82.4568367  49.4130659  12.5161731  82.4032879  50.6461525  11.6400385
  18.4803569  79.3064022  41.6402531  19.4324660  79.2204714  41.6885614
  18.2654905  79.0843964  40.7342863  24.1365457  26.5867400  20.1662350
  23.4553266  27.2349143  20.3452444  24.1750026  26.5372419  19.2110896
  20.2398753  78.2755566  32.7742434  19.7733223  77.6220846  32.2531509
  20.1977396  79.0749598  32.2494507  78.9757347  32.9548264  53.5437489
  78.9952707  32.0317125  53.2913399  79.7119141  33.3471251  53.0743170
  34.5486236  11.8320131  61.4126921  35.0452185  11.2048459  60.8870602
  34.5853853  12.6466990  60.9115267  69.9610233  17.2130024  62.4406433
  70.5675650  16.9684899  63.1396055  70.1460934  18.1374979  62.2754526
  39.0919065  14.2340553  66.3427019  39.0659070  13.6979651  67.1352720
  39.0208101  15.1343179  66.6600418  22.9199767  18.2441950  59.4817162
  23.6392903  17.6982272  59.1643238  22.1940851  18.0530345  58.8877678
  46.8833685   8.6918253  51.6309214  46.9840431   9.0513104  50.7495213
  47.7232122   8.8633621  52.0569181  31.1932302  73.9412689  52.2154570
  31.8396616  73.9780331  51.5104675  30.7015109  73.1373072  52.0478487
  82.6505470   0.5905923  58.0000162  83.0243874  -0.0926708  57.4435759
  81.7101574   0.4120208  57.9995060  45.7008266  10.5963838   3.9145419
  45.8415699  10.9437478   3.0337682  46.3665533   9.9156505   4.0127441
  58.9063549  27.3669958  16.9963050  58.7313318  26.4903283  16.6541696
  58.2218170  27.5101018  17.6498806  19.9597418  52.4292994  17.6112127
  20.6177592  52.8614187  17.0666790  20.4415751  51.7388487  18.0665696
  66.0601377  42.5939322  36.8446755  66.3497829  42.1944857  36.0244441
  65.2890635  43.1066513  36.6022086  48.8250065  26.2360454  52.4220181
  48.8794851  27.1732283  52.6089764  49.0807867  26.1599302  51.5027714
  66.0519981  32.8293610  67.8876925  66.2571335  33.6434889  67.4279642
  65.1610804  32.9563975  68.2138205   8.5961270  66.6514301   5.7960361
   9.2231280  65.9958792   6.1015749   7.7483225  66.3362837   6.1093098
  51.3983631  56.5996408  33.5867524  51.0695457  57.4292612  33.2405782
  50.9454727  56.4928341  34.4232392  53.4025383  13.2881320  49.0390491
  52.6094007  13.2006609  49.5677376  53.6882782  12.3876429  48.8850927
  64.7463799  37.0144606  56.4310265  64.7111464  36.8600011  57.3750257
  63.8452911  37.2289276  56.1896229   2.3411313  47.1439362  33.5324883
   2.9751801  47.0270061  32.8249979   2.8719893  47.3795462  34.2933488
  71.7938519  56.8973637  25.6771612  71.5906048  57.5713491  26.3257480
  71.4778805  56.0837555  26.0701394   4.1992724  11.5227807  27.5173783
   3.9037865  10.7740855  26.9993281   5.1467812  11.5474868  27.3837781
  66.6837454  19.9360144  32.7203846  67.4339581  19.3438685  32.7730560
  66.0474157  19.4688404  32.1790266  52.2846937  34.9501872  56.1368656
  51.4970207  35.4605055  55.9487724  52.0832634  34.0714574  55.8151627
  28.5003543  27.1615171  40.5722475  29.1772366  26.4928174  40.6766701
  28.9802074  27.9509735  40.3217793  76.9981718  24.7370100  61.6913652
  77.9192209  24.4975352  61.7940998  76.5795231  24.4290161  62.4951696
  77.7477121  23.8857126   9.6040946  78.4088135  24.5743632   9.6743804
  77.5885439  23.6133647  10.5078220  26.5270662  78.5570908   6.2215835
  25.6169343  78.7519550   6.4450043  26.9711566  78.4859514   7.0665425
  76.9853401  10.7180738  53.2021379  76.5019131  11.4624667  53.5604811
  77.1247482  10.1396680  53.9519691  35.3177404  24.4612408   6.8183029
  35.8897591  23.6939573   6.8358171  34.4316602  24.1000152   6.8429673
  67.8119802  73.1604385  68.9115763  67.0755148  72.7387142  68.4688663
  68.5839272  72.6968575  68.5868788  51.2191486   6.8937296  38.4540629
  51.9342136   7.5289065  38.4157872  51.0519171   6.7774135  39.3893361
  72.3804808  48.5110903  42.2023916  72.1758938  48.3166456  43.1170321
  72.8115225  47.7196169  41.8798923  43.7642574   8.3262694  42.3299789
  44.3554306   9.0735620  42.4210835  42.9360485   8.6292976  42.7021027
  82.8211403  37.7501893  52.6849127  83.6426067  38.2412314  52.7023649
  82.3132610  38.1070471  53.4135675  57.9491615  21.5228271  45.5814314
  57.0300055  21.6277170  45.8271551  58.1966352  22.3705912  45.2122593
  45.3720951  75.5851269  11.6022515  45.6260729  76.0128736  10.7844734
  45.6845140  76.1751080  12.2882175  64.3974400  30.3663540  66.1844158
  65.1790667  30.6083536  66.6811323  64.7330856  29.8784328  65.4324150
  24.6325183  12.2774851  10.3675807  24.6147275  12.9020071   9.6423995
  23.8715506  11.7161679  10.2189875  38.1018782  18.4578395  43.7260914
  38.1471062  18.8078725  44.6158457  37.9350519  17.5227892  43.8447571
  28.7009788  23.7397933  47.3021841  28.8808417  22.8578186  47.6277637
  28.6359501  23.6360288  46.3528490  24.6605921  74.5456886  54.0538311
  24.4402695  75.1738071  53.3659649  25.3189135  73.9759588  53.6560154
  79.1188574  60.0789165  19.8596680  78.3227015  59.9204302  20.3668666
  78.8050842  60.4150629  19.0201533  42.5224638  59.9927998  52.7632523
  42.6222801  59.7306538  53.6784315  41.5898323  59.8772717  52.5813723
  62.9186964  40.7285976  59.4223738  63.1014585  40.9840727  58.5181808
  63.7508154  40.3843212  59.7468472   2.0092127  76.4510918  46.5974951
   1.0963924  76.6247463  46.3676357   1.9624560  75.7611704  47.2593498
   1.0437406  32.2716546  54.4056702   0.4386323  32.4752069  53.6924791
   1.8410933  31.9760704  53.9662504  68.0818939  58.7141895   0.1724344
  69.0381050  58.7327480   0.1330579  67.8845835  58.2371664   0.9785035
   7.0085412  21.6036367  18.3776140   6.1663526  21.5815544  18.8319945
   7.6399744  21.2972951  19.0285194  73.2367182   3.0877507  30.7342768
  73.0993366   2.6598549  31.5794158  72.3543978   3.2810521  30.4174519
  70.1581192  60.8103657  39.5095277  71.0308409  61.1754322  39.3635464
  70.3084469  59.8735332  39.6359301  50.7828665   5.6956118  43.7788343
  50.4038239   6.3739538  44.3377686  50.0449324   5.3699887  43.2634163
  72.1523428  35.8723187  51.0753489  71.6752911  36.1843181  50.3063822
  72.0221138  34.9240375  51.0695314  52.9891920  55.4023886  17.0465136
  53.4784603  56.0448503  17.5604093  53.4566021  55.3567457  16.2124407
  42.1636295  28.4630585  45.3537607  41.2173319  28.3244562  45.3144598
  42.3713112  28.4343839  46.2877178  12.8052747  21.7986298   6.5783137
  12.3133206  22.4713945   7.0490563  12.1360922  21.1975789   6.2509555
   7.6575714  16.9044113   7.1290416   6.7045510  16.9840026   7.1696562
   7.9176933  16.6823971   8.0230653  77.1000910  53.4555149  19.4039476
  77.5479460  53.7070179  20.2116632  76.1762905  53.4023094  19.6488941
  62.3496103  20.9170222  48.2348537  61.7192459  21.6082501  48.0321789
  63.1385946  21.1633086  47.7520752  14.9328661  74.2753887  27.6687789
  14.6385610  75.0549555  28.1398296  15.0140452  73.6031437  28.3453345
  12.2760952  72.5264215  16.4773989  12.6841497  73.2047176  17.0155787
  11.3357997  72.6560307  16.6009951  60.7022142  31.4299488  47.3511410
  60.5614471  32.2324300  47.8535700  61.2703037  31.6964698  46.6283131
  75.5732298  23.8138390  23.6395788  75.4123449  24.2860222  22.8226399
  76.5050030  23.9469695  23.8136625  48.4564924  40.3848982  64.4107342
  47.7339840  39.8361468  64.7158432  48.4931898  41.1046362  65.0407028
  37.9013443  23.6206436  56.8354177  37.3955917  24.3787289  57.1282578
  37.3068523  23.1460452  56.2544155  81.4703369  59.1425085  14.4210315
  80.9300423  59.9239779  14.5377147  82.2403717  59.2999506  14.9673748
  82.3105526  39.1328931   5.7305527  81.6104698  39.5845175   6.2018818
  82.9706669  38.9505744   6.3993198  57.1179771   5.4107827  54.1318178
  56.9110489   4.6009648  53.6653328  56.2649775   5.7923013  54.3393517
  41.5654612  23.1675482  59.5472717  41.7531204  23.4246922  58.6445570
  40.8425426  22.5445104  59.4734812  37.2282457  39.6648049  65.3086138
  36.5475392  39.3242884  64.7281647  37.2404218  40.6064034  65.1369238
  55.1006317  52.7316618  39.9081087  55.6556797  53.0355644  39.1899204
  55.6258297  52.8775358  40.6949520  66.7755318  54.6015930  20.6222129
  66.0161114  54.0553761  20.8251047  66.5469790  55.4660130  20.9639359
  51.8451452   1.3705333  58.2024717  52.4099302   0.6047065  58.0987453
  52.3992443   2.1116853  57.9577303  37.0956039  77.9817104   4.4791788
  37.5830626  77.7825546   3.6798334  37.4924159  77.4227285   5.1472443
  46.4671707   3.7463108  57.2229385  46.9161844   4.0522242  58.0109978
  45.6410265   3.3842361  57.5432825  61.1375856  46.9504786   6.3413543
  60.7806873  47.5379229   7.0075148  60.3959417  46.7615795   5.7664466
  71.7159605  56.5548372  14.5226538  71.7449570  57.4062872  14.0862787
  72.6322174  56.2839890  14.5804417  83.0301571  48.7962723  66.6867304
  82.3759556  49.1067600  66.0607529  83.5431099  49.5749235  66.9031048
  10.9858370  12.8352475  57.8771830  11.2552714  13.5195935  58.4898090
  11.0202301  12.0276940  58.3899260  68.2900047  14.5152545  43.8104916
  68.1035185  15.2243400  43.1951475  67.8658867  13.7476027  43.4270048
  60.5993319  31.5539479  42.9531002  59.6650171  31.7156196  42.8221178
  61.0097265  31.8490195  42.1402407  57.9676104  18.2826924  20.3545475
  57.2618532  18.9151537  20.4892015  57.5393009  17.4289501  20.4170609
   4.2370102  52.2905540  39.9243999   4.8614770  52.9005098  39.5316792
   3.7704504  51.9124413  39.1790247  13.7781942  61.8707561   4.2268267
  14.6781647  61.6314793   4.0054011  13.8447654  62.7619362   4.5697579
  53.5775614  55.5380344  48.7740278  52.9522276  54.9542332  48.3446503
  53.0983067  56.3583803  48.8905525  61.5894651  78.6188030  28.6952591
  61.0889292  79.4147491  28.8746023  62.4793911  78.8261747  28.9803243
  52.3458767  27.1818328  55.8964491  53.0883217  26.7224884  55.5040073
  52.1686172  26.7028046  56.7059803  79.2313766  29.1580915   8.1659871
  79.1885662  30.0182104   7.7481413  78.3499527  28.7986994   8.0651695
  58.7455082   0.9013620  34.4653678  58.8846779   0.5833020  35.3573895
  59.3824100   0.4199410  33.9373326   7.9261774  27.3417473  20.9752560
   7.6428312  28.2381153  21.1554527   7.2090596  26.7948246  21.2959576
  61.5083027  13.6932778  56.4319420  61.4949226  12.9775023  55.7965517
  60.8622599  14.3180597  56.1025381  62.1679163  42.6968956  61.7393732
  62.3438787  43.2883501  61.0076284  62.6253128  41.8882179  61.5090322
   6.5768921  52.2348213  12.8418863   7.3766685  52.7358770  12.6821041
   6.8856430  51.3820982  13.1481051  48.2811546  15.1351500  57.3285007
  48.1478071  15.7077050  56.5730953  48.5764503  15.7219946  58.0246639
  60.0506783  10.6023896   6.2476838  60.3917313  10.4105783   7.1212512
  60.7916594  10.4473412   5.6619048  32.8242779  28.4142876  68.6997795
  33.1437063  28.3053493  67.8040552  32.0150709  27.9038501  68.7292337
  45.4627991  73.0218220  12.3746800  44.7849894  72.7161026  11.7719007
  45.4392624  73.9756346  12.2977316  34.9926353  73.6652422  41.4285421
  34.6732926  72.8439093  41.0548210  35.5133438  74.0601540  40.7291555
  22.7065754  56.9368410   0.8599314  23.2897925  56.9364691   1.6189376
  21.8879414  57.3097134   1.1870947   3.7446824  43.5698509   3.2495952
   3.2577133  43.6995602   2.4357964   3.2092214  43.9950037   3.9194906
  33.8087583  24.9534678  37.7615166  33.2363915  25.6770372  37.5064182
  33.5101175  24.2138338  37.2323775  25.1665449  64.1228199  14.7787213
  24.7232127  63.4402800  14.2749071  25.5061007  64.7261095  14.1176772
  13.1580007  33.9643002  31.5993023  13.0893946  33.0513215  31.8785763
  13.0095541  34.4708276  32.3978186  57.4155188  10.4520404  48.9647055
  57.6633883   9.8895591  48.2309437  58.2419825  10.8271945  49.2687559
  23.0894184  12.5729477  52.2371340  23.8080645  12.7581584  52.8416824
  23.3362079  13.0200672  51.4275599  62.9055071  33.4627080  49.4397736
  63.2069588  33.7259507  48.5702562  63.2755375  32.5891781  49.5672655
  71.2548685  38.6593080  22.0326662  70.9539175  39.1537046  22.7950525
  70.6973124  38.9616799  21.3157749  78.4837914  13.0891693  54.6335793
  77.5835228  12.9642141  54.3333626  78.7410545  12.2352302  54.9811935
  44.1076279  16.0911965  44.1260386  44.2510223  17.0090258  43.8952589
  44.6859503  15.6035829  43.5395145  25.0598168  73.2425022  32.6973009
  24.8452187  74.1303873  32.9833770  25.9178472  73.0671835  33.0836678
  53.6761475   3.6598909  51.7018366  53.1630468   2.8523576  51.7310190
  53.5120440   4.0785983  52.5468159  73.6112213  30.1211715  66.9389009
  73.5912943  30.8562779  67.5516462  73.8852549  30.5093455  66.1079645
  66.8594503   8.1829363  58.6358023  67.6230383   7.9204655  59.1498804
  66.3990402   8.8097870  59.1937590  64.0087843  53.7460613  49.4278240
  63.7435389  52.8472710  49.6228933  63.5521698  54.2774439  50.0800228
  18.6765981  75.4053831  54.3232203  19.4356513  75.3172493  54.8996782
  18.9622772  76.0146809  53.6425018  43.7732315  19.2584264  60.8884096
  43.8706017  20.2104735  60.9072828  44.6476793  18.9242280  61.0881281
  67.1462822  15.7443833  35.3412652  66.3630390  16.1899567  35.0184321
  67.2108936  16.0084009  36.2590647  25.5096412  60.7447100  45.6999445
  26.2314391  61.2241793  45.2933121  24.9456596  60.4948378  44.9680185
  84.0213776  63.0197859   1.6218783  83.6795425  63.3870506   0.8067111
  84.0738583  63.7670326   2.2177806  61.2526369  35.0253797  57.8103256
  60.6947088  34.5450711  57.1985626  60.6588745  35.3048944  58.5071373
  40.2307749   5.2073830  48.0239010  40.7490444   5.5872881  48.7333393
  40.7775974   5.3119683  47.2452641  22.8139830   4.5640716  47.7544785
  21.9804835   4.5463139  48.2247877  23.4052873   5.0454956  48.3331156
  71.4473772  18.4507620  25.2025676  71.2702513  18.7056494  24.2970896
  70.8911896  17.6856518  25.3491855  56.6627789  29.5226979  27.1082759
  57.4420214  30.0715327  27.0199990  56.3140678  29.7391653  27.9730177
   3.1591618  27.6921725  36.7600584   2.8787503  27.6797438  37.6751804
   3.7495828  26.9429922  36.6802764  11.4857554  76.8484354  51.2709618
  11.4792216  75.8985329  51.1531878  12.3227406  77.1298361  50.9015083
  55.7714844  37.1613264  53.4235334  56.5379429  37.6386333  53.7412691
  55.5578899  36.5530181  54.1310453  31.7136598  72.8648186  22.8020501
  31.7228866  72.4540663  21.9375110  31.0214686  73.5236454  22.7468300
  39.5758438  20.3963423  39.9453187  40.3523922  20.9549928  39.9119711
  39.1261697  20.5615616  39.1166258  62.2764444  37.3535895  38.2034421
  62.7412462  36.5201163  38.2777071  61.7263794  37.3916173  38.9858842
  38.1043339  10.5376256  43.3413315  38.5896873  10.7467246  42.5432444
  37.4563265   9.8896897  43.0647516  73.1108522  63.5855484   9.9498677
  72.1809483  63.3632612   9.9040681  73.3408308  63.4650183  10.8711791
  62.4789715  73.2331848  46.4742613  62.4563885  74.1193581  46.1131334
  62.8710079  72.7020121  45.7811546  57.7975988  18.7403882  66.3412237
  57.2047758  17.9893732  66.3689995  58.6301613  18.4005940  66.6692543
  11.1460316  42.1518087  53.6678076  10.7938576  42.4449158  52.8273964
  10.7415628  41.2962818  53.8117170  56.5183496  18.9238596  23.6914062
  55.6719446  18.8137138  23.2581615  56.7552519  19.8363686  23.5257673
  38.4475613  78.4415007  26.9186711  38.7138510  78.6213303  27.8203249
  37.8526878  77.6949024  26.9889951  37.5658464   5.3073931   4.4114852
  37.5666761   6.2340832   4.6512261  37.5319600   5.3075045   3.4548852
  12.6387751  68.6222553   2.5684130  12.2088134  68.0058813   3.1612423
  13.3145022  69.0379477   3.1039751  17.6467061   8.2676214  41.1614323
  18.3694017   8.3530337  40.5396223  17.6445925   7.3407215  41.4003563
  33.1515312  77.4270391  20.8628368  32.1993113  77.3645926  20.9377193
  33.4836268  76.7774248  21.4824677  41.3701105  27.4093580   4.5104772
  41.8682003  26.8639946   5.1193404  41.7975760  28.2648730   4.5505378
  69.8106813  37.0286179  38.9996099  70.7227039  36.7392540  38.9728451
  69.8479319  37.9588914  38.7772703   3.7787077  57.4895811  34.6468449
   4.3185282  58.2381153  34.3928385   4.2334053  56.7310905  34.2805457
  65.3377676  17.9993403  38.2081747  65.7440519  18.8577473  38.3277774
  64.5889473  18.1664252  37.6358271   6.4826876  14.4754362  35.1041222
   7.1556461  15.1406407  35.2485585   5.6825638  14.8632860  35.4585290
   4.1233739  47.0218658  44.6001530   4.4360483  47.7735710  44.0967655
   3.5063377  46.5819359  44.0153790   1.4029364  43.7046671  49.4046164
   1.7037220  43.9276123  50.2855539   1.6122499  42.7756405  49.3080187
   2.5994700  69.4390631  16.7914045   2.8052273  70.1889992  17.3495162
   3.1662735  69.5463085  16.0275567  57.9535818  17.3797810  34.0018249
  58.5268497  17.0322478  34.6850634  57.1143007  16.9435370  34.1485715
  52.5786686  60.8054209  47.0722818  52.2307968  60.9721375  46.1962557
  52.2401381  61.5247917  47.6053238  16.4992571  32.9083705  51.1854458
  17.3592257  32.9155421  51.6057253  16.1750925  33.8031530  51.2879848
   3.9985335  37.6933479  51.7300844   4.8083487  38.1707883  51.5498543
   3.3044592  38.3373260  51.5894222  62.2789192  12.0488489  19.5286191
  61.3759804  12.2995639  19.3335021  62.2378588  11.1046517  19.6803987
  71.5972567  40.2331591  44.7579956  72.2934961  39.5820665  44.6710682
  71.6866636  40.7846498  43.9807558  57.4783039  53.9657688  60.2404499
  56.8580675  53.8517904  59.5203447  58.3391190  53.9251089  59.8238230
  68.6142302  36.7090535  67.2421169  67.6690149  36.6118288  67.3576498
  68.7135363  37.5311923  66.7620564   7.0071715  50.5837870  31.6223717
   6.2018919  50.0763035  31.5212941   7.3937166  50.2601099  32.4360347
  59.4044161  76.0383511  49.0706396  58.4730721  75.9301281  48.8779783
  59.4523191  76.0426664  50.0266314  12.0147598  74.5960999  13.0667460
  11.7365754  73.7587881  13.4378982  12.3089314  75.1065683  13.8211429
  79.5614338  33.5533762  66.9948483  78.6964178  33.9629769  67.0092440
  79.5071983  32.9037571  66.2939310  12.9414237  74.4166279  24.6767354
  13.8689339  74.4830036  24.4496894  12.9380429  74.1011858  25.5804586
  24.2192841   2.3622850  13.9262402  24.3134570   2.5080597  14.8675752
  24.7667146   3.0363625  13.5235369  19.4729626  37.3001480  33.0887008
  20.2993083  37.0027614  33.4694219  19.1871512  38.0111790  33.6622667
   9.5038563  10.0922859  45.7530212   9.9884528   9.3372548  45.4193687
   9.7781271  10.8190966  45.1937771  12.0191109  73.7753344  38.7513423
  11.6309154  73.5338211  37.9103875  12.9451239  73.5504198  38.6610985
  61.0806227  34.1548657  37.1618509  61.4003038  33.4969211  36.5444827
  61.8168783  34.3045211  37.7549505  77.2689533   4.7692350  30.7845736
  76.9494486   4.8951107  31.6780519  76.8745852   3.9436626  30.5032635
  70.8295679  39.8313808  33.0801415  70.9368801  38.9489579  33.4351730
  70.5509663  39.6930909  32.1748853  28.3687234  63.0793381  13.4611511
  27.9381132  62.4758291  14.0666139  29.1930294  63.3040428  13.8927293
  78.4846687  29.7137451  63.8306236  78.0383444  30.2600145  63.1836128
  79.4132900  29.7953868  63.6133099  57.1667004   9.7324163  15.5854857
  56.4938116  10.3168547  15.9346032  57.9708147  10.0001979  16.0303736
  83.3122921  37.9308677  34.4495416  82.6471233  37.5005174  33.9123344
  83.6082077  37.2508168  35.0546837  51.5511322  26.9907737  43.1292391
  50.8476686  26.4818048  43.5321283  52.3023891  26.3976455  43.1226301
  79.0418530  66.9796515  32.6518369  79.2338467  67.5130796  31.8805861
  79.8980713  66.6725636  32.9498482  65.5264425  37.1382856  49.1117287
  66.0206699  36.6562319  49.7747469  65.9132624  38.0138397  49.1141796
  83.6852932  37.9156065   1.6624008  83.3861637  37.1311831   2.1222162
  84.6387100  37.8328347   1.6428520  26.3009310  32.2892070  20.0788856
  27.0947766  32.2086549  20.6076145  26.1216187  33.2292247  20.0577140
  70.3181744  75.8854151  44.4936848  69.9966240  76.3056850  45.2913141
  71.1880016  76.2614775  44.3587637  73.0903196  18.0795646  61.4381695
  72.6413918  18.5128057  60.7122231  73.5831642  17.3701274  61.0258150
  14.2454565  40.1824045  39.5060277  13.6439276  40.8265162  39.8795438
  14.7819114  39.8982906  40.2461147  39.9860144  40.8861017  10.3668749
  40.4309607  40.0627565  10.1659942  40.2313709  41.4718771   9.6507037
  11.8517971  73.3193731   8.3904386  12.3554015  73.6666775   9.1266406
  12.3613477  73.5603380   7.6167929   6.7918378  58.3035231  10.4243958
   6.6226733  57.4861050  10.8928430   7.5293905  58.6980629  10.8897853
  26.1889720   4.1496721  13.3178830  26.9828510   3.6327189  13.1809616
  26.3472486   4.9631071  12.8388178  81.3955116  48.8781452  50.6242371
  82.0529556  48.2463646  50.9155226  81.0237122  48.4891367  49.8326111
  50.4803085  14.0322816  34.2106104  50.4996395  14.9853230  34.2976165
  50.2872372  13.8800955  33.2855177  28.6799479   2.7592936  28.7521672
  29.6306801   2.8658041  28.7836742  28.3745074   3.0825144  29.5997930
   9.7372812  59.7469139  13.9052498   9.0701759  59.9166155  13.2401156
  10.5236328  59.5278454  13.4053576  38.4226108  54.9008942   0.6765618
  38.9631057  55.6233501   0.3569477  38.4946871  54.2294979  -0.0018683
  50.8974123  25.4663968  48.5405827  50.1525450  25.8682871  48.9876699
  50.5364037  25.1466775  47.7137280  42.2133064   7.5284559   2.3489341
  42.7343750   6.7616588   2.1107319  42.8565073   8.1725430   2.6450291
  79.0643501  17.8803825  54.0937996  78.9799261  18.0258536  55.0361061
  79.7892857  18.4461594  53.8281059  69.1542482  48.7428761  65.1677799
  69.0427971  48.0724001  65.8417749  70.0965786  48.7601328  65.0006151
   0.4654935  30.8043075  58.9473438   1.3756523  30.6591392  58.6889458
   0.0051149  30.9637380  58.1234121  42.6347494  11.8793321   2.8485298
  43.2301998  12.3637784   3.4203520  41.8026543  11.8704748   3.3215800
  71.9890642  44.6401501  61.6703415  71.6901684  45.5055571  61.9495583
  71.5169859  44.4755459  60.8540821  76.7518568  50.4459286  21.3793492
  77.6303101  50.4785872  21.7581415  76.7734241  49.6927309  20.7890391
   8.8101435  47.3135424  41.2820244   8.4722793  48.1356335  40.9267139
   8.0409151  46.8764019  41.6473007  36.1729574  71.3633394  48.0346966
  36.6002870  72.1151972  48.4449768  36.8594217  70.6985760  47.9791307
  23.4809232  74.0500641  48.7101221  23.5047269  74.9871397  48.9039230
  22.5590134  73.8097143  48.8025522  66.5567970  29.2282414  47.9038715
  66.5873528  29.3822694  48.8481045  67.4600601  29.0190864  47.6659584
  37.9589701  68.8856936  13.6602390  37.8290701  69.6414328  13.0873358
  37.1276164  68.4125900  13.6248243  10.1213288  76.4284325   9.5311958
  10.6722105  76.9445372  10.1197529  10.4941559  76.5772200   8.6622339
  60.6275415  19.5678937  49.9989128  60.6898880  18.6918688  49.6182251
  61.0910368  20.1317072  49.3796253  58.5899448  56.2877703  42.3756456
  59.1591597  55.5647564  42.6392365  57.8270721  56.2132883  42.9489756
  44.4918442   3.3389530   3.2143578  44.3327856   2.4539137   3.5424402
  45.4007530   3.3235121   2.9145616  76.8267202   3.1008705  43.9640903
  76.9144201   4.0539622  43.9515400  77.3768282   2.8001836  43.2407665
  37.0087671  78.1141520  40.8947945  37.3182774  77.8701735  41.7670965
  37.3129582  79.0138817  40.7756901  69.1558409  42.8874588  51.5848684
  69.9846125  43.0388594  51.1305046  68.9911890  43.7016821  52.0604324
  60.6246471  71.6545677  48.3779335  60.7850790  71.6247272  49.3211222
  61.2648487  72.2839355  48.0458784  40.5431795  57.3802090   7.9185104
  39.7482252  57.3673105   8.4515351  41.0921001  56.6898060   8.2903469
  68.5685062  62.3812342  36.6119671  67.9020882  61.7206764  36.4228106
  68.1947088  62.9018259  37.3229504  75.6515265   4.8432699  50.4701614
  74.9004459   5.4351270  50.5127525  75.9806824   4.8089784  51.3683319
  51.7976856  75.3768444  62.1296358  50.9284401  75.7765150  62.1597576
  52.1191263  75.5687189  61.2486696  52.8837729  36.0321712  45.3108835
  52.2544384  36.2285161  46.0048723  52.5306273  36.4700127  44.5364094
  19.3165755  70.5825710   3.1763935  19.9514019  69.9102354   3.4237680
  19.4106388  70.6631517   2.2272411  15.2876353  48.8396025  20.7277322
  14.5168984  49.3134022  21.0403156  15.1348412  47.9325151  20.9924674
  62.4286699  46.7363787  38.7247586  63.3138752  46.8236923  38.3711886
  62.2431231  47.5886106  39.1191030  20.9094810  78.5236406   5.5557221
  20.1698089  78.8278961   6.0815990  21.1594844  77.6898289   5.9538215
  69.4399977  34.1311669  61.5573645  70.1713276  33.8338876  62.0986748
  69.0873671  34.8877859  62.0257759  60.3552198  35.0894713  44.1733313
  61.1951303  35.0583577  44.6313906  59.9795294  35.9348536  44.4191313
  13.2992399  23.0000448  30.4747224  13.5350418  22.1365762  30.8139133
  13.2545340  22.8806853  29.5260453  68.8052177  56.6024876  21.4369106
  68.5921431  55.8662987  22.0103693  69.1357994  56.1947298  20.6364846
  -0.1634219  38.2317615   7.7001274   0.7280827  37.9683995   7.4718910
  -0.1652969  38.2669592   8.6566782   6.9019979  10.6906629  59.9357605
   6.3547361  11.4373755  59.6925354   6.5952075  10.4428852  60.8079481
  48.7610340  66.7787266  46.4843988  49.3758774  66.1505318  46.8633127
  48.9430094  66.7551327  45.5449533  29.7682834  71.8157864  54.5885181
  30.2579689  71.6452217  53.7839365  30.1507831  71.2198830  55.2325869
  61.0208273  56.1376524  13.8888252  61.0643816  56.5201092  13.0124331
  60.8983135  56.8871832  14.4714272  61.2968493  55.4324961  65.6548166
  60.7000637  54.8628521  66.1401844  62.1698093  55.1665163  65.9436512
   3.5575417  78.4842300   0.9293384   3.6448300  78.4230375  -0.0219072
   2.6626810  78.7943125   1.0682888  61.6276598  24.2536974  45.0362158
  61.8845272  25.1753759  45.0637770  62.4544096  23.7767005  44.9641418
   1.5209581  24.7532439  62.4202442   1.4457485  24.2433476  63.2268286
   0.6271891  24.7971368  62.0804167  71.3914204  32.6749992  64.8970461
  70.9652376  33.0992723  65.6417608  70.6684208  32.3816299  64.3425798
  18.9852273  11.1080170  39.7165513  19.2428076  10.1985514  39.8674059
  19.5495832  11.6165340  40.2989149  50.7249212  53.4407377  59.3737984
  50.4424953  52.5683498  59.6484041  50.3418159  54.0316343  60.0221109
  35.6018233  46.5071726   2.1020216  35.3578687  45.6063938   2.3148988
  35.3729248  47.0086193   2.8845751  64.4943619  30.1037407  24.0617490
  64.3767214  29.4704127  23.3537292  63.6312389  30.5025387  24.1722369
  11.0364473  53.3779716   4.7577021  11.7024291  53.5381174   5.4263234
  10.8872652  52.4330139   4.7897407  57.6848507  26.3889527  42.4739695
  57.6311445  26.5465808  43.4165716  56.8621731  25.9502530  42.2572327
  21.4991760  75.7759094   0.9855671  21.7007494  74.8426914   1.0541377
  20.7760954  75.9104061   1.5981835  43.6019850  12.6197314  18.5210788
  43.9823771  11.7539787  18.6694276  42.7631092  12.4430025  18.0953026
  54.9647188  20.5883622  48.9807034  54.2772961  20.2799559  48.3903122
  54.7346973  21.4999151  49.1606808  66.6171837  46.0710478  50.7932138
  66.1465359  46.4694023  51.5253639  67.4045849  45.6977940  51.1893320
  60.2778053  37.6897383  62.0793581  60.7950354  38.2969260  62.6085377
  59.4412279  38.1367898  61.9508457  26.8366146   1.5784566  66.2691450
  27.3389149   0.7674346  66.3476992  27.0473456   2.0686267  67.0638514
  53.5305405  67.7851772  32.8401017  53.7562418  67.3077059  33.6384177
  53.0068350  68.5264111  33.1443143  59.2625570  78.6118698  47.5886774
  59.9361181  79.2193699  47.8944492  59.2089128  77.9479551  48.2761145
  80.8460712  48.4151983  18.9624047  79.9853563  48.0105877  18.8542414
  80.7173824  49.3261814  18.6982477  60.0336838  73.4344673  52.3049545
  60.6967497  72.7942467  52.0467043  60.5083609  74.2642069  52.3544693
  35.7248068  23.9985371  41.6387320  36.2107658  24.2034984  40.8399391
  36.2644744  24.3534923  42.3451281  49.3784142   1.8950284  68.0444527
  49.6993160   1.0204691  67.8244495  49.4818974   2.3983051  67.2368431
  19.0951324  64.7646046  24.1060162  19.5805848  64.9698067  23.3069777
  18.4347117  64.1296721  23.8286424  34.3766737  35.0209069  13.8696718
  34.6291637  35.9376621  13.7599373  33.8242626  34.8321700  13.1110859
  59.2350483  68.7386370  40.5496454  58.7022924  68.2066631  41.1407518
  60.1324701  68.6138678  40.8583450  75.2646732   6.2703210  55.7198858
  74.7351170   6.4214361  54.9369669  74.7468948   6.6410869  56.4344978
  50.3859901   2.4423903   9.9221075  49.6275425   2.5535300   9.3488342
  50.0348997   2.5458357  10.8065677  46.5482616  72.7496624  57.7739143
  47.1035051  72.7122068  56.9951057  45.6807518  72.4917889  57.4622059
  69.9313021   2.6080272  49.0020657  70.2290869   1.8617626  48.4818316
  69.5037937   2.2144094  49.7626781  53.1800556   5.2771157  42.9462719
  53.5997677   5.2512228  43.8061571  52.2885990   5.5771410  43.1238127
  21.8262029  76.1180735  23.3734560  21.1613941  75.8748055  24.0177250
  21.9848919  75.3146172  22.8779769  55.6959867  24.7472119  41.4866495
  55.6166840  23.8834667  41.8914795  54.8511648  24.8902249  41.0599709
  16.3630116   0.4245759  10.8560240  16.3100696   1.0460589  10.1299477
  17.2281849   0.5745757  11.2370837  77.5606394   6.5583766  52.3310089
  77.4758339   5.7767695  52.8770256  78.4887457   6.7868811  52.3823786
  50.1311588  66.9743967   4.8522320  50.9201908  67.3310661   4.4442469
  50.4536963  66.2936687   5.4428345  19.6928859  59.5212793  62.3129225
  20.3242159  58.9790440  62.7858305  18.8934338  58.9952707  62.2922850
  21.8730855  56.4824343   8.9345658  21.5427256  56.5337992   8.0376512
  21.3723063  57.1435308   9.4124854  10.4902327  77.4644327  45.7077169
  11.0427988  77.0154047  45.0679731  11.0642731  78.1222010  46.1002159
  76.6236687  52.4108744  35.1332211  77.4929762  52.6652670  35.4427719
  76.1012697  53.2099104  35.2029800  52.3948526  28.6100173  31.6841149
  52.9681540  28.8097453  30.9440708  52.9319620  28.7842536  32.4570227
  67.0878792  28.5920191  61.7124939  67.9381466  28.1947088  61.9007111
  66.4721823  27.8593016  61.7291260  59.7239113  71.0897398  39.1053605
  59.2204618  70.2961016  39.2867661  60.4776669  71.0347319  39.6927786
  32.6778054  12.5419974  63.2661819  33.3012342  12.0340872  62.7469587
  31.8688893  12.5232780  62.7547789  81.7395401  41.8178606  37.0029879
  82.0717621  42.4515629  37.6388168  82.4050426  41.1302567  36.9799876
  73.4072304  50.6804943  20.2381873  73.4598780  51.6161776  20.4330254
  74.0805864  50.5360174  19.5733929  48.0361843  32.8413773  51.8510818
  47.5041628  32.8128242  52.6462984  47.6215315  32.2104120  51.2627125
  43.8592577  16.8692005   4.2696312  44.1785002  17.3196268   3.4876883
  43.9028358  17.5296831   4.9610761  80.5364323  43.0791950  64.7722769
  80.4755306  43.2125044  65.7181931  81.0055733  42.2503138  64.6769285
  70.4874897  76.3480663  49.1587019  71.3041306  76.8343163  49.0451336
  70.6911707  75.6896400  49.8229408  68.3403826  43.1704998  48.2164192
  69.1352749  43.2536173  47.6896667  68.5205841  43.6830807  49.0044641
  58.3159399  38.0507421  53.7913227  58.7734604  38.6662698  53.2185841
  58.9615393  37.8199291  54.4592762  13.6555099  44.1897154  58.6369467
  13.0658913  44.9437523  58.6343670  13.1487656  43.4908390  59.0504789
  51.0374784   8.9642638  32.1681356  51.2014771   9.4602346  31.3660455
  50.7664490   9.6240091  32.8065014  83.7563038  55.5579805  58.8531971
  83.4220505  54.7193718  58.5350132  83.4728050  56.1936665  58.1961060
  61.8754625  59.8978519  40.6874514  61.6138172  60.0648642  39.7819805
  62.8053999  59.6780825  40.6313944   0.3443485  74.1662359   4.6176693
   0.0125275  73.6506605   3.8826102  -0.2952617  74.0268898   5.3160340
  67.2163248  28.4103227  52.3601437  67.4507189  29.0445518  51.6826153
  66.3720846  28.0588174  52.0774031  11.6947818  76.4963198   7.2888678
  11.6320288  76.0074615   6.4683121  12.6305246  76.6680145   7.3944134
  69.5005369  45.8964109  21.7116404  69.0611458  45.3388214  22.3537159
  69.0156651  46.7212629  21.7390823  76.8093586  74.9952173   3.4959924
  76.0236979  74.4637918   3.6246422  77.4675655  74.3767786   3.1789294
  55.0464773  39.2033291  51.1737728  54.9888849  38.4871292  51.8062067
  55.3417873  38.7853837  50.3648567  20.2700424  26.2300110  31.3989568
  20.9897041  25.9386277  31.9587898  19.7635627  25.4361296  31.2273169
  67.6949358  15.0790012  64.5039940  67.5524235  15.0503755  65.4500961
  68.5572910  15.4821479  64.4037676   8.9122325  63.4029198   9.2275012
   9.2124021  62.9314327   8.4504330   9.4606996  63.0686569   9.9372095
  82.5666332  28.6179447  30.4047298  82.2615814  29.3027830  29.8096037
  83.5195541  28.7083125  30.4054999  63.1004381  20.7125115  32.8240418
  62.9765797  19.7775364  32.6606011  62.8275824  20.8349109  33.7333274
  43.5836458  76.4748621  67.5463438  43.5042477  75.5284452  67.6656151
  42.7669096  76.8298483  67.8972769  72.3359156  52.1493769   6.2018424
  73.2247591  52.0212269   5.8705306  72.3847151  52.9578018   6.7120391
  75.3904676  71.9183779  24.4735527  75.4105902  72.8583527  24.6532035
  76.2804842  71.7096710  24.1897464  49.0482521  52.2147799  13.2172108
  49.1718578  53.1609631  13.1417942  48.6658335  52.0916843  14.0860236
   0.0040260  72.8779507   9.5007598   0.0727670  73.6709404   8.9690894
   0.0702557  72.1605587   8.8705301   7.1242207  32.7814031  30.4909301
   8.0739748  32.7206469  30.3884292   6.8944544  33.6240053  30.0991869
  63.3821297  34.7770095  38.7096190  63.8422012  34.1048336  38.2068825
  63.7172127  34.6806908  39.6010661  57.9292202  54.0579033  31.0245919
  58.8315773  53.8643169  31.2785721  57.6260376  53.2601786  30.5910611
  57.9389858  15.1608872  64.3758917  58.7715340  15.6332159  64.3737602
  57.5274134  15.3972089  63.5446358  83.5865784  69.9992943  50.1144791
  84.4320393  69.8223782  49.7020102  83.3296108  69.1627932  50.5023766
  18.6445820  68.4111261  21.7817783  18.9876282  68.6107731  22.6528072
  18.4582806  69.2670012  21.3957715  60.1643085  53.4664011  55.4186916
  60.6745768  53.1264114  56.1537218  59.2965364  53.0779171  55.5295134
  82.7119064  42.7452469  32.6540732  83.3646202  42.9008055  33.3367085
  82.4373245  41.8380356  32.7875066  64.4019699  45.9247208  64.4937849
  63.9151716  46.4726448  63.8781214  65.2705812  46.3247490  64.5353794
  70.0841141  51.7141056  42.2246981  70.4584360  52.5220871  42.5758076
  70.7868624  51.3338041  41.6976786  79.7399139   2.7857503  65.8792734
  80.5843449   2.3385231  65.8230209  79.9507666   3.7116385  65.7588339
  73.1470203  30.7617140  61.6841602  72.4819946  30.1025653  61.8829060
  72.6468658  31.5432644  61.4490986  29.3937755  20.5147696  40.1479244
  29.6675944  21.4202738  40.2939272  29.7236919  20.0389218  40.9101295
  83.5581112  33.3836031  65.1695013  83.3865929  33.8569355  64.3553925
  83.0790997  33.8742971  65.8373260  11.9568801   8.0796129  54.2977095
  12.3164678   7.2213513  54.5220184  12.5757623   8.4400541  53.6626482
  75.0626993  74.2189741  19.4031262  75.8906555  74.6007919  19.6945620
  75.0187111  73.3733034  19.8493791  45.7623053  47.5033379  41.9521904
  45.9359598  48.3891153  41.6336489  45.7204485  47.5950336  42.9040670
  53.3420515  51.8598461  54.4213057  52.7316236  52.3474216  54.9743700
  53.4173870  51.0043907  54.8440933  55.8117628  41.9865465  60.8260536
  56.1699867  42.2834873  59.9895477  56.2568188  42.5237989  61.4814281
  35.1968980  11.3669252   5.0404572  35.0952506  10.6948400   4.3665129
  35.9762454  11.8555892   4.7757766  66.4522648  24.3553448  58.6838055
  65.6304455  24.3483639  59.1745138  67.0499086  24.8714089  59.2248487
   4.2337567  33.0749583  57.4346209   3.6450863  33.4025097  56.7546177
   5.0758266  33.4869838  57.2412729  28.3835316  49.5873260  63.2462788
  27.5250506  49.8287678  62.8985023  28.8603115  50.4153585  63.3034420
  39.4111848  25.0592828   0.7841389  39.1820216  25.9672809   0.9822661
  40.3379202  25.0924563   0.5468785  62.0754576  76.9159603  54.2141485
  61.8739128  77.7213907  54.6904850  62.5735712  76.3872862  54.8375416
   2.8235993  27.6222944  53.5168839   2.5702333  27.7666378  52.6051807
   2.6486969  28.4581566  53.9492893  19.2549121  42.7608156   6.3228685
  19.9553490  42.1521044   6.0881472  19.5804608  43.2116270   7.1019804
  50.5469418   5.8270884   4.7650158  50.4767847   5.6671363   3.8238859
  51.4530325   6.1077160   4.8933789  76.5504360  44.2354345  65.8841991
  76.0050917  43.5601616  66.2877274  77.0062685  43.7827682  65.1745892
  74.8523331  31.0773349  11.9234407  75.6534290  31.0278034  12.4450016
  74.2688608  31.6392159  12.4334240   3.3354712  42.6576567  29.4203806
   3.1305856  42.3097181  28.5525131   3.8959226  43.4144258  29.2488384
  19.4517326  54.6337891   7.3640490  19.2597055  55.5386543   7.1179318
  18.5930538  54.2157984   7.4287570  30.7900643  23.9669061  29.8926306
  30.4760575  24.1357183  30.7809615  31.6717958  24.3390441  29.8755050
  43.0219698  25.1206708  53.0918932  42.1176863  25.1040244  53.4053087
  43.2176495  24.2087674  52.8765535  56.2931728  31.7940283  47.9401779
  55.6385136  31.1127901  48.0937052  56.9050741  31.4021182  47.3171091
  76.2097263  60.2994013  51.6308308  76.6503954  59.5555019  52.0415068
  75.8577108  59.9476576  50.8131552  53.1732702  18.9181781  51.9729376
  53.4927464  19.8082376  52.1211338  53.7759829  18.3620644  52.4665976
  25.0256991  44.0457010   6.2629515  24.5095944  44.1469336   5.4631901
  24.4372320  44.3242502   6.9646257  38.9095378  13.1890476  25.6702995
  38.3882880  13.4318590  26.4355278  38.3901000  12.5160480  25.2304268
  79.4807911  47.6875496  67.8037643  79.3139267  47.7640486  68.7432003
  79.3870020  46.7530107  67.6191664  75.2821255  39.7493148  41.7430782
  75.2189207  40.6833029  41.5433121  76.2128496  39.5466423  41.6486740
  59.2152405  26.8071890  46.7648363  58.9712477  27.4892569  46.1391544
  59.3580389  27.2762656  47.5869131  57.8417110   2.6292169  56.4071321
  57.1246910   2.7234384  55.7800436  57.8971004   1.6872346  56.5678596
  83.7008190  25.4586315  60.2277994  83.7317085  26.3918829  60.4383183
  82.8660774  25.3430033  59.7738504  10.4760849   2.2752139  65.5290365
   9.7878480   1.7071603  65.8752680  10.4361761   2.1493164  64.5809889
  73.8191605  38.1183505  39.9789739  74.3670273  38.6456561  40.5603743
  74.1630697  38.2923269  39.1027927  33.2068086  77.9172611  43.8193655
  34.0853906  77.7751970  44.1717052  33.3203721  77.8781366  42.8697300
   5.4047787  70.8832645  57.7715492   5.8692950  71.6257811  58.1577158
   5.6310982  70.1412725  58.3323193  62.4590015  76.0823965  48.7122345
  61.5515661  75.7830000  48.7683487  62.4310875  76.9896793  49.0160179
   8.8936710  19.3902469  52.6642227   9.8270988  19.5250142  52.5005674
   8.4622580  19.7198486  51.8758821  76.9715834  30.4021096   5.3275889
  76.0432625  30.5225754   5.5274296  77.2511387  31.2451744   4.9707642
   3.9255634  75.6659889   6.5939343   3.8173458  75.7081509   7.5440627
   4.4532460  76.4350271   6.3786173   6.6571784  68.1862211   8.4842408
   7.4489385  68.6728573   8.2550400   6.9274265  67.2680950   8.4687006
   9.1428196  39.9468207  17.4813569   8.7969112  39.2006540  16.9916463
  10.0345409  40.0572395  17.1513975  62.0295238  32.2404647  66.4518595
  61.4723063  32.0169640  65.7063437  62.9224777  32.1457696  66.1203480
  27.0073438   1.6621055  63.6284018  27.2808290   1.6437237  64.5455170
  26.1763263   1.1872309  63.6167145  52.5896597  60.2119160  56.3959932
  53.3868361  59.7603941  56.6732502  52.8899431  61.0751200  56.1114883
  75.1409531  20.8247638   4.6543580  74.2012405  20.7184410   4.5065007
  75.5385017  20.6550860   3.8003087  33.7218928  67.1835661   4.2440385
  33.7430787  68.0407906   4.6694186  34.4145083  67.2261715   3.5847220
   6.3303572  49.5882654  22.4262142   6.6928017  49.6053410  23.3119750
   5.4336095  49.2735624  22.5403905  56.4386129  44.4173193  58.3746386
  56.0706234  45.1116419  58.9212036  55.7215357  43.7926483  58.2659388
   7.1126509   5.6738925   2.2822678   7.9197174   6.0016733   2.6790488
   6.5054953   5.5807590   3.0163795   7.1619540  30.1027656  11.9597912
   7.7096617  29.4164109  11.5787840   7.7405483  30.8625436  12.0245779
  71.3125753   5.5503768  15.4480278  71.7520428   6.4007270  15.4504013
  71.7386532   5.0586110  16.1500657  18.8639343  74.0600300   6.4814591
  19.3379974  74.4402456   7.2210091  19.3280053  73.2442522   6.2933856
  77.6743555  38.5654306  42.4271917  77.8758717  38.3081698  43.3268833
  77.4001265  37.7531290  42.0015240  77.6821947  20.1123834  25.9417272
  77.4534321  20.4425812  25.0728965  78.6019039  19.8579371  25.8667350
   6.1568516  74.3761683  18.9708591   6.8804109  74.4254303  18.3461452
   6.3813943  73.6399269  19.5398605  72.9840517  51.8143797  36.0890794
  72.2647858  51.3694096  35.6408691  73.0253983  52.6775074  35.6773376
  10.7022119  25.2192473  53.2826328  10.8600426  24.2842102  53.4131193
   9.9387807  25.4115534  53.8270807  44.9804878   7.2045040  29.2884851
  44.2205811   7.0694178  28.7223339  45.1986694   6.3294816  29.6093631
  67.2371483  70.5814648  45.4464531  67.4908209  70.3767204  46.3464308
  66.7274618  69.8225546  45.1627207  76.2091064  44.1427088  43.5656309
  76.4437008  44.8264933  44.1930389  76.1700726  43.3415413  44.0879726
  53.2842255  52.5141048  63.1864166  52.4537802  52.2381830  63.5742998
  53.7585449  52.9297161  63.9065027  13.5348523  54.9451160  31.7607403
  13.8644981  54.1118193  32.0971656  13.0903792  54.7150040  30.9448218
  64.8478603  36.8507791   5.8133876  64.2433119  37.5922465   5.7821190
  65.3782749  37.0069981   6.5947253  71.1683178  38.0855131  56.9706869
  70.4855299  38.5965109  56.5360355  70.7798338  37.8292489  57.8071308
  26.2619138  59.8612738  21.5202665  26.9948888  59.6246004  20.9519649
  25.4898953  59.7856140  20.9594655  79.6570921  65.4485703  46.8811131
  79.1174936  64.6644163  46.7802620  79.9546242  65.6502867  45.9939718
  46.3882828  31.6671634   2.0887348  46.6798353  31.7250156   2.9986146
  46.3244200  30.7276702   1.9169649  24.7586608   1.9285560  36.9788074
  24.9050832   2.2555695  37.8664207  25.1181006   2.6096165  36.4103079
  57.2788811  40.1722383   3.6390284  56.9092607  39.4723248   3.1007615
  57.4338818  40.8900833   3.0250987  83.5609818  78.1891346  65.3161573
  83.1447601  77.3277378  65.3477049  83.1467628  78.6282206  64.5732832
  30.4084158  49.1921902  45.5718946  31.2390089  49.5717859  45.8586979
  29.7452641  49.8159838  45.8674335  26.1514592  45.9778070  10.7562423
  26.6086030  45.9009218  11.5937030  26.7932296  46.3769007  10.1688015
  61.5878868  16.8033886   5.6287372  61.9823980  17.2223437   6.3936353
  62.2623777  16.8571508   4.9516815  33.8098121  56.1313057  10.9334052
  34.4515347  56.2577820  10.2345300  33.0641508  55.7146931  10.5013692
  16.5785003   1.8894272   3.0653894  17.0986235   1.5779844   3.8061365
  15.9662509   2.5169244   3.4496152  63.1912327  54.6136284  46.7600393
  63.1915045  54.5427036  47.7146053  64.0204191  54.2187595  46.4902973
  15.4686677  42.1689177  46.7207527  16.1604238  42.5217867  47.2803879
  14.9257004  42.9269171  46.5042973   3.2420778  32.0368862  23.0652618
   3.2899839  32.7807069  22.4647045   3.7714526  31.3574433  22.6477098
  11.8962586   9.3424994  67.8330469  11.7689025   8.7764478  68.5943604
  12.5190818  10.0061417  68.1295300  76.2818527  37.9258204  61.1470890
  76.1764717  36.9779134  61.2283039  75.6693411  38.1765246  60.4555607
  22.6648045  71.9770718   8.4877825  22.1397448  71.2718630   8.8662332
  22.2967768  72.7772903   8.8625324  65.2022600  52.5912046  46.0794163
  64.3731356  52.2715712  45.7235765  65.7514048  51.8100166  46.1458492
  51.2142801  26.5459657  15.4596043  51.7981577  27.2100067  15.0930476
  50.6466675  26.2971282  14.7301316  76.6803408  58.3505774  33.3478951
  76.2337017  59.1855097  33.2077885  77.1695423  58.4741783  34.1613030
   1.0729031   8.3301002  31.2073064   1.2871836   8.9191341  31.9307375
   0.5096304   8.8499475  30.6339693  54.4034624  41.9348001  51.0626316
  54.5523214  40.9968185  51.1820555  53.8912344  42.1953869  51.8281031
  18.2403660  73.8691378  63.1890392  18.0247211  73.8080120  64.1196251
  17.5722373  74.4505739  62.8260422  80.1397991  60.6595755  11.8388915
  80.3991508  61.2675953  11.1465895  80.6545067  60.9291172  12.5995898
   2.7423930  26.6533661  39.3312049   3.6072412  26.4522624  39.6887350
   2.1873227  25.9317088  39.6267414  17.9393947  42.0243359   8.9003360
  17.8709340  41.6025496   8.0438083  18.7024450  41.6151953   9.3084878
  23.3245707  65.9372568  61.2987661  23.0255103  65.1182938  60.9036779
  22.5733757  66.2476015  61.8043566   1.2212285  53.3490801  41.0364676
   1.4937681  53.1446075  40.1419592   2.0062476  53.7084246  41.4498043
  73.4746552  29.5988727  26.7897868  72.5297022  29.7225738  26.7003560
  73.6296844  29.6126223  27.7342486  62.6453972  59.8402977  50.7535505
  61.9852543  59.1471815  50.7593727  62.8399801  59.9935102  51.6781569
  64.9194908  36.7352295  41.2469149  65.3660583  37.4312449  40.7648611
  64.4959545  37.1842694  41.9784975  60.7793045  63.2437658  46.9748926
  61.0286570  64.0988255  46.6242790  60.4913664  62.7458715  46.2097597
  60.1261616  33.3930039  52.7995825  60.9843063  33.8044643  52.9021645
  59.5016861  34.1087389  52.9178476  15.2108562   7.6930797  19.1984093
  14.4645715   7.1428049  18.9607346  15.8074903   7.1021318  19.6578002
  11.9160545  73.9209652  51.4117241  12.6922727  73.9676428  50.8535671
  12.2419441  74.1105938  52.2915363  26.2977266   6.7293704  60.0301790
  26.1484838   6.6145414  59.0916824  27.1684766   6.3615662  60.1809931
  33.1397891  28.4668732  12.5322831  32.5519586  29.2169070  12.6224816
  33.9888644  28.8525963  12.3166060  12.6216006  49.2512798  52.9111052
  13.2550049  49.0659380  53.6044121  12.7148902  50.1895094  52.7460194
   4.6650499  44.2316675  44.9712086   4.5570031  45.1667118  44.7972965
   4.3026954  43.8006449  44.1971636  74.2520618  34.4906616   1.3449430
  74.3587255  34.0052700   2.1630189  73.8433218  33.8650537   0.7467981
  41.2210703  29.2599702  50.8381605  40.4653692  29.4317174  51.3999891
  41.5459776  30.1286983  50.6015587  82.3071480  37.4593544  41.2446737
  81.5673733  37.0564175  40.7901382  83.0729771  36.9814849  40.9262657
  73.9451599  61.4980602  29.8562169  73.5856247  62.1706200  29.2777467
  74.8933983  61.5706491  29.7475767  56.6276693  11.7021692  23.9640236
  56.3405466  11.4468372  24.8407197  56.0117960  12.3856592  23.6998773
  73.5176086  31.4371943  33.0528069  72.9869318  32.1804476  32.7661276
  73.0575657  30.6694126  32.7135396  19.8851049  57.2247982  24.7114873
  19.7371268  57.9501247  24.1046596  20.0553250  56.4709473  24.1467190
  13.2961178  58.4100723  46.0765457  14.1000819  57.9938030  46.3873339
  12.6335847  58.1628847  46.7216682  56.0314798  15.5438578  51.4539623
  55.8138800  15.1539731  50.6072760  56.9603443  15.3477418  51.5763283
   3.0218452  11.8073332  65.2608538   3.5571051  11.0343468  65.4403591
   2.2471496  11.4640808  64.8155928  59.0587807  20.5060148  61.1934376
  59.9012136  20.0691438  61.3186693  58.5141516  20.1868320  61.9129753
  78.9623594  72.5148106  44.9419022  78.5962248  73.0658579  45.6336594
  79.9088717  72.5563478  45.0783634  80.0590897  27.6014042  45.4004860
  80.5050468  27.4770284  46.2382698  79.5087767  26.8241358  45.3043795
  66.8041563  31.4396048   4.1501942  65.9292459  31.2303138   3.8231423
  67.1214628  30.6190848   4.5274135  67.5071907  12.5481200  10.8401489
  66.8968439  11.8536627  11.0880184  68.2347298  12.4585354  11.4556956
  31.1955047  11.3984823  10.3804171  31.2323284  12.0563805  11.0747123
  30.9922647  11.8967748   9.5888180  57.8961372  56.4535046  36.6285944
  58.2510948  56.9078636  37.3926592  58.6544847  56.0263538  36.2302470
  29.5828867  14.6344960  55.6467628  28.7219501  14.2328966  55.7639647
  29.6104050  14.8761928  54.7209883  68.4345150   3.3479804  17.4788344
  68.2472801   2.8224602  16.7010140  68.5798597   4.2318663  17.1414137
   0.4296540  59.5923662  66.3467264   1.3383466  59.4343901  66.0906935
   0.4889435  60.2263832  67.0613909  34.5475459  65.8913279   7.6005268
  35.0762844  65.1816130   7.9651809  34.1028643  65.4974318   6.8499690
  52.7769566  58.0440569  59.5218277  52.1580744  58.6694050  59.8988628
  53.5909891  58.1930399  60.0028563   3.2313946  54.4300652  57.9240322
   2.2775517  54.3705082  57.9775953   3.3982447  55.3146744  57.5986814
  82.2025776  63.8926411  33.8011670  82.4733448  63.7108374  34.7010899
  82.1925735  63.0350304  33.3761621  44.5001364  20.9320378  55.0030613
  45.1602268  21.2255454  54.3750715  43.7085009  20.8099985  54.4789886
  69.1267538  38.9691973  49.4968414  69.9481535  39.2330956  49.9114323
  68.8491583  39.7406244  49.0028000  20.0757504  74.9182796  25.1548934
  20.7524347  74.6222210  25.7637310  19.4723213  75.4270601  25.6964135
  63.4674931  51.6111612   2.1762855  63.1998539  52.4330425   1.7650585
  63.9758539  51.1603975   1.5020353  21.7053938  64.2286777   4.3190089
  22.6152229  64.0341616   4.5439667  21.4276457  63.4867859   3.7817177
  80.3754902  19.3989789  44.9878263  80.6370258  19.1020966  44.1162205
  80.9424496  18.9128590  45.5865622  21.2295198   4.8300114  56.7110586
  21.9518542   4.2080754  56.6235304  20.4472423   4.2816564  56.7708921
  29.5784998  56.4507723  11.2555099  29.4556689  56.5638638  10.3129840
  30.5282664  56.4469528  11.3745189  72.1516657  53.5509586  33.7582016
  71.7897844  52.7025938  34.0142226  72.1643305  53.5270452  32.8013849
  68.3974028  47.6101255  51.9334936  67.5272655  47.7231359  51.5509796
  68.4548283  48.2913351  52.6034832   0.5762072  24.9008155  43.3346128
   0.8314437  25.1042128  42.4347734  -0.1230262  25.5240107  43.5319233
  29.0892768  61.0871840  45.6181717  28.6608553  61.7550421  46.1535692
  29.9685216  61.0108423  45.9887600  62.1142054  68.4561062  38.3437490
  61.7896318  68.9090586  39.1220284  61.5967417  68.8164997  37.6236248
  16.9511926  29.8533034  48.4833860  16.1936963  29.7715831  47.9039431
  17.6404917  29.3511105  48.0487585  53.2547998  45.3704977  47.7296305
  52.5494766  44.7459078  47.5604057  53.9604759  44.8403215  48.0999947
  64.8028803  43.2032681  51.6667509  65.2778769  43.5028028  50.8915806
  64.0748882  42.6890373  51.3177156  71.7691708  41.7082834  42.6058722
  72.5881338  42.0686054  42.9460144  72.0060062  41.3352776  41.7567492
  51.6166496  25.5992889  53.7152863  51.2565088  26.0749435  52.9667664
  51.4722013  26.1816144  54.4611168  77.2145947  62.5467110  68.8289434
  77.4179800  61.7300987  68.3728595  76.8341502  63.1093907  68.1544927
  66.4476585  49.8585081  45.9104729  67.0708084  50.3941345  45.4195356
  66.1180162  49.2275143  45.2706194   8.2027835  52.3273706  59.0328074
   8.7056619  51.5337372  59.2158031   7.7482527  52.1389198  58.2117558
  67.5992680  70.1694012  27.3798800  67.9319286  69.4257021  26.8774056
  66.6509247  70.0408316  27.3985887   4.1833445   9.6519291  66.2366819
   4.3050984   9.6646124  67.1860218   3.9626506   8.7424737  66.0356426
  75.6577349  40.1100063  56.9548321  76.2082148  39.6267033  56.3387012
  76.2771606  40.5221987  57.5570297  44.4992781  54.2416000   2.8011698
  45.1323605  53.8486099   3.4020039  44.2121983  55.0400019   3.2443058
   0.5305456  35.9359384  55.2663040   1.1721460  36.5371442  54.8879719
  -0.0380646  36.4947724  55.7960367  68.1151295  50.0380325  56.8067455
  67.5253248  50.4223347  57.4553347  68.8032246  50.6932449  56.6907692
  73.3462429  46.3717365  53.7332773  72.4879360  46.7231607  53.9699984
  73.1755781  45.8135939  52.9746056  75.4117203  69.4083548  51.7899275
  74.6770859  69.5290947  51.1882925  75.8195591  68.5893488  51.5086317
  18.3410108  48.1393051  49.1615343  17.9027891  47.3150873  49.3733501
  19.2651021  47.9044390  49.0771151  66.7484856  23.4943795  30.9352565
  67.3200035  22.7483177  30.7536149  66.5028906  23.3897328  31.8544769
  83.9004803  65.8303308  55.3457689  84.0923691  66.2693214  54.5170975
  83.8220501  64.9049234  55.1140308  58.7938213  18.8533211  17.3983049
  58.9213991  19.7978866  17.3102593  58.4185505  18.7427199  18.2719004
  77.2472334  42.2817183  61.0948133  77.7349424  42.0682955  61.8903160
  76.6940546  43.0219555  61.3443613  76.7576790  60.8479452  45.9579420
  76.7248821  61.1527443  45.0511599  75.8858156  61.0358620  46.3054705
  57.7358055  26.6441250  62.0741653  57.0571232  26.1382914  61.6272306
  58.3774137  26.8398333  61.3913250  20.1567125  59.9224043  67.8716993
  20.7692814  60.2041769  67.1922922  19.8845434  59.0458012  67.6001930
   0.8549322  72.0863008  56.6729116   0.3886779  71.2519169  56.7242908
   0.7560558  72.4699783  57.5442600  73.1353617  54.5051956   3.1549242
  73.1298542  55.3619146   3.5818097  73.8178635  54.0140629   3.6123255
  59.3814611  20.9587765  29.7421670  59.2838001  20.2745986  30.4044318
  60.2932787  21.2393379  29.8203015  81.9197559  33.6471033  59.2545414
  82.4717712  33.5474062  58.4789324  81.1310005  34.0835619  58.9326620
  49.2651510  41.2783098  10.0957119  50.1216269  40.9176302  10.3250325
  49.1054392  40.9679985   9.2044026  51.6979504  13.4168386   1.8440409
  52.2718430  12.6675498   2.0035653  51.6754007  13.5026264   0.8909595
  28.8199544  19.7626674   2.4764948  29.3848705  19.4300175   3.1739521
  28.3660841  20.5075550   2.8706750  53.3454895  24.1663933   2.0001723
  53.3882856  23.8338518   2.8967300  52.4126244  24.3125033   1.8431804
  48.4491014  78.4205055  65.9193993  47.6006556  78.4574795  66.3609934
  48.8958597  77.6752806  66.3209915   1.5917143  57.2328138  48.3044004
   0.7010219  57.4738503  48.5589600   1.4984570  56.3752842  47.8894520
  61.1311150  25.8914733   0.4563449  61.3270664  25.2854729   1.1709064
  61.5312052  26.7179513   0.7267045   3.6640483   0.9145402  41.9889545
   2.7181831   0.8188825  41.8775082   3.7757525   1.7981730  42.3395920
  71.9669771  36.6886401  53.7137032  71.8008423  36.4595413  52.7992916
  71.9872332  37.6455975  53.7209845  81.9082069   0.6103779  65.1615477
  82.5351143   0.9173489  64.5065784  82.3185158  -0.1672946  65.5398321
  81.4534187  72.9135609  35.3163433  81.2936878  72.3101139  34.5906925
  80.8772659  73.6574459  35.1404929  58.4254026  33.6769891  37.0168304
  58.5033703  33.0830765  36.2702250  59.3009281  33.6919522  37.4034286
   4.2603028  51.1585855  61.2707567   3.4334165  51.2277555  60.7935667
   4.6188873  52.0459986  61.2584591  20.7243514  56.0398626  50.2986288
  21.0153222  56.2078524  51.1949253  21.4473295  56.3455820  49.7508383
  75.0273180  61.3513374  26.6441369  74.3797636  60.6661367  26.4786077
  75.8555746  60.9751225  26.3463402  10.8100235  74.1421366   3.5821536
  10.7699251  73.5827160   4.3578270   9.8945600  74.3279934   3.3733049
  18.0723679  56.9661951  60.5623674  17.9343545  56.4241982  61.3391733
  17.4387705  57.6781368  60.6514072  49.2697763  39.2114663  14.1657436
  49.3658781  40.1634121  14.1374719  48.6178160  39.0567470  14.8492944
  18.7296844  49.4997120  38.5817528  18.3670700  48.8820314  39.2167449
  17.9935944  50.0668383  38.3520222  30.5914783  21.1114049  57.1425247
  30.3497148  21.8927169  56.6451931  29.8398399  20.5260897  57.0493555
  45.7304144  28.7763667  47.4829245  46.4116144  29.4452500  47.4136591
  45.3299618  28.9300561  48.3386421  16.7422390  49.7403336  51.7731142
  16.6969442  50.1901436  50.9293985  17.4008870  50.2268171  52.2688437
  29.5208192  60.6690645  15.7695377  29.9360347  60.3590488  16.5743470
  29.9760103  60.2010393  15.0695479   2.2898991  67.2481680   4.5325449
   2.9381508  66.7134809   4.0741670   1.5071750  66.6982794   4.5671812
   7.5979781  23.0748463  45.2594995   7.0888799  23.7746811  45.6684971
   7.1215969  22.8710747  44.4546556  10.5872321   2.1931554  62.5031376
  10.5749881   2.2579494  61.5482092   9.8388422   2.7173498  62.7883816
  19.6617806  42.9575300  15.6778657  20.0379920  42.8545904  16.5519929
  18.7487125  42.6878071  15.7767975  14.9025512  69.6280098  63.3974648
  15.6019735  69.2803907  63.9508200  14.4636130  70.2779388  63.9462423
  39.4760704  74.9692488   1.9506301  39.8018312  74.5443010   1.1572018
  39.7427249  74.3861628   2.6613572  40.6829691  72.4910307  48.9754248
  40.8793163  72.4837065  48.0386066  41.4201784  72.0322323  49.3782425
   2.2309360  64.5994186  62.9071474   1.7378473  63.8802147  63.3019209
   1.7191622  65.3818035  63.1125450  45.4338026   8.6421788  31.5683651
  45.2837801   8.0202460  30.8563781  45.9434748   8.1505686  32.2124028
  13.1223512  41.4369297  28.2241917  12.7543247  41.0054064  27.4531031
  13.3178937  42.3266506  27.9302692  76.7554522  58.8620663  17.1975362
  76.0545683  58.9049578  17.8480363  77.2229671  58.0522680  17.4022162
  14.1661954  24.5646286  42.9434538  13.5382044  24.3813896  43.6422253
  14.3739581  25.4934049  43.0456305  78.7992954  41.3836145  42.4888372
  78.2384634  40.7640362  42.0221233  79.5710897  41.4758301  41.9302082
  27.3842549  20.0914788  27.9961491  27.7736306  20.9273624  28.2528901
  27.1224546  19.6853626  28.8224435   2.8928894  48.6589813  41.6394567
   3.7684605  49.0054321  41.8114376   2.7956331  48.7149143  40.6888580
   8.0499029  74.1233444  24.3529558   8.8772160  74.5649719  24.5446587
   7.4134171  74.5463896  24.9292803  82.5526524  38.7190628  47.4300194
  82.4021530  39.5635390  47.0052385  82.9768944  38.1852651  46.7582226
  63.7331390  69.3431854   9.1983688  64.6004581  69.7305775   9.0803969
  63.3004570  69.4626474   8.3529425  66.6866112   3.2839477  57.3689222
  67.5168467   3.3262792  56.8944168  66.1825895   4.0266865  57.0364571
  34.8557353  27.0112538   1.0206398  34.9340701  27.0195436   0.0666866
  35.5206108  27.6309204   1.3209501  52.4997425  10.8927321  39.6157455
  53.1259680  11.2457013  38.9836979  51.8783140  11.6061139  39.7611547
  22.8997135   9.5246059  12.0835626  22.4352121  10.3442872  11.9144702
  22.3590422   8.8528156  11.6681087  15.6609762  57.6958942   8.9441645
  15.1464748  57.6416540   8.1388217  16.5686417  57.6012468   8.6553431
   4.9901086  26.3315010  28.7743521   5.2863014  27.1962380  28.4902191
   4.9444345  26.3954759  29.7283196  60.6991863  13.7748456  27.1531606
  61.5315628  13.3718634  27.4001145  60.0591850  13.0668712  27.2266889
  20.7865667  42.4708176  32.5636959  21.1578512  43.3339643  32.7463436
  20.6664777  42.4577951  31.6141486  55.4283428  65.4165649  46.2734509
  54.5713615  65.4602575  45.8492899  55.2303934  65.2774191  47.1995640
  17.4592030  77.1653414  30.2115011  17.2923017  76.6735029  31.0155344
  18.3938777  77.0427608  30.0453997  51.4289522  19.5177627  11.7501330
  50.8869410  20.2832508  11.5591311  52.2390366  19.6704662  11.2636399
  22.3193550   0.4918345  53.1431532  21.9302917  -0.3624053  52.9557037
  23.0144501   0.3051614  53.7742043  42.4177074  15.7072663  66.0402584
  42.0573282  14.8414123  65.8488083  41.8897486  16.3080668  65.5143976
   0.0926730  70.2450132  67.0571661   0.8180768  70.3135920  67.6779032
   0.5151683  70.1932955  66.1998129   4.9195296  35.0926757  24.9420214
   4.1361323  35.5381656  25.2646041   4.6863657  34.8078465  24.0584254
  10.7538474  51.7705774  43.6701965  10.1345003  51.1143827  43.3507490
  10.4461479  51.9812059  44.5517778  70.0254297  61.7750883  32.6540160
  69.7805834  62.6942348  32.7610207  70.5696154  61.5817499  33.4173727
  72.1982574  51.4272165  65.5250978  72.8405523  51.5566921  66.2229013
  71.3979769  51.8335533  65.8577776  71.6809607  20.6555367  63.6896467
  71.8126345  19.7223079  63.8569117  72.5659227  21.0157681  63.6321926
   1.9743051  74.7184896  28.4180140   2.0117816  75.1860476  27.5836182
   1.1101440  74.9288654  28.7718487   2.1691537  32.1383309  14.6528232
   1.6017270  32.8757262  14.8775613   1.8041649  31.7951441  13.8372028
  58.7067509  58.3943558  19.3193066  58.2864285  57.7572536  19.8969364
  58.4769344  59.2449474  19.6933460  25.6936407  25.4045391  44.1170311
  26.5421653  24.9707842  44.0270519  25.9030128  26.2695980  44.4692659
  24.9155569  13.8080239  13.7343061  24.4507337  14.2553115  13.0271244
  24.8508191  14.4057691  14.4791162  74.9602795  65.3450251  41.0428143
  74.7524834  66.2790775  41.0671949  75.3230190  65.2030993  40.1684523
   5.5482042   2.2007963  40.2375269   5.0257528   1.7129131  40.8741188
   5.6723928   3.0610093  40.6385803  17.4313092  23.7102032  57.2342062
  16.7912388  23.3849835  57.8672743  18.2413697  23.2505155  57.4549341
   4.8248237  67.1942854  48.1948423   4.2906311  66.6885471  47.5823879
   5.6150597  66.6676283  48.3148050  73.3864689  54.8896122  38.4280729
  73.2507324  54.0007019  38.7561655  73.0168915  54.8780823  37.5451732
  52.6255322  40.4755163  67.7044630  52.6436663  40.1076889  68.5879850
  51.7807484  40.2008057  67.3479509  52.0346117  23.2644272  13.8116717
  51.7997122  23.5348320  14.6993291  51.9082546  22.3156071  13.8089943
   3.7006965  58.2236195  59.9171495   3.9709076  57.8539085  60.7576990
   4.2649564  57.7942276  59.2741394  23.3449054  77.2803068  63.2975340
  23.0827522  76.5725946  62.7087593  23.9724803  76.8743181  63.8954926
  13.2407856  42.9483128  62.5531340  13.1948686  42.0517588  62.8852749
  12.3968267  43.3341837  62.7878046  44.2353582   5.1233357   0.6877176
  44.5448065   6.0053569   0.4815381  44.8037720   4.8304921   1.4000240
  52.4542427   7.9026574  27.2206235  52.0955896   7.1334743  26.7779493
  51.8560362   8.0591273  27.9513049  37.2243452  72.8229666  45.6523609
  36.5895629  73.1580114  45.0190973  36.6897583  72.4725008  46.3648367
  45.1179504  21.7640781  20.2249789  46.0568762  21.6151738  20.3366852
  44.9229050  21.4199758  19.3533242  60.0214052   3.5984418  40.2038622
  60.6856775   3.7619409  39.5343566  59.1960430   3.5683095  39.7200274
  60.0309515  15.0363445  22.5140882  59.2625713  14.8765337  23.0620718
  60.7212067  15.2744508  23.1330299  58.5365248   6.8548650  47.2590113
  59.2842340   6.6289854  46.7057037  58.2318926   7.6959199  46.9183397
  48.5581636   6.5625888  25.2114844  48.1934786   6.9415271  24.4117069
  48.1460047   7.0566702  25.9201741  36.8821979  62.6051092  27.6931047
  37.5058937  61.9707155  28.0463457  37.4167633  63.1979036  27.1648383
  39.2306066  23.0412960  33.0551791  39.8289871  23.6892152  32.6831913
  39.3739557  22.2537446  32.5303507  32.2936654   2.3277584  48.4908724
  31.3669133   2.5625080  48.5383463  32.4284387   2.0674747  47.5796556
   1.5330175  14.0946925   2.1400166   0.9782794  13.7496281   2.8396079
   1.5154047  13.4171152   1.4641380  63.6189222  76.0000277  56.5955448
  64.4155788  75.4811573  56.4844275  63.8489294  76.6535854  57.2559929
   1.4432237  70.3466177  64.9349737   1.9342865  71.1681509  64.9481106
   1.9111173  69.7979355  64.3054819  12.8192365  50.2631760  21.6500950
  13.3910370  50.9071398  21.2322617  12.8661692  50.4709816  22.5832844
   6.5605885  69.1855335   0.4406627   7.0756125  68.6036682   0.9996053
   6.9835603  69.1307592  -0.4162656  35.2511382  77.2185850  34.8874164
  34.5951986  77.8976011  34.7295690  34.9358797  76.7570496  35.6644797
  77.8545189  18.8107896  32.3169327  77.0111895  18.7830436  31.8649840
  78.3466578  19.4954383  31.8638468  19.8956788  77.6003361  45.4746151
  19.5429277  78.1389093  46.1829519  20.8446741  77.7037811  45.5449009
  51.8554783  30.8062005  62.8456497  52.1268749  30.0605464  63.3809710
  50.9540462  30.6050801  62.5942469   6.0908723  25.7249355  22.1517158
   6.1624587  25.2730751  22.9925084   5.8992088  25.0300574  21.5219212
  57.6343632  14.8211265  23.9698148  56.9229555  14.3306196  24.3815541
  58.0566072  15.2837217  24.6936584  52.1859741  37.1674895  66.4638948
  52.5376987  38.0213714  66.2120914  52.4124718  36.5905881  65.7344341
   0.8865900  51.3528299  33.1141114   0.5751554  50.6018543  32.6088595
   1.1384090  51.9981384  32.4535060  54.9845457  15.2797282  48.2502317
  54.4326448  14.5590842  48.5540533  54.5177698  16.0699499  48.5220814
  16.3380635  64.7682381  30.6588387  16.2433088  65.6672859  30.3442454
  16.8435931  64.3275309  29.9758697  31.9054842   5.1186317  36.5563250
  32.3585463   5.7892209  37.0674777  31.9994831   4.3188399  37.0737505
  52.1888924  20.4878998  45.0162315  52.1832371  19.7801805  44.3717670
  51.8579626  21.2489080  44.5391703   0.7611919  48.6852264  31.7944217
   1.0872948  48.7065363  30.8947349   1.2759337  47.9992819  32.2195721
  57.1103382  20.6762838  53.8291550  56.7059660  20.2254319  53.0879116
  56.4925718  21.3726974  54.0518761  31.8218064  15.1631451  39.5683122
  31.0621166  15.7270026  39.7138143  32.5687170  15.6890976  39.8541951
  48.9545536  24.5577931  46.6839218  48.2893324  23.8833094  46.5468597
  48.4671450  25.3814650  46.6689110  61.6209269   3.3977741  46.2066031
  61.9724083   2.8728861  45.4874468  62.2812891   4.0748543  46.3539648
  76.4916515  36.6909289  35.3628778  76.5272427  36.3056016  34.4873857
  75.7210970  37.2584701  35.3436303  48.9324617  36.1194038  62.9561520
  48.7698412  35.1924157  63.1307364  49.8761988  36.2239671  63.0772257
  55.9882832  17.8848267  36.3088560  56.5533543  18.6509919  36.2092495
  55.4282331  17.8977442  35.5327058  65.8616066   0.7943375  37.9244471
  65.7433462  -0.1143061  37.6476574  66.1568117   1.2486111  37.1353221
  62.8211784  77.2652578  41.0700607  63.5211086  76.6315603  40.9127045
  63.2392120  77.9637098  41.5736914  22.7397728  59.6229839  22.1286106
  22.4925327  60.4460621  22.5500941  22.1083546  59.5193243  21.4167118
   1.2038177   9.2923963  42.4174070   0.8175774   9.3409461  43.2918739
   0.4734102   9.0558535  41.8457556  42.3094273   2.8577486  13.3238721
  43.1248808   2.3756762  13.1865096  42.5783587   3.6614725  13.7687695
  74.6149492  24.9305153  40.9249783  75.4042530  24.4084215  41.0686779
  73.9503431  24.2930317  40.6639290  75.5246162  33.2362151  22.4760461
  75.9524536  34.0790558  22.3250246  76.1563301  32.7361441  22.9928637
  57.0146322  31.4075756  43.3174944  56.2722254  31.1064816  43.8413382
  57.2142935  32.2776628  43.6629152   2.0346540  73.8533688  48.0776739
   2.2408313  73.7661695  47.1470165   2.4941304  73.1242037  48.4941292
  49.8246956  13.8560581  31.5343213  49.9875402  13.7929165  30.5931926
  48.8876772  13.6840737  31.6273260   3.4269229  12.3078883  35.4160833
   3.4507123  13.0311298  36.0426521   3.6716786  12.7063894  34.5809054
  73.9502478  64.1352797  57.5046921  73.3455276  64.4590855  58.1722927
  74.5961142  63.6253643  57.9936409  63.9387560  70.1061296  50.3898907
  64.5413780  70.1980066  51.1278868  64.3009615  70.6771231  49.7123909
  21.4872384  14.0579236  17.5405574  21.3252497  14.4807744  16.6972375
  20.6567812  14.1345394  18.0103469   9.0172207  20.3716588  19.7787726
   9.3375772  21.1016417  20.3086090   9.4181216  19.5963907  20.1717997
  55.3705931  54.3360472  53.9327621  54.9040651  53.5088110  54.0521955
  54.8729181  54.7962809  53.2569313  52.3519659   0.0372107   7.6280117
  52.6737070   0.9352759   7.5493199  51.5701342   0.1099958   8.1754351
  36.9535041  70.4711294   6.1103487  37.4564934  70.3327560   5.3077990
  36.6538310  71.3783216   6.0517812  11.1203671  18.0264461  67.4101162
  11.7351246  17.7163470  68.0750561  11.4657223  17.6832592  66.5859938
  24.3046141  49.0031195   5.4992563  24.3414927  48.7036085   4.5908704
  24.5152545  48.2257414   6.0165066  21.0091949  56.2066603  11.7512798
  20.9617710  57.0088577  11.2312210  20.6242156  55.5339670  11.1895823
  62.3972464  16.8535376  46.4640188  62.5565338  17.5088131  45.7846975
  62.4932241  16.0140598  46.0142422  37.2936225  13.6143947  33.9766979
  37.6919580  12.7553630  34.1167879  36.3549161  13.4642386  34.0885592
  43.2359934  72.6807117  21.8341494  43.4689856  71.9177008  21.3052249
  44.0114737  73.2408667  21.8011403   9.3075210  65.4616451   2.8597179
   8.7866956  64.9362087   3.4670803   8.7386775  66.1964560   2.6301479
  82.0572758  23.4756207  21.7174053  82.4585629  23.9959574  21.0213780
  82.3703671  22.5846577  21.5612268  20.1447153   6.9794220  55.2112246
  19.3806720   6.5924978  54.7837257  20.4036474   6.3339663  55.8689308
  58.5232306  21.7418265  21.4946127  58.2278728  22.6031733  21.7897081
  57.8880358  21.1302471  21.8670750  72.7369499  72.5682068   6.0044068
  72.3282385  71.7464924   5.7324159  72.6736784  72.5625420   6.9594967
  38.6354733  20.9446836   9.4787014  38.6997461  21.7065024  10.0546634
  38.2318330  21.2823033   8.6791283  28.9389062  78.0714846  43.9030743
  28.9967132  78.9592981  44.2561626  28.0014086  77.9238796  43.7783957
  67.1980238  78.4372282  17.1385705  66.4238071  78.0590343  16.7216933
  67.6393366  78.9144945  16.4359403  29.0596509  22.3407698  28.4466553
  29.0837765  22.7375674  27.5759077  29.6811199  22.8553438  28.9616537
  28.9444876  77.9448748  25.7419944  28.8249755  77.7551508  24.8114276
  29.1786909  77.1018410  26.1301613  76.2774467  74.2237282  49.4697332
  76.1695576  74.8633051  50.1736736  76.8067884  73.5271454  49.8580647
  74.1395140  53.0471230  55.2683687  74.5872641  52.4615717  54.6577311
  73.7476206  52.4624729  55.9170866  77.6907349  37.3484683   7.0106047
  78.2284832  36.5918040   6.7771024  77.2506475  37.5901794   6.1956650
   0.1255825   7.7492857  47.6814604   0.4300800   7.6120234  46.7844248
   0.5083545   8.5880876  47.9386139  56.2845850  18.3164835  31.5447927
  55.7608938  18.2024884  30.7517076  56.8364763  17.5352764  31.5817332
  61.8904400  29.0866828  27.7374077  62.7606773  28.7835932  27.9963660
  61.3868856  28.2835889  27.6043367   6.6366053  47.4024725  42.6974916
   6.3571405  48.2219315  42.2893000   5.9622681  46.7696571  42.4504185
  50.7697535   9.3491864  41.0174417  51.5556192   9.5381230  40.5046558
  50.0440168   9.5611137  40.4303885  75.3702688  13.1483734  67.5687504
  76.0790539  12.6199114  67.9356050  75.8075809  13.9222908  67.2137356
   1.3998292  50.9648275  43.8839531   0.4799696  51.1377525  43.6834908
   1.4823969  50.0128651  43.8275433   6.7259783  69.0149355  65.0129843
   7.4489677  68.5293007  65.4100704   6.2818974  68.3729362  64.4590282
  72.4392223  78.1941032  60.4687071  71.9294405  78.1010628  59.6639109
  71.8765116  77.8300190  61.1521006  70.9100723  29.6946001  26.3962436
  70.2918339  30.4251838  26.3800836  70.5357313  29.0779352  27.0253897
  77.0999432  39.1599250  17.2796726  76.6377592  38.5475612  16.7072833
  77.1674728  39.9642611  16.7651677  79.4284344  49.6132708  52.5579977
  80.0920296  49.3178797  51.9346046  78.6067820  49.2572498  52.2198248
  81.4476776  70.8460379  44.6671677  81.5985870  69.9155331  44.5009804
  81.2180805  71.2080383  43.8113165  52.5764418  66.5249014  49.3781185
  52.3516703  66.9886398  48.5714865  51.8177176  65.9683943  49.5538187
  20.9236598   0.6711899  59.1017294  21.4247966  -0.0792238  58.7824011
  20.8466196   0.5241042  60.0444174  61.5710783  28.8145638  35.2800131
  61.1745071  29.1299677  34.4679260  62.2310638  28.1827331  34.9946380
  33.7185550  41.7647934  24.2938089  34.2166758  42.3719215  24.8410749
  32.8633475  41.7050409  24.7195816  57.2201300  56.3721704  50.8659840
  57.0219517  55.6675816  50.2491236  58.1736803  56.4516973  50.8404541
  61.4464760   6.8193018  30.1349044  61.4556646   5.8794773  29.9535847
  60.9396076   6.9024539  30.9426212  15.2587461  42.8052521  10.7152295
  15.0185823  41.8797684  10.7602835  15.7804954  42.8786755   9.9160922
  16.4855194  78.9488792  38.2277632  17.3533309  78.5970926  38.4262133
  16.6282773  79.5323133  37.4824739  44.9007463  73.8243055  33.8832688
  44.9119282  73.4899473  32.9864335  45.2164316  73.0937958  34.4151831
   5.0331074  30.7279992  63.6478567   5.8731085  30.6061959  63.2053709
   4.3861943  30.3815961  63.0332518  12.7635264  58.1599140   1.5048431
  13.0802524  59.0544653   1.6301484  12.6791465  58.0664206   0.5559645
  59.9894428  35.9260321  35.4829335  59.0606356  35.7025909  35.5431247
  60.4176950  35.3400207  36.1069727  56.0649586  25.9258938  47.7456045
  56.0283327  26.8078160  47.3753309  56.1346674  26.0653472  48.6900234
  52.4960041   1.9753733  39.6322703  51.6489697   2.3562211  39.8640418
  52.7434587   2.4178576  38.8203549  48.7779760  23.4126854  53.7382174
  49.1372442  24.1891408  53.3089447  49.5152521  22.8043461  53.7889862
   3.6523581   9.3591082  45.5254841   3.5859835   8.7620264  46.2706804
   4.4580340   9.0973318  45.0798512  22.4386621  71.4940310  46.9036198
  21.9733834  72.2345829  46.5146112  23.0216384  71.1861849  46.2096405
  56.8868446   2.2964340  36.8250394  56.4747667   2.6298296  37.6220775
  57.2280836   3.0764315  36.3875556  26.8551517   6.4830524   3.0604070
  27.6805186   6.0905248   2.7759352  26.7502236   6.1903924   3.9657089
  61.1625719  24.0639663  17.2979045  60.9880161  23.9166951  18.2274604
  60.7065010  24.8807073  17.0950234  55.9277964  34.1910052  59.0174532
  55.4248428  33.3977866  59.2020369  55.5292320  34.8617744  59.5719337
  68.2336187  23.8571405  48.9745474  69.0370131  24.3499637  49.1416168
  68.2379532  23.7052560  48.0294800  79.9482822  11.0551250  56.0184288
  80.7365608  11.5560460  56.2279892  79.4511652  11.0376084  56.8362331
  32.3798418  35.7098007  11.6786814  31.7574763  34.9839258  11.6339743
  31.8326926  36.4884210  11.7817008   5.6410217  72.9551554  46.1191130
   5.7538104  73.8287067  45.7443810   5.4752088  72.3903322  45.3643179
  72.3225594   3.2251886   1.0993577  73.1461954   2.8377271   1.3955507
  72.4998856   4.1650674   1.0617327  50.4065990  14.6847069  19.2315304
  49.8145151  15.4345953  19.1737974  50.1097298  14.2040730  20.0042486
  19.6905601  68.9159584  53.1933069  20.3118920  68.1893969  53.2411337
  19.3522847  69.0008926  54.0847063  53.5369015  28.4535241   2.3693721
  53.1333590  29.2525196   2.0302683  53.4952593  27.8357482   1.6394059
   3.3404788  22.1125555  57.9685402   2.6809746  22.7800274  58.1576633
   2.8341877  21.3232017  57.7766514  81.2242031  39.8020983  62.2544098
  80.4823208  39.2556500  61.9951153  81.9590950  39.1923833  62.3208809
  67.9538822   4.9822327  46.2995911  67.1308708   5.4133344  46.5298843
  67.7189064   4.0609422  46.1889505  80.2276134   7.5679481  52.7443933
  80.3850842   8.4070128  52.3114872  80.6128883   7.6713401  53.6145163
  41.0900974  51.5092468  16.6649449  41.6285086  51.3327789  15.8934498
  40.2065802  51.6314936  16.3175559  12.2490168  60.4788303   8.7331212
  12.9039288  60.8818579   8.1631279  12.5273037  60.7108068   9.6191090
  47.2942162  13.5357225  38.6720991  47.7048826  14.1793954  38.0948019
  48.0203009  13.1684124  39.1761971  63.7089968  59.5390892  14.2691791
  63.0566645  59.3305683  14.9379206  63.1994963  59.6654367  13.4687555
  74.8825598  25.6637883  55.2266121  74.9138832  26.2493753  54.4700813
  74.9314165  26.2476063  55.9835815  82.7050400   9.0224475  37.8621960
  82.5166225   8.2128030  37.3876357  83.5526276   9.3081564  37.5213242
   0.3151392  25.1075435  67.2839880   0.1978043  24.9142313  68.2140970
   0.4207778  24.2497611  66.8725491  76.5723705  33.9743257  17.8207135
  76.3590574  33.4047389  18.5598350  75.8236027  34.5665193  17.7507997
  63.6297321  18.3108175  11.0850620  64.0908146  17.7581227  10.4540610
  63.8930464  19.2029798  10.8593535   2.9420444   8.6944002  11.5272486
   3.3858839   9.0050673  12.3163772   2.7038521   7.7891058  11.7270947
  59.3777227  50.5762339  14.5286751  58.7427902  51.2573147  14.7505295
  59.0755272  49.8028040  15.0048208  56.9481134  13.6739731  32.4274516
  56.2657213  13.1969202  31.9552326  57.7661371  13.2672143  32.1417665
  49.0483427  77.1968842  63.5292625  49.9877262  77.1764612  63.7119389
  48.6644650  77.6225328  64.2958736  19.3009639  29.3294263  19.9232972
  19.2406142  28.9725852  20.8094430  20.0876737  29.8745084  19.9376559
  44.1964436  66.3424778  13.1452954  44.5912027  65.7955599  13.8244677
  43.7826300  65.7202053  12.5471592  66.5546560  60.1931667  49.1691208
  67.2840500  60.7576609  48.9130783  65.7738304  60.6633186  48.8767147
   4.3516076   7.0518214  50.1087093   3.4986818   6.9052374  50.5176878
   4.1538346   7.5446439  49.3123150  77.7492237   9.9596775  37.5078249
  78.1458521   9.0957439  37.6198030  78.3042002  10.3960502  36.8614411
  24.4050765  20.5018830  60.4660177  25.3427863  20.4123831  60.2959585
  24.0043783  19.7770369  59.9861526  42.8667164  35.3826928  18.0993974
  42.8795004  36.2225389  17.6403475  42.5768375  34.7532248  17.4391139
  61.8883991  59.2580318  16.3282025  61.2340212  59.4244909  15.6497407
  61.8773270  60.0468349  16.8703258  24.9800611  29.3416786   2.6146531
  25.5634212  30.0077176   2.2509056  25.5688143  28.6752415   2.9688612
   9.2359960  62.4060774  14.3114114   9.5769775  61.5119982  14.2872226
   9.5626640  62.7647591  15.1365578  66.9666481  22.2710872  61.7106962
  67.6161098  22.9308891  61.4676046  66.6182566  21.9588733  60.8756065
  77.6190662  69.3769932  35.7448936  78.1921911  68.6104107  35.7343388
  76.9882917  69.1948795  36.4414501  16.5645957  77.6088190  25.0981164
  16.9979954  77.8509521  25.9165096  15.6543922  77.8787661  25.2201319
  60.8705759  61.7956114  42.1827936  60.7758236  62.5594664  41.6137791
  61.2636137  61.1266422  41.6222286  43.4324026  61.1576176   1.7517693
  43.7435150  60.5064631   1.1229323  42.4926567  61.2242317   1.5824375
  10.1202214  61.8982792  21.5390277  10.5060291  61.8257713  20.6660271
   9.9532169  60.9934759  21.8029833  70.4549599  23.7019730  33.1592274
  71.2890148  23.5572839  33.6060548  70.7009554  23.9979434  32.2828031
  41.8207359   4.8313251  35.8589125  42.6270819   5.3412968  35.7816792
  42.0428467   3.9751619  35.4930115  73.1247425  50.9416342  53.6896658
  73.0234575  50.3071785  54.3992043  74.0708017  51.0643911  53.6113691
  75.3605258   0.0961924  20.1015043  75.0930679  -0.5392980  20.7654667
  76.1434304   0.5086900  20.4663897  52.9860163  54.4764519  44.7931480
  52.5240517  54.3404770  45.6203938  53.8752127  54.7181225  45.0522995
  36.9034076  62.4337339  46.1178350  36.0762763  62.1177387  46.4814711
  36.9079542  63.3709860  46.3121653  67.1607590  75.1280594  32.0013475
  66.6400433  75.0905371  32.8036427  67.9904985  75.5208015  32.2724867
  72.0457268   9.4619709  35.7391429  71.8009996   8.7173450  35.1897144
  72.9789400   9.5891613  35.5683637  56.0624027  75.7680845  46.4682388
  55.6095505  76.5990686  46.6118288  56.3668251  75.5078650  47.3376322
  68.1320667   4.2595407  52.2160578  68.8793182   3.8756239  51.7573071
  68.2641077   5.2045375  52.1400452  84.2965031  78.1548786   8.3766341
  84.3065166  78.8184118   7.6868081  83.5653877  78.4068632   8.9407432
  29.0321660  52.0606756  21.3482547  29.2810249  51.6718388  22.1867681
  29.4733047  51.5198851  20.6931400  31.2830234  49.3551922   2.6734862
  31.2876940  48.8831568   3.5061890  30.3635573  49.5796728   2.5305766
  82.0611191  44.2843676  46.8213415  81.1657429  43.9501715  46.8748474
  82.3340893  44.3850374  47.7332497  60.3110504  40.7251740  42.2222090
  60.3826618  40.6313372  41.2723160  59.3913412  40.5403376  42.4124861
  80.6994820  27.8046751  58.2678127  79.9554348  27.4391770  58.7463951
  81.4269924  27.7636814  58.8885212  66.7359257  19.3709660  44.5471811
  67.2254515  19.9677825  45.1132250  66.3088131  18.7639165  45.1515818
  65.5280256  13.8276076  33.0881000  65.8838177  13.4781027  33.9051008
  64.8647642  14.4591260  33.3664846  69.9589109   9.7184366  28.0720901
  70.7711983   9.5332259  28.5433817  69.2928791   9.2084843  28.5331583
  27.3256469  13.1760848  47.3160982  27.2991681  14.0432870  47.7204370
  27.4356580  13.3508682  46.3814402  55.0761366  22.1056390  45.8807373
  54.5491838  21.4048243  46.2646770  54.6058941  22.9088354  46.1042929
  79.7977114  59.2295074   7.8860104  79.2628527  59.5041943   8.6307973
  80.6868649  59.1761160   8.2364160  45.8500433   2.5748408  48.0425024
  46.1062193   3.4817091  47.8745794  46.4139414   2.0564519  47.4684572
   3.5398808  13.8464963  63.2406139   2.6727685  13.5417342  62.9732800
   4.0893680  13.0633771  63.2086611  57.2994184  73.2943964  52.8016710
  58.2382298  73.2993412  52.6150179  56.9668818  74.0858793  52.3783445
  51.1008596  73.9295673  57.7984667  51.9972420  73.6429882  57.9734135
  50.6612587  73.8724375  58.6468267   8.7323153  55.9305573  16.1547887
   8.0855215  55.9706879  15.4503179   9.5460236  55.6776476  15.7187283
  31.0977244  76.0662746   0.6128448  31.8668365  76.5029907   0.9788743
  31.0402822  76.3945484  -0.2844679  26.1437178  23.4027243   7.6931530
  25.9593701  22.8387475   6.9420356  25.2998781  23.4963322   8.1351972
  80.3044796  26.1075139  34.1450763  80.4305458  26.9531512  33.7146831
  79.7543621  26.3043070  34.9032807  48.8005972  24.1917706  57.2751141
  49.0394020  23.5558510  56.6007137  47.8718805  24.0287852  57.4398899
  77.9529428  40.9362793  47.4166679  78.2611609  40.0718737  47.1445799
  77.8155184  41.4106035  46.5966892  69.4657993  45.0802612  16.0255086
  70.0573874  44.3708849  15.7744241  69.6058559  45.1872349  16.9663453
   3.5701567  33.3467698  47.2498369   3.9303678  32.4839449  47.0448732
   3.8333350  33.5070705  48.1560802  15.7751954  18.7381113  39.9004197
  15.4409981  19.3915594  39.2859697  16.7156506  18.7037659  39.7255015
  61.2057257  16.4081299  37.4924874  60.3590155  16.6651165  37.8575540
  60.9989214  16.0752130  36.6192007  77.8177547   9.8845822   2.4449417
  78.3580351  10.5966187   2.1023968  78.2121754   9.6700108   3.2902971
  43.0870533  20.4524398  40.1899529  42.6001024  19.6336162  40.0970030
  42.6349115  21.0669374  39.6118593  80.0871277  18.6072445  48.5268497
  79.3009996  18.0867457  48.6921120  79.8324680  19.5028329  48.7488842
   4.4043449  78.9575100  35.2081943   5.1056135  79.4605875  35.6221581
   3.6710322  79.5701551  35.1520991   7.4374014  10.4475152  53.9418030
   7.2594965   9.5070219  53.9344454   7.8256655  10.6111133  54.8012924
  11.0827804  52.3008633  39.4677162  11.8304431  52.8152990  39.1634321
  11.4548266  51.4485407  39.6943498  51.9988012  11.8056524  18.4169173
  52.0186806  11.0677195  19.0262520  52.6482248  12.4185216  18.7616944
  79.5118141   8.0290723  57.9063940  79.5566511   7.5689864  58.7445736
  80.2322865   7.6630157  57.3934031  58.7529564  17.1342051  51.4750528
  58.2290745  17.3535442  50.7045555  58.5609198  16.2111604  51.6404104
  80.8079529  66.4574289  19.0264618  81.2783718  65.9858036  18.3390701
  81.0411072  65.9992599  19.8338974  58.4687138  45.3964996  52.2410917
  58.6023426  45.6571341  53.1523800  57.5292778  45.2247286  52.1763992
  77.1600866  33.1231189  57.6732111  77.4206972  33.2328534  56.7587328
  77.5028706  32.2637129  57.9184771  45.3419638   1.1515418   0.2221021
  45.7512379   0.7822247   1.0046182  44.4261837   1.2805206   0.4689703
   1.8307187  42.9857063  62.2028399   2.3133434  43.1344509  63.0159664
   1.1964011  42.3032522  62.4222231  83.0911160  32.4486876  61.4318800
  83.6780739  31.8176031  61.0153961  82.6558113  32.8888845  60.7018375
  68.0659199  72.8122520  51.3437796  68.7141943  72.7981091  52.0478916
  68.4422445  72.2574520  50.6605482  78.9884329  25.4170561  56.9832802
  78.2581091  25.2757740  57.5856876  78.6834240  26.1077309  56.3949156
  66.6536951  29.9008298  20.4559827  66.9931030  30.0027156  21.3451695
  66.5022278  28.9602017  20.3637457  35.3134680  57.1075392  27.0362926
  34.4497180  57.4556398  27.2576356  35.8766389  57.3875141  27.7578783
  67.4509621   8.5733676  36.3716435  68.1152487   8.0955958  36.8683195
  67.0978832   7.9268783  35.7604003  20.4610753  24.5219088   4.8640087
  19.6267796  24.3136978   5.2845222  20.3695011  24.1877890   3.9717025
  62.9584074  23.6640787   8.6183363  62.9427147  23.4624410   7.6827461
  63.1301880  24.6049118   8.6577320  67.5752783  49.2895794  27.5646067
  67.4353790  48.7869835  28.3671379  66.8821049  48.9952326  26.9737601
  74.9048424  41.8404913  38.4329581  74.2319536  42.4303007  38.7729216
  75.7177544  42.1480560  38.8339734  59.4743586  53.8291788  67.0246506
  58.9323378  54.1906166  67.7259350  59.0628576  52.9916859  66.8113232
  35.0750446  54.2527676   8.4558052  35.0808263  53.2955885   8.4553754
  35.9657621  54.4975519   8.7066710   6.0870922  53.5769176  37.3174906
   5.3557771  53.4320498  36.7171383   6.6031545  54.2688322  36.9037676
  61.4819860  18.2734883  57.5567150  62.0959997  17.9947329  56.8773651
  61.0038376  19.0030885  57.1626472  60.1066208  26.3631511  29.4159484
  60.5156994  26.0094810  30.2057600  60.6920576  26.1015081  28.7052870
  70.4703856   5.2438033  45.4411173  70.7290316   6.1597472  45.5430079
  69.5768547   5.2078408  45.7824945   6.9362837   6.6052264  62.4143028
   6.2232709   6.8172938  61.8119144   6.8775052   7.2715104  63.0990219
   6.1424083  45.8397245  56.6135216   6.7480338  45.1002979  56.6655016
   5.8847684  45.8739948  55.6922817  18.0815160  71.0986137  20.9610772
  18.6168575  71.8890333  20.8912206  17.1793139  71.4167452  20.9286141
  62.9912567  25.2807522  36.0606980  62.1488857  25.6636286  35.8156538
  63.4508228  25.1611590  35.2295971  81.1717129  27.2058249  55.3841734
  80.9394932  26.9637656  56.2806749  80.4144573  26.9425535  54.8612118
  64.4462681  25.7277989  46.4121103  63.7680721  26.3984179  46.3311863
  65.0563049  26.0810089  47.0596647  27.5046802  74.4444323  39.9206591
  27.0204329  75.2688599  39.9660420  27.9462409  74.3791008  40.7674122
  74.5692587  30.6280851  54.9344254  75.2471972  31.1296654  54.4816017
  74.0385914  30.2535224  54.2313385  64.1625452   9.7229052  43.5956573
  64.3843412   9.9184430  44.5060444  63.7630653  10.5287218  43.2680750
  10.0497210  38.8987684  27.2447395  10.3223622  38.1534481  27.7799010
   9.5776284  38.5063481  26.5103245  52.4973154  39.6403933  64.4702101
  53.2528591  39.7075582  63.8863659  52.2748709  40.5475855  64.6793842
   6.1132085  42.9635525  67.1271086   6.1941457  42.9922009  66.1737680
   6.9544595  43.2877064  67.4487495  72.2328234  16.5276694  49.2766762
  72.1813488  16.5981662  50.2298880  72.0775032  15.6005299  49.0963411
  63.8382149  18.1710041  48.6346626  63.0965757  17.8718162  48.1086493
  63.6882544  19.1095543  48.7481070  74.2382288  68.9343929  28.6228108
  75.0521040  68.9321613  29.1266298  74.1798449  69.8206854  28.2660055
   8.6507058  10.9966755  56.2408447   9.5111424  10.6588984  55.9922743
   8.8063043  11.4705551  57.0578241   5.1433176  23.2999516  51.6343737
   4.4872591  23.8009453  51.1497879   5.5020821  23.9231920  52.2661066
  20.6887627  71.8650055   6.3735318  21.3213277  72.4691153   5.9847629
  21.1246729  71.5345716   7.1590436   9.0996641  40.0722599  53.7434816
   8.4794605  39.9705696  54.4654512   8.7399179  40.7865143  53.2174969
  77.6955986  16.9053304   6.9117767  78.4937143  16.4909542   7.2397000
  77.3313427  17.3586822   7.6720560   0.9821897   1.0648929  40.8682537
   0.3904021   0.7504600  40.1847696   1.5009342   1.7464839  40.4409742
  65.2201796  12.3216605  58.5643387  65.7916403  11.6584873  58.9514637
  64.5396280  12.4648571  59.2220449  74.9501801  14.4894218  63.1781530
  74.6103954  13.8603508  63.8145876  74.3783092  14.3924129  62.4167204
  52.3983765  16.6805136  24.8668051  53.2303429  17.0799088  25.1208663
  52.4687243  16.5625441  23.9195108  76.3825226  47.1340275  35.8298016
  75.5733776  47.5172138  36.1684585  76.8325090  46.8000793  36.6058302
  39.1947651  28.4589338  42.2875261  38.8314939  29.2290187  42.7248287
  39.6788049  28.8131642  41.5415668  53.8177109  32.3322558  57.6886892
  53.4440756  31.6075611  57.1872425  54.3751764  31.9092822  58.3417988
  27.4914145  35.0749350   6.3037556  26.7706585  34.6464872   6.7654657
  27.0868826  35.8297396   5.8761382  27.4582148  14.0508091  58.9636326
  27.3029876  14.8365319  58.4394455  27.0981026  13.3368647  58.4374857
  53.5028410  30.5657744  14.0529275  53.0136251  29.8449755  14.4495964
  53.8109207  30.2149057  13.2173395  14.7372198  52.0747757  20.5147409
  15.0038540  52.4355841  19.6691906  14.6790004  52.8358746  21.0922933
  81.8214321   1.2295727  46.8450832  82.0315647   0.3815761  46.4539528
  81.9806576   1.1076826  47.7810431  66.9171762  10.4885530  64.0768290
  65.9886932  10.2611601  64.1262770  66.9478416  11.2438595  63.4896278
  61.3372421  76.0642767  32.6682401  61.9708443  76.3636684  33.3202696
  61.8087244  75.4024315  32.1623755  69.7040176  39.6030116  27.5559211
  70.0413799  40.3947973  27.9748392  69.9834442  39.6771884  26.6434240
   1.3815506  62.2255516  64.0921879   0.6772253  62.0562363  64.7178793
   1.6975489  61.3561392  63.8462162  56.2482309  31.5112567  51.2302637
  56.6243505  32.3511839  50.9670401  55.3193188  31.5857530  51.0116291
  64.1138744   5.2523404   1.5967593  64.1505766   4.3281412   1.3503037
  63.1801271   5.4629374   1.5981905  68.7646484  40.2614021  43.3469677
  69.2003298  39.4115877  43.4119701  68.6351252  40.3929377  42.4077368
  58.0478477  67.4774742  38.3592629  58.8120413  67.0768881  37.9448080
  58.4054041  68.2044601  38.8690448  12.3847437   9.6662205  17.2787094
  13.2136452  10.1005173  17.4800527  12.2561073   9.8179293  16.3424027
  64.8238802  11.1302292  54.9551916  65.3484869  11.4288640  54.2123365
  65.4498768  10.6866932  55.5275869   1.5214014  26.3920808  25.4552102
   1.0297151  25.5780935  25.3461218   2.2446400  26.3203430  24.8323035
  72.2071791   4.1830304  36.8595910  72.2311354   4.8399949  37.5553322
  72.2582245   3.3451220  37.3195219  77.9647684  21.9678211  12.7999532
  77.9293013  21.7761922  13.7371039  77.9890490  21.1078191  12.3803830
  54.6714401   1.6945112  32.4050617  54.0225363   1.4443965  31.7473364
  54.3671131   2.5411385  32.7319241  79.7869635  50.5476809  68.9689445
  79.1449642  51.1529112  68.5977745  79.9459410  49.9104643  68.2725859
  59.8489523  37.5523019  39.9562883  60.1872969  36.8304873  40.4861355
  59.2443228  37.1357226  39.3421841  66.1504650  67.0268393  52.1366310
  66.3629675  67.3654699  53.0063438  65.6169605  66.2503052  52.3057365
  21.3745451  69.9017000  66.2681103  22.2002363  69.9148417  65.7840729
  20.9178138  69.1264486  65.9415913  68.0361557  37.1643329  29.3537998
  68.4589052  37.5900102  28.6079335  67.1005821  37.2092748  29.1565514
  11.0605752  46.0865307  48.5951710  11.4822257  45.3257465  48.1956196
  11.3302088  46.8244791  48.0483913   0.5703458  34.1854191  47.2374678
   0.9155069  33.5613728  46.5989828   1.2933300  34.3275380  47.8484726
  59.0997601  15.5578220  18.4458530  59.5074177  15.8592105  17.6339340
  59.7045898  15.8340096  19.1344249   4.5512363  44.0833187  49.2234993
   3.8662320  43.8738918  48.5885620   4.9520716  43.2391167  49.4305801
   6.4463717  24.1331458   2.9660618   6.0232061  24.5884919   2.2381727
   5.7270062  23.7091184   3.4339792  69.5184552  -0.1867675  27.2932982
  68.8524329  -0.2903222  27.9729462  69.6706998   0.7572080  27.2489977
  53.6496019  76.7881250  52.7993345  53.4171629  77.6007366  53.2486296
  53.1884289  76.1049891  53.2860279  49.7799635  74.2654037  51.0958672
  50.7344532  74.2393637  51.1629772  49.5827246  75.1646709  50.8338642
  70.2465010  35.5357385  30.5174732  70.8129835  36.3046145  30.4529667
  69.4483519  35.7865953  30.0524259  19.4140625  33.9432430  60.5144405
  19.9074733  33.4844708  59.8345137  18.7331605  34.4176388  60.0374174
   7.8701609  47.4033403  45.3499985   7.5397587  47.4046659  44.4516325
   8.2302833  48.2814980  45.4740429  60.3953075   7.4313635  27.6122952
  60.4884720   7.4613869  28.5644794  60.6525278   8.3053946  27.3187971
  53.5074902   3.2888964  37.1573734  53.7496948   4.1064233  36.7223835
  53.6664629   2.6115695  36.4999652  42.2456026  59.4130993   9.6057665
  41.8576527  58.6370802   9.2013931  41.9326591  60.1432514   9.0717459
  82.5825691  16.4725780  34.9907303  82.0332623  17.2445154  34.8542953
  82.1811676  16.0211968  35.7332730   7.2706407  41.3115597  19.2928064
   7.6336032  40.8163071  18.5584950   8.0373544  41.6295719  19.7695148
  80.0814724  26.4801311  37.1492386  80.4274082  27.2773433  37.5504994
  79.2359209  26.7426062  36.7853904  59.6081638  73.0447531  27.3420906
  60.5268097  73.1147480  27.0824337  59.3143845  73.9514971  27.4300814
  50.5743837  65.6519270  61.9953823  50.0490856  64.9440908  62.3685598
  50.1204014  65.8859205  61.1858273   2.0637250  76.4718342  26.3939047
   1.1666740  76.6091204  26.0894656   2.5335091  77.2587061  26.1175513
  70.5232286  19.7535264  66.1577129  70.8281708  20.3481793  65.4724169
  71.2962866  19.2389607  66.3897467   4.9034148  12.9849887  24.9245024
   5.1152319  12.2528434  24.3454242   4.0142348  13.2375240  24.6758723
  80.2848816  42.0081758  48.3958817  80.0090790  41.3964176  49.0784645
  79.6514177  41.8805933  47.6897097  72.0488453  54.9120045  36.1455941
  71.3210058  55.4691887  35.8698654  72.3888445  54.5416069  35.3310776
  67.0078802  72.4884367  33.6593533  66.2674809  73.0429077  33.4131622
  67.2859192  72.8245449  34.5113850  53.2609987  30.6953454  38.2651496
  52.7366400  31.4668369  38.4798145  53.2582045  30.6624603  37.3085189
  68.8335848  24.3877029  11.7333758  68.1870031  24.7497082  12.3392785
  68.6709309  23.4444952  11.7449534   9.6009374  63.8156176  16.8769109
   9.0297556  63.2655048  17.4129689   9.9209994  64.4870853  17.4793422
  42.0491028  55.2907038   5.7992935  42.5130272  55.3220701   6.6359651
  42.4072361  54.5219183   5.3555179  17.6437283  65.2863026   5.6597108
  17.2099996  66.0102272   6.1114240  18.5441148  65.3067589   5.9839284
  77.6438570  12.9670560  17.5752699  76.7795181  13.2015479  17.2373891
  77.7909994  13.5753417  18.2995403  66.0885668  33.5767674  36.1588931
  65.5878925  34.1598701  35.5883265  66.5899944  34.1657948  36.7226744
  65.0750923  26.5198207  37.4565697  65.2917433  27.2115159  36.8313885
  64.2419767  26.1669278  37.1441364  19.6067798  66.0634947  16.3149679
  19.6760142  66.5527582  17.1347606  20.4280806  66.2445450  15.8578956
  32.2483993  57.1734953  21.8693733  32.1391368  57.0814753  20.9228921
  31.4269543  56.8485880  22.2380137  75.0779772  47.2851276  39.8362899
  74.8761606  46.7470264  40.6017637  74.8883438  48.1806040  40.1162815
  78.1740952  15.9610534   2.6227021  78.6584330  16.2916958   1.8661812
  77.7160311  16.7275572   2.9674917  59.4271326  22.2172809  14.4271004
  60.2585220  21.8534040  14.1227591  59.1013861  22.7247834  13.6837554
  26.1733723  69.4048738  43.5728025  26.0080695  68.8020372  42.8478956
  26.4129376  70.2290535  43.1490374  70.0940371   9.1412365  50.5786896
  69.2225933   8.7470573  50.5406857  70.1902866   9.4223422  51.4886045
   2.4977022  27.1794152  20.4371023   1.6454856  27.6147962  20.4170132
   2.5084704  26.7124701  21.2726116  29.0346694   9.5041072  36.2533879
  28.1626511   9.8976481  36.2841058  29.5282054   9.9620271  36.9338012
  12.7615798  34.0130544   3.0213854  12.0618987  34.2215085   3.6404365
  13.0619383  34.8646069   2.7037767  56.2570667  67.6236773  44.9121428
  56.2271833  67.0708418  45.6929827  56.9158030  67.2123909  44.3525505
  10.4813433  14.8152494  28.1707239  10.4255450  13.9292359  27.8128147
  10.3887963  14.6979105  29.1161871  67.7229881  33.9516354   3.9673555
  67.3101044  33.1369424   4.2537767  68.0585098  34.3460321   4.7724056
  84.1880512  13.3104217   4.1010094  83.8466930  13.5218322   4.9699208
  84.1056156  12.3589790   4.0362638  51.5167761  21.6529322  63.6865568
  51.3043404  22.4259210  63.1634951  52.4194860  21.4426827  63.4475231
  82.7003956  50.8137131  29.9485159  83.2433891  50.0951481  30.2726293
  82.8396988  50.8108854  29.0015125  23.0488682  31.6737580  54.1004562
  23.7972069  32.2703385  54.1181231  23.0644631  31.2445712  54.9559021
  30.7622170  74.1720343  34.2262769  31.2458444  73.6388540  33.5953641
  29.8599768  74.1617203  33.9067626  22.3757648  60.9256268  10.1887524
  22.3941016  61.7396402  10.6920254  22.6586533  61.1805630   9.3105638
  21.8520427  33.4790421   4.3364367  22.6227355  33.4211493   3.7717113
  21.9867945  32.7986169   4.9960542  22.4899483   7.8750217  14.3891072
  23.2821059   7.3447174  14.4756866  22.7726102   8.6504114  13.9042306
  20.3591394  64.9510765  38.4907174  20.0343895  65.7864046  38.8268638
  21.0251260  64.6810913  39.1230154  64.0453863  22.9150915  45.5738592
  64.6853256  22.8990889  44.8622036  64.1758156  23.7651205  45.9941816
   8.2715797  15.8038449  43.2215929   8.0009717  15.2530503  43.9561844
   7.4510449  16.1280918  42.8503513  80.6489658  18.6334217  35.1404691
  80.2441788  18.4003437  35.9759665  80.8903027  19.5543468  35.2399015
   8.4403741  38.2859778  33.7011552   8.0561167  38.2149243  34.5749569
   9.3582135  38.5061431  33.8603091  72.3558664  33.5140872  45.2984667
  72.3689795  32.5580788  45.3444052  72.8651142  33.7973714  46.0578394
  12.1069133  18.5053682  53.1971550  12.6280499  19.0310562  52.5902748
  12.2164297  17.6055789  52.8895521   5.3530973  -0.0685325  55.3787661
   4.8055285   0.2048980  54.6428061   4.9294060   0.3134202  56.1474180
   4.4267046   1.0911839  35.2231359   4.1472554   0.2792353  35.6460762
   4.8060390   1.6117956  35.9311628  55.0880384  73.6745882  44.2528725
  54.5020580  72.9756832  43.9623642  55.1460409  73.5597229  45.2013826
  27.5845122  42.8905296  29.3311191  28.2806635  42.3815632  29.7465205
  28.0424953  43.6015749  28.8828993  14.8173976  12.2792959  43.3163309
  15.6656849  12.7093136  43.4246111  14.2565465  12.6862550  43.9766836
  62.6356173  27.7416396  47.8788662  62.1497536  28.5125446  47.5858307
  61.9612694  27.1368217  48.1881952  18.2926548  43.6187840  44.1948843
  17.8222692  44.1541386  43.5558462  18.2096100  42.7240086  43.8651705
  40.2807474  41.4792681  18.3153570  40.7444859  42.1760225  17.8509057
  40.9714508  40.9841013  18.7557757  45.3414536   5.5470824  47.8579617
  45.5123186   6.4724338  47.6825714  44.7023249   5.5523962  48.5705042
  60.3788757  53.3340597  32.3026204  60.8485365  53.8428926  31.6417623
  61.0562754  52.8044176  32.7231479  59.3299246  31.7867661  58.2848978
  59.0841627  32.2862744  59.0635633  60.2516413  32.0024872  58.1430006
  40.5048943  17.5885773  38.1808043  40.6924105  17.9263031  39.0565944
  40.5316067  16.6369355  38.2802844  84.0394974  32.4718499  41.8702364
  83.3637047  32.0603633  41.3315153  84.8409462  31.9949102  41.6547298
  75.5578041  47.1748781  24.7180128  75.7812262  46.5494633  25.4073405
  74.6429205  47.4003315  24.8865080  64.9259281   0.8401278   2.7405462
  64.6306992   0.5757070   3.6118409  65.8813572   0.8184495   2.7945757
  81.1769485  26.0957146  40.3315926  81.9872093  26.5350795  40.0733948
  80.6713104  26.7716289  40.7829189  31.2632775   1.9110420  20.8484244
  31.9093180   2.2041911  21.4910197  30.9342241   1.0837370  21.1998820
  77.4490023  35.2918077  25.6033039  76.7372322  34.6620417  25.4892445
  78.0037832  34.9060369  26.2812662   7.4118906  34.8042417  19.7343194
   8.2960081  35.1707149  19.7506237   7.3214662  34.3593097  20.5769873
   5.3750873  43.0550718  53.4998846   4.5470643  42.6267862  53.2826757
   5.1504797  43.9816856  53.5845184  53.1247854  25.6073141  30.3316069
  52.2104549  25.6258607  30.0489640  53.4955835  26.4238048  29.9968100
  54.1470432  19.3606234  63.3802652  54.9522829  19.8551285  63.5328484
  53.6167431  19.5195997  64.1611242  83.7595177  72.8998995   2.4422495
  83.2067204  73.4597731   1.8971044  83.2515240  72.0961428   2.5524506
  70.9015417  43.4331703  13.4743905  71.5950203  44.0905809  13.5303414
  70.9722090  43.0855608  12.5853419  82.9231358  22.2129178  42.2268677
  82.3013878  21.5135717  42.0254326  82.8505421  22.8179073  41.4886618
  75.8237028  37.4498296  15.0923216  74.9345398  37.7812028  15.2180970
  75.9019804  37.3271060  14.1462541  73.6467552  78.5103607  33.5340118
  73.1106663  79.2682743  33.3007669  74.3200493  78.8631392  34.1157770
  36.2661028  16.7350042  21.7217278  35.9049344  17.6144946  21.6108918
  35.9269381  16.4416218  22.5673795  72.4853086  79.5606375  16.2754691
  73.1471777  79.8242712  15.6362045  72.3673058  78.6227131  16.1251259
  22.1364379  31.9712901  43.9260674  22.9639816  32.3277640  44.2490721
  22.3373604  31.6620970  43.0427456  45.8148003  14.7337794  21.4644837
  45.4770851  15.5579126  21.8151784  46.7437124  14.7379720  21.6954303
  79.7803926  31.7171073  40.7807350  79.4758940  31.7594385  39.8742485
  79.0288877  32.0041203  41.2994862  33.3474517  13.5075462   7.3408091
  32.8465962  12.6927018   7.3033231  32.7348804  14.1488564   7.7009624
  46.3189745  75.5081272  44.0579987  46.4396524  74.6189356  43.7248182
  45.9811926  76.0004473  43.3098316  58.7156773  23.7151814  44.0187025
  59.4839239  23.9177990  44.5525312  59.0571213  23.6357355  43.1280088
  47.6134300  66.2802649   9.9446535  47.4179363  65.8049679  10.7521880
  46.7622089  66.3948441   9.5221233  11.4010334  35.8330488  51.1432123
  10.4958630  36.1443019  51.1390400  11.3940513  35.0841594  51.7393208
  76.0692215  64.9684143   6.7658830  77.0067596  64.7822857   6.8169832
  75.7452011  64.3806791   6.0833794   6.0351914  30.2566242  44.3614101
   6.1323011  29.3074417  44.2849016   6.8496835  30.6102967  44.0039873
  16.0900259  66.6312313  57.5550079  15.1558447  66.8296194  57.4903536
  16.4624119  66.9628239  56.7379379  16.1490321  20.2873230  55.9836531
  15.6715667  20.3860521  55.1599312  15.5099332  20.5131841  56.6594982
  70.2624989  48.5856295  40.6473398  70.2736950  47.8134823  40.0817490
  71.1140013  48.5747242  41.0844326  72.4292660  29.8807406  57.6884127
  73.3768797  29.7458363  57.6804161  72.1485996  29.5579195  58.5447073
  10.8156824  19.1549969  23.1594896  10.8237731  20.0033689  22.7162838
  10.2432525  19.2851925  23.9155340  80.9784889  34.3671107  51.9054556
  81.4879036  34.9776006  51.3725090  80.0853062  34.4439936  51.5699625
  63.3172798  32.0856404  38.1944513  63.7627316  31.2387943  38.1688166
  62.6165676  32.0073795  37.5470662  79.7101879  63.4954166  10.1128328
  78.9427900  63.7145472   9.5843273  79.7660971  64.2005014  10.7577825
  10.6053114  66.1271811  62.9721737  11.0779297  65.3572083  62.6559401
  10.2194321  65.8471775  63.8021898  57.4661541  37.4948597  13.1923771
  56.5192461  37.5419259  13.0605400  57.6434898  36.5636539  13.3251858
  10.6673789  22.9339433  66.8392372  11.2179112  22.9201245  67.6221514
  11.2769186  22.7905941  66.1152601  51.0742664  13.9524376  10.5518162
  51.2275505  13.6758435  11.4552724  51.4888668  14.8130584  10.4911947
  58.2177448  33.4745288  44.6928787  57.8083897  33.6465907  45.5408478
  59.0643740  33.9185143  44.7411346  66.1887693  30.8871937  35.1446009
  65.4594803  30.8694124  34.5248842  66.1025476  31.7290735  35.5918574
   9.2050540  56.1805058  44.1004705   9.1999292  55.2279043  44.0068722
   9.4529277  56.3301945  45.0128222  42.9547262  19.9025583  15.4308236
  42.7796030  20.0627923  14.5035207  42.2498560  19.3183243  15.7102203
  14.1842675  67.9573917  46.9289398  15.1278102  67.9441786  46.7683649
  14.0714204  67.4537134  47.7350473  26.4377737  55.8332920  41.9161606
  26.4479065  55.0429296  42.4560261  26.3070989  56.5476370  42.5397491
  22.2037435  50.2042723   6.8228155  22.7876449  49.7364569   6.2257880
  21.3248277  50.0205994   6.4911485  67.7963066  40.3161669  12.4056864
  68.1485701  40.3003407  11.5158045  66.8898726  40.0239468  12.3096943
  25.7697868  22.7431178  37.0966697  26.1299467  22.8988433  37.9697490
  25.6751275  23.6168146  36.7172956  65.9919071  45.5161619  48.1530333
  66.3666916  44.7748518  47.6773977  66.5432215  45.6053782  48.9304161
  64.7360992  27.3722005  51.7831182  64.4042158  27.0034742  52.6017332
  64.1233730  28.0766153  51.5719366   2.2592701  59.3839025  55.6305885
   2.3660173  60.0000906  54.9059153   2.2859089  59.9306822  56.4158010
  69.5086288  65.2996683  39.2962193  70.1446962  65.3858137  38.5861301
  69.8649168  65.8373499  40.0034618  15.2204704  25.8452845  15.3877091
  16.0396266  25.8907413  15.8808100  15.2092624  24.9603724  15.0229681
  77.4666882  44.3187046  36.0234284  77.0488691  44.9873495  35.4806876
  77.1385288  43.4891462  35.6764722  68.0217600  61.6134787  22.4630690
  67.3154354  60.9725475  22.3821688  68.1251812  61.9686365  21.5802336
   0.4645560  15.5825984  37.6875758   0.5745623  15.5925345  38.6383820
  -0.3446480  15.0915265  37.5452089  58.2917738  38.2843614  50.7309008
  58.2787180  39.0715170  51.2753677  57.9724646  38.5780025  49.8776436
  26.4366889  72.9577065  29.8984456  27.2365046  72.7748871  30.3915024
  26.3384104  73.9086819  29.9454975  65.1725817  46.4202356  37.6841688
  65.9186459  46.3855982  37.0854831  65.5636978  46.3793802  38.5568619
  73.0991793  42.4550867  28.6178064  72.9817724  42.0115089  27.7777553
  72.2110128  42.5622940  28.9582419   7.7406627  68.5568810  31.0252905
   7.6317757  68.2841206  31.9363213   7.0931846  69.2513847  30.9041858
  67.1805239  41.6648626  34.5910406  67.9244852  41.6714430  33.9887881
  66.4465284  41.9880867  34.0685391  48.5214233  20.2774405  61.6391468
  49.3283701  20.4912448  62.1075058  48.5201454  20.8651161  60.8835888
  80.8847237  43.0354643  67.3998022  81.3183498  43.0455446  68.2530832
  80.6570244  42.1166658  67.2576904   8.7212467  64.4187164  26.4856124
   7.9150969  64.4191360  27.0017076   8.4987342  64.9077463  25.6934214
  72.7562475  30.7859612  44.7237110  73.4716272  30.4158711  45.2409124
  73.0635357  30.7345653  43.8186312  79.9887991  32.1271443  25.8797073
  80.0520229  31.4116907  26.5124488  79.1189289  32.0284104  25.4926538
   9.4345361  79.3945408  48.6397600   8.9670181  79.8976040  49.3065310
   9.2325312  78.4813023  48.8432980   2.2837909  44.7296047  47.1336222
   1.9231564  44.2670584  47.8900719   1.6334154  44.6026802  46.4428711
  59.3942451  44.2335892  42.5175095  60.1624537  43.8858938  42.0645285
  59.6260452  45.1396704  42.7212572  17.3823714  29.3037128  38.8757277
  17.4843550  28.8703799  39.7231078  17.4231565  28.5923982  38.2365108
  10.8237267  50.5730152  32.4950099  10.1688337  49.9014378  32.3044109
  11.1958981  50.3123617  33.3374953  62.2699976  76.1104870  19.6817279
  61.4810276  75.7108927  19.3155634  62.7597904  76.4166021  18.9184272
   7.6099986  49.0783834  50.6669998   7.9280877  49.6097994  49.9371767
   7.9644841  48.2051086  50.4997683  18.7936831  44.9186802  61.5990114
  18.4498274  45.6527996  62.1079922  18.1275094  44.2364311  61.6825581
  39.1989017  35.7874250  12.2007263  38.5719514  35.1630425  12.5658488
  38.8792443  35.9574127  11.3146365  18.4590709  71.3299608  14.2281258
  17.7703011  70.7747030  13.8627255  18.8562393  70.7969379  14.9168742
  16.4383709  59.2788887  61.0640097  16.1468542  60.1499510  60.7947540
  16.0815668  59.1687155  61.9453621  79.7312307   2.1063676  20.6661558
  80.0851631   1.2228349  20.7678151  80.3097057   2.5241685  20.0281525
  42.6502895  66.2241316  17.8467739  43.1589699  66.9829130  18.1326520
  41.9479275  66.5942955  17.3120809  44.5758200   4.6568477  32.6788712
  44.0473890   3.9161736  32.3815584  45.3079700   4.6911544  32.0632291
  73.7708855   2.2680695  27.9420137  73.7577248   2.5860861  28.8447452
  73.8889313   3.0563885  27.4120593  35.6233382   1.3526952  21.8420148
  36.5165544   1.5318049  22.1358061  35.5324841   0.4027720  21.9170046
  19.8797941  67.8817701   7.9310679  18.9288521  67.9877281   7.9043269
  20.0671959  67.2295570   7.2559935  52.2457743  67.4092531  22.4554276
  52.0742989  67.4718285  23.3950615  53.2001448  67.3810291  22.3874831
   6.9014317  13.0370724   6.0314959   6.2246692  13.6601913   6.2959725
   6.4281029  12.3606956   5.5470318  72.7906466  16.8642306  38.0589175
  72.7483559  16.6415453  38.9888930  72.1097136  16.3277876  37.6529741
  66.2216187  13.6967194  23.8219523  65.8256388  12.8638721  24.0784597
  66.6456413  13.5122633  22.9838514  72.1307182  16.4290094  33.3458757
  72.8796148  16.2368059  33.9101791  71.5708017  16.9962907  33.8758969
  11.6717422  41.3365602  65.0420904  10.8675027  41.8553686  65.0256968
  11.7619765  41.0633898  65.9550333  82.7605629  32.6333642  18.8037598
  81.9274902  32.5512338  19.2679548  83.1162357  31.7447853  18.7909532
  74.5933437  15.1269770  56.9057035  75.1315832  15.8927906  57.1058512
  74.3354130  15.2477312  55.9918547  82.8292179  14.3543983  51.0535049
  82.9822350  13.7114203  50.3611231  81.9746113  14.7318780  50.8452129
  23.7671113  21.6185141  33.8770270  22.9163361  21.9849372  34.1181612
  24.2434549  22.3532629  33.4904099  32.2129774  43.7082386  17.1029615
  32.8761411  43.0710030  16.8376803  31.9270563  44.1116571  16.2833655
  66.7755270  10.0734460  27.0384264  67.1107912   9.4562185  27.6887012
  66.9198513  10.9351635  27.4293780  47.6919222  56.1065292  46.1009693
  47.5378084  55.2967501  45.6144142  48.5957289  56.0334110  46.4075804
   0.9020902  21.3151693  16.8622947   0.4197926  21.5491152  16.0692692
   0.3126011  21.5496254  17.5790691  22.9137039  75.4269505  44.9492741
  22.6922369  76.2562275  44.5256233  23.4586716  75.6771755  45.6953478
  78.6469507  69.9610043  26.1225176  79.2673874  69.3260813  25.7645226
  79.1767502  70.5184698  26.6924143  21.4928389  50.2232456  27.6953650
  21.5951204  50.5073833  26.7870498  20.9202623  50.8814859  28.0892015
  62.8437901  27.6683211  14.8327172  62.4438334  27.8387070  15.6854963
  62.2787380  27.0085287  14.4306934   4.6403551  35.3292656   3.8314822
   4.6582675  36.2440062   3.5501266   5.2995312  35.2786398   4.5236930
   2.1624030  64.3400383  10.5581462   1.9671440  63.7451696   9.8341036
   1.5968223  65.0970173  10.4053843  57.9916716  25.6427550  35.8087564
  57.5741100  25.0259948  36.4099908  57.2706699  26.1754346  35.4731345
  62.8415489  43.6612606  43.6216307  62.3635101  44.3548965  44.0761375
  62.8517675  43.9381456  42.7054071  12.2130573  13.3193111  25.4173231
  12.2856557  12.8165817  26.2286329  11.6444612  12.7902830  24.8578072
  47.3468351   7.5531286  27.5920987  46.8148756   6.7920542  27.8245091
  46.7893696   8.3050931  27.7921343  33.8829112  76.4508533  14.1252661
  33.8110542  77.3617077  13.8399422  34.7407269  76.1676741  13.8087308
  69.3455362  50.0923586  38.4380674  69.5740128  49.4965458  39.1515398
  68.8438702  50.7899284  38.8599205  46.7129517  77.8928804   4.4232234
  47.2387791  77.5008345   5.1203865  47.1096325  77.5705385   3.6139181
  70.1870871  32.1097112  32.0261669  69.7199392  31.7249799  32.7677774
  70.2109766  31.4127421  31.3705039  54.9688959  38.0956411  46.2691736
  54.2289686  37.5068998  46.4178944  54.5663023  38.9317513  46.0345030
  74.0575314   3.6886033  46.7762995  74.9716091   3.9715061  46.7504835
  74.1021633   2.7512214  46.9648600  46.0596132  70.9212542  59.9605131
  46.1121225  71.6245174  59.3132925  46.9190216  70.9189796  60.3819942
   0.0179686  12.5388360  35.9429502   0.1372412  13.4849286  35.8597922
   0.3075630  12.1860504  35.1015782  57.9708099   4.9337092  36.4913082
  57.6307011   4.9653372  35.5971289  58.8416910   5.3262460  36.4303398
  79.1101599  12.4641073  23.1800365  78.2089520  12.6317084  22.9044175
  79.4796419  11.9284868  22.4780202   5.9514451  23.8274264   7.8268921
   6.3755053  24.6329713   8.1227034   6.6548330  23.1784105   7.8109080
   2.9208192   5.8169580  57.8321648   3.1865582   6.7365277  57.8346109
   3.5423607   5.3864670  58.4191847  70.0243187  33.7601304  35.8042359
  69.2703152  34.2916155  36.0596371  69.9309158  33.6510253  34.8578739
  51.2564993  57.3563671  39.7004223  51.7503214  56.6077137  39.3659234
  50.4212999  56.9848204  39.9843788  60.8552694  64.8248100  10.5768061
  61.4769030  64.8041296   9.8492229  60.7141733  65.7565165  10.7448745
  25.0805235  65.9507370  12.5407064  24.6651292  66.8125010  12.5083661
  25.8520198  66.0355616  11.9805014  38.0410004   5.8535784  39.6495438
  38.8358855   5.6741202  39.1473651  37.4043965   6.1418104  38.9954090
  78.5389233  27.3533130  59.7256184  78.1801319  27.4332023  60.6094265
  78.1242275  26.5678263  59.3688679  70.5003834  29.7886419  40.7128477
  70.3487110  30.1540613  41.5844536  70.4194212  30.5372548  40.1218700
  61.4535475  27.3523974   2.9198280  60.5081892  27.2911072   2.7828190
  61.7320919  26.4498544   3.0749452   3.3393645  21.9577146  15.9142852
   2.5577703  21.8932962  16.4630949   3.5731789  21.0494518  15.7229221
  82.6270866  66.3919830  43.0017614  83.4359741  66.6070366  43.4661865
  82.1664047  67.2273874  42.9236412  69.3306112   6.7666256  59.4185591
  69.3006372   6.3376862  60.2737474  69.4168901   6.0474616  58.7927866
   0.5508098  20.8711910  48.0557442  -0.1776344  20.5371594  48.5792160
   0.4644381  20.4253817  47.2131109  11.1484683  40.9230185  33.2083893
  11.4354706  40.0176525  33.0893207  11.9447184  41.3971376  33.4480262
  76.2358379  13.9271533   1.8236654  77.0764732  14.3222618   2.0548658
  76.1003828  13.2482743   2.4847308  56.5901423  25.3584337  25.5033159
  56.9827557  25.3440070  26.3761711  55.9070206  24.6887660  25.5368590
  55.0103045  62.2003889  24.4334292  55.3297186  61.9086361  23.5795617
  54.0948391  61.9216394  24.4547153  22.7327895  61.2822723  31.5185070
  23.5846519  61.3200712  31.0836124  22.2164798  61.9673634  31.0938764
  21.2902069  44.7431135  62.9333591  20.5779791  44.9763489  63.5288143
  20.8577490  44.2943335  62.2068548  55.8668232  34.4533539  43.1137705
  56.7447805  34.1203332  43.2995701  55.5812025  34.8483872  43.9375401
  75.7569981  63.8406229   0.7300366  75.5034208  64.4401979   1.4317763
  75.3828573  62.9981661   0.9879434  20.5510807  41.7690182  68.9234734
  20.5998373  41.9962168  67.9949093  20.7298207  40.8290243  68.9497614
   2.0327139   9.8280728  22.4966764   1.8116327  10.0737762  23.3949995
   2.3838040  10.6295729  22.1086502  45.0147772  72.5326538   5.7064909
  44.3800831  73.2048225   5.4583359  45.6170368  72.9797888   6.3011223
  32.4445629  38.9063191   9.9465591  32.4229503  39.7450614   9.4858247
  33.3664846  38.7799740  10.1709044  80.0438023  17.8132915   0.9893538
  79.9755764  18.7478530   0.7939757  80.9573555  17.6884055   1.2463775
  45.5554771  15.6916714  64.8307514  46.3173914  15.7628977  65.4057693
  45.8056498  15.0337648  64.1820574  62.3696089  45.5853081   9.6675712
  62.9539490  45.9388733   8.9969206  62.8541088  44.8507690  10.0443232
  42.3057175  63.5415936   8.2174218  43.2531214  63.6674976   8.2704490
  41.9475889  64.4287205   8.1861037  77.5350857  36.2168407  41.1230135
  76.7853069  35.9830904  40.5758190  77.5673008  35.5315924  41.7905712
  59.7179651  23.6356878   4.3464115  60.3786469  24.2287421   4.7041988
  59.5441771  23.0155158   5.0545210  70.3045177  42.0400572  65.4583979
  71.1140156  42.3638201  65.0632763  69.9799728  41.3868809  64.8385143
  71.0852337  22.6727271  37.1792793  70.7082748  21.9106388  37.6190042
  70.9863138  23.3862162  37.8096581  42.7787971  44.7415829  23.0936837
  43.2290030  44.4238424  23.8763642  42.9307652  45.6866360  23.0970120
  41.3907099  52.2489357  19.3503618  41.0415125  53.1395578  19.3174028
  41.1226797  51.8556929  18.5198498  40.9870672  51.2449074   0.4461411
  40.4871845  51.7103004   1.1167808  41.8954039  51.3002157   0.7429653
  67.7439642  17.1476245  26.8605781  67.3687649  17.7497625  26.2180161
  67.5541496  16.2766016  26.5119791  50.5771685  71.2809992  37.3533607
  49.9260139  71.4106989  38.0428576  50.4339266  70.3830051  37.0544958
  17.4320710  60.3523731   1.8995106  17.8498161  60.1263523   2.7305546
  18.1567943  60.6081247   1.3288966  45.5273628  58.9480877  44.6603584
  46.4155960  58.5915661  44.6730280  45.1631260  58.6540127  43.8254404
  17.9083490  74.3007374  66.1388540  17.7027190  73.3670425  66.1853552
  17.1009433  74.7375917  66.4099360  11.0315084  73.1907368  67.3140955
  10.9303677  73.2462263  68.2643175  10.2116060  72.8028965  67.0081997
  65.6055593   4.9698991   3.7454411  65.0897264   5.1707178   2.9645333
  66.4998579   4.8639420   3.4210396  12.2365081   0.5025911  19.7250652
  12.4815655   1.1456447  19.0597379  11.7334521  -0.1567397  19.2471015
  38.2396293  18.5157299  61.7975092  38.1132197  17.8820038  62.5036573
  38.7967825  18.0618215  61.1652279   3.7731999  46.0011673  64.4913387
   3.5151750  45.9783316  63.5698557   3.2265532  46.6862011  64.8762226
  70.1403666   2.0414233  36.8475246  69.2354918   2.3040399  36.6787839
  70.4361725   2.6325220  37.5398636  77.2910452  67.6659966  51.3892698
  77.6753521  66.8616915  51.7380333  77.2291040  67.5126219  50.4464674
  84.1541386  44.0782070  60.5575323  84.8736000  43.8047171  61.1265707
  83.3690453  43.9665604  61.0936165  83.3639812   0.0989824  24.9242449
  83.6141968  -0.5930321  25.5364084  82.7785969   0.6643589  25.4281282
  71.3527489  33.7311387  11.3372421  70.5761242  33.2498908  11.6227019
  71.6171789  34.2366886  12.1058297  53.6198759  33.1146193  13.1180882
  53.5033464  32.9861665  12.1767318  53.5611582  32.2341776  13.4890413
  57.8157854  17.3939741   4.5123947  58.0705118  17.7784598   3.6736366
  57.3181391  16.6112828   4.2758083  61.3890266   5.2878302  32.9045320
  62.0669079   5.4498088  33.5606313  60.5979872   5.1150513  33.4150624
  26.6137815  34.7190356  67.5759506  27.1934366  34.2733145  66.9582415
  25.8975649  35.0516534  67.0349979  37.1964145  65.1977730  45.7628870
  36.7154813  65.7316494  46.3952732  37.5069523  65.8233833  45.1083612
   0.5106251   8.2909083  54.6806431   0.7884604   7.4448335  55.0316381
   0.1605148   8.0871284  53.8133907  11.4745307  40.5679989  12.3126960
  11.7987049  40.2323246  11.4769530  11.8277371  41.4559650  12.3673713
  37.9243875  46.8856430  68.4805775  37.0655632  46.4910460  68.3291006
  37.9125977  47.6909018  67.9632282  68.0949688   7.1582627   7.5499815
  67.8165865   7.4140781   6.6706103  68.8577080   6.5980732   7.4062699
  32.4176025  45.2836180  19.5724642  32.5147533  44.8316622  18.7342942
  31.4782214  45.4519653  19.6463299  50.7973719  55.2566147  18.8530660
  51.1181021  55.3531742  19.7497487  51.5898991  55.2267790  18.3171225
  24.8033524  70.9139872  23.3417678  25.3411818  71.3229275  22.6637268
  24.1586399  70.3982353  22.8574371  27.1344113  15.4047751  61.3149881
  27.3885417  14.8641264  60.5670929  27.3616862  16.2971294  61.0536766
   4.1221198  56.4227819   4.5847806   4.5500249  56.4360476   5.4409075
   3.6147568  57.2340155   4.5580113  64.1994143  39.4931102   9.2365092
  63.8110256  40.2001905   8.7213141  64.3121099  39.8674083  10.1102555
  72.7287436  67.7300787  43.5035181  72.1550894  67.4921656  42.7751255
  73.4380245  68.2279921  43.0970287  53.7850142  19.3442607  18.6142361
  53.9409304  19.6371090  17.7163708  53.1765461  19.9894822  18.9743602
   8.9684504  63.2910728  62.8033066   8.9979804  62.5063419  63.3506250
   9.8872185  63.5012579  62.6362133  61.6226673  11.7384899  58.3364105
  61.7311096  12.5298655  57.8089666  60.7862043  11.8623793  58.7849808
  38.0745077  75.3198195   5.3521335  37.9006791  74.3803453   5.4104906
  39.0286016  75.3893757   5.3852946  65.3039408  43.3523512  64.1668701
  65.0178051  44.2217970  64.4469213  66.0388470  43.1446505  64.7439384
  72.5767469  38.5025668  65.2529573  72.9584026  39.3671370  65.1010132
  72.9131556  38.2394433  66.1095953  72.9739285   3.5324368   5.4308575
  73.8485670   3.1435791   5.4363781  73.1142092   4.4413033   5.6964046
  57.4477339   9.5667815   0.6080683  57.4866390   9.9556237  -0.2657282
  57.2002888  10.2917421   1.1820342  48.6783123   9.8820531  24.9052453
  49.0432882   9.4572598  25.6815052  47.7305746   9.8411542  25.0331187
   3.8826251  54.5348454   2.5760949   4.0021288  55.2720404   3.1748384
   3.0063137  54.6613407   2.2123516   5.3302348  20.7321167   9.0746409
   6.1816776  20.5571508   8.6738122   5.4704869  21.5192413   9.6009433
  81.1074066   4.8399591  49.6495008  81.9481659   4.7467926  50.0974703
  80.4547691   4.6456075  50.3221941  55.4256630   1.7985645  62.2327232
  54.7731543   1.6760769  61.5431833  55.3787231   2.7309769  62.4439955
  53.4133148  34.0795851   7.3492348  53.0759001  34.6094155   8.0714971
  52.6603174  33.5661006   7.0567209   9.7186244   9.3993074  18.2802761
   9.8092407  10.1651037  17.7131999  10.4742801   8.8520908  18.0663347
  35.0067329  79.3859339  14.6938467  34.4458938  79.5432281  13.9342761
  35.8124590  79.0233278  14.3256676  15.0317466  33.6483860  58.0940723
  14.3236029  33.0621266  57.8274918  14.8602021  33.8261461  59.0188456
  76.8690777  41.4276743   6.7979723  77.1141815  42.3388195   6.9591391
  77.3144388  41.2006426   5.9816748  52.2668028  30.6106138   8.5162628
  51.4691830  30.8291578   8.0343139  51.9974184  29.9240899   9.1264677
  82.4974155   7.3450649  30.9202266  83.2677460   7.8066111  31.2515855
  81.7627525   7.9193479  31.1363411  55.0960493  29.2702317  20.3757477
  54.3853474  28.9944410  20.9546041  54.7973871  30.1026917  20.0096226
  59.6202707   6.1761105  25.1610684  60.3169537   6.3016200  24.5167780
  59.9671316   6.5594602  25.9666491  37.2918391  34.4995952  13.6330628
  36.3367081  34.5123959  13.6946750  37.5717711  33.9508033  14.3656611
  67.4730825   8.3369493  48.5500145  68.0596113   9.0285671  48.8564110
  68.0240059   7.7834582  47.9965162  48.5859060  13.4107053  46.1810541
  48.3148861  12.6080680  45.7354689  48.3426476  14.1132092  45.5781078
   6.0770357  38.9385414  15.3163719   6.2482196  39.8781371  15.3803229
   6.9309062  38.5294127  15.4569077  64.7472239  29.7774553  29.6982312
  65.5560493  29.6383166  30.1908541  64.5716572  28.9332366  29.2826557
   5.8969164  55.9825373  58.6874294   6.2913901  56.2751484  59.5090151
   6.1769962  56.6321039  58.0425596  66.9725657   4.8367894  32.1502805
  66.1537600   5.0286347  31.6931272  67.6419306   5.3011668  31.6477561
  52.6586008  76.2973404  38.0727577  53.1000805  75.4515743  37.9952264
  53.2975054  76.8620396  38.5076642  78.9072227  19.3891859  18.8224471
  79.4275761  18.5858178  18.8305020  78.4597969  19.3762720  17.9763532
  33.1126976  55.0455236  14.4387376  34.0103817  55.3634834  14.3423128
  33.0922794  54.6458244  15.3082514   8.7539494  23.5827374  15.1547253
   9.2827338  22.9048705  15.5755770   7.8507304  23.3497095  15.3694940
   6.0562074  74.9252796  65.2041435   5.1359284  74.8964405  65.4658413
   6.2576258  75.8587980  65.1392651  36.6185641  76.8781137  59.7492361
  36.5939522  76.4000797  58.9203167  36.7889690  77.7857161  59.4973469
  75.8092260  27.7099442  43.5369682  76.6425705  27.2445273  43.4651709
  75.2789593  27.3638201  42.8191614  22.9482508  39.8282552  65.0827599
  22.3845744  39.0826678  64.8763609  22.6436353  40.5264854  64.5031738
  20.1355338  52.4756289  29.3066072  19.3524957  52.0691919  29.6779490
  19.8341000  53.3243656  28.9825487   7.6149607  63.7278414  56.1261463
   7.9628205  64.6105337  56.2529278   6.9911909  63.8174152  55.4056501
  15.2980769  54.1769123  55.4833984  14.4872355  54.6446514  55.6833744
  15.0775826  53.6254787  54.7327089  44.0753174  70.9568357   8.0144429
  44.0825033  71.2868118   7.1159458  44.5737457  70.1406527   7.9738462
  16.9755077  62.2843218   9.9369043  16.4548838  61.5660715  10.2964842
  17.8461802  61.9080067   9.8082650  24.9604988  67.4827862   5.7572132
  25.2477789  67.1696281   6.6149038  25.2865648  68.3814383   5.7088113
  53.8890648   1.5443760   0.7271051  53.9577198   0.8893115   0.0325482
  54.0278673   1.0514519   1.5358031  10.3143895  16.8152547  35.5508375
   9.5445132  17.3658752  35.6934571  10.8461344  16.9387126  36.3371181
  75.9163046   6.6965574  27.2597885  76.0215712   7.5709230  27.6348019
  75.6607342   6.8548894  26.3510275  56.6685581  69.0439272  54.2341185
  55.8530760  69.5429468  54.1872168  56.8567657  68.9800787  55.1704597
  78.7714911  59.0343237  59.8236084  78.1475687  59.7548437  59.7352600
  78.6963844  58.7632895  60.7385588  44.0020275   6.9908947  64.8322582
  43.5666847   6.1384517  64.8250628  43.8701248   7.3196971  65.7214832
  65.2480268  34.8583102  10.6498492  64.9766111  35.5942321  10.1012254
  64.6575689  34.1460323  10.4043961  22.6501870   9.2922270  17.5737751
  23.2477689   9.7038811  18.1980085  23.1694436   8.5987335  17.1667480
  49.8998737   1.2651555  64.0967846  50.7857037   1.3102691  63.7369251
  49.9140549   0.5009227  64.6729612  50.3792286   3.5282356  54.0818167
  49.5671701   3.0729523  53.8593054  50.1431131   4.0934578  54.8173475
  76.5812492  17.4878836  23.2481337  76.5056276  18.3058560  22.7567744
  75.6794834  17.2601318  23.4743619  54.4550848  39.9030280   0.5685533
  53.6727190  40.2468300   0.1373438  54.4362164  38.9636803   0.3855228
  66.3395977   2.0439659  18.7136579  66.5353107   1.1653709  18.3880818
  67.0527029   2.5877663  18.3789980  71.2515450  22.2980595  27.6140165
  71.8031740  23.0019760  27.9552436  71.8405819  21.7737842  27.0714283
  26.0938883   2.5344822  32.3892188  25.7467484   2.4061485  31.5064621
  25.3180027   2.5727755  32.9484749  13.3945632  43.7239218  22.7854848
  12.6032829  43.8911009  23.2974982  14.0604246  44.2845249  23.1837153
  62.5297594  51.8646526  11.3565969  62.0116138  52.4889851  11.8645060
  62.7288818  51.1606121  11.9737709  77.2610807  24.7042298  12.8617799
  76.9994450  24.9679732  13.7439466  77.2666502  23.7474489  12.8895974
  41.0984087  73.7906981   8.2593060  41.6643906  73.9684772   9.0104973
  40.8070326  74.6550512   7.9690856  72.7315521  18.0225706   1.7741312
  72.5045681  17.2134387   2.2324057  73.6674118  18.1369758   1.9393888
  81.4840031  22.1536493  51.3133907  81.5414047  21.6619754  50.4941273
  82.0746040  21.6942143  51.9103384  19.9788404  68.9261436  62.3789883
  20.8253670  69.1166258  61.9748354  19.4144821  69.6490479  62.1048784
  24.4590807  50.2424717  47.7110052  25.3610635  50.0037050  47.9246664
  24.4933081  50.5101633  46.7926359  41.9319487  69.0865517  48.9354372
  41.5185738  69.5221996  48.1900787  42.1556664  69.7983885  49.5349979
  22.3860645   6.9848305  32.5488377  22.4418497   7.9390866  32.4986863
  21.8103051   6.8174511  33.2949710  59.3375301   8.7064052  38.3383393
  59.3783998   7.8799284  38.8194823  58.4184599   8.9687335  38.3905196
  46.5605974  42.5548220  57.0715189  46.9333601  41.6968298  56.8687248
  46.4591455  42.5529814  58.0233288  79.7670412   1.9157395   7.4747866
  80.0998020   1.2713024   6.8501222  79.6086168   2.6995873   6.9487494
  62.7248001  31.8618393  26.5733504  63.5508680  31.9910979  27.0393229
  62.4123096  31.0078716  26.8722153  25.2299905  54.9814606   5.4726583
  24.7297406  54.2017603   5.7135981  25.3345442  55.4621553   6.2937748
  67.0879745   9.1603780   2.9371783  66.1694241   8.8912100   2.9437467
  67.5784349   8.3393800   2.9777083  74.2057085  68.2339048   2.1081987
  74.6865225  69.0229082   1.8581590  73.7932634  68.4589624   2.9421473
  58.1122684   6.2712842   3.9388177  58.2846832   5.6861985   3.2011333
  58.9711237   6.6253734   4.1695017  14.1807783  63.0098581  25.5197644
  13.2277751  63.0786133  25.4624009  14.3334532  62.2058916  26.0163140
  77.0554066  28.1739163  32.8023076  77.7858877  28.3505607  32.2094989
  76.2990189  28.5785079  32.3775554  83.6228371   1.8085495   8.2433808
  82.7223587   2.0455697   8.4651905  83.5342979   1.0800637   7.6288062
  41.7647409  61.0943270  48.6137009  42.0032978  61.7840099  47.9942942
  41.3163996  61.5543365  49.3233585  68.5422468  59.3697739   6.3594931
  68.1149387  59.1301727   7.1818244  67.9355001  59.0761805   5.6798685
  64.4800615  62.4050140  40.9972906  64.1442442  61.5418959  40.7554722
  64.3857861  62.4406242  41.9491720  46.4159298  65.6221390   3.9575186
  46.6384411  64.9440479   4.5954141  45.8632851  65.1755381   3.3161464
  32.5006676  41.9817257  61.0512829  32.2751665  42.2735929  61.9345665
  33.3111906  42.4471998  60.8448410  75.4810476  76.6942549  50.9417009
  75.4012251  77.2569656  50.1714945  74.6173096  76.7271566  51.3529205
  25.6607127  70.0413799  40.1716614  26.5896773  70.0260401  39.9413943
  25.6328726  70.4714966  41.0263252  26.9214344   5.9720272  37.2982240
  26.0766411   5.9269589  37.7460194  27.5327706   6.2741035  37.9699731
  28.8431811  40.8876944  17.3843670  29.1072345  41.6823721  17.8480434
  27.9767227  40.6822491  17.7354670  36.1237311  58.3569622  17.5433779
  36.4736843  59.2000151  17.8315222  36.7601871  57.7139807  17.8559971
   0.3239791  59.6193361  63.5110378   0.2473514  59.7731733  64.4526815
  -0.5048115  59.9327087  63.1489229   7.2781116  63.0403233  46.4981890
   8.0778742  63.2223368  46.0047483   7.0006967  62.1760511  46.1943674
   1.8974562  53.6587000  61.0619736   1.6340411  54.5730400  60.9579229
   2.8487515  53.6934376  61.1622858  57.1823215  22.5393558  28.9239693
  56.7117167  22.4122858  29.7477508  57.8296757  21.8344665  28.9067531
  61.0183096  40.4601288  11.5987945  61.3200951  40.4511642  12.5071311
  60.6836557  39.5759583  11.4488590  15.1624894  40.8552504  58.0692625
  14.8074877  41.0989571  57.2143888  14.4619322  41.0629606  58.6875772
  82.4879551  48.7878990  39.5766854  81.8935776  49.4178438  39.1691089
  83.1186676  49.3275023  40.0534010  57.5239325  16.0482156  30.9730887
  57.3021793  15.4261160  31.6659451  58.4321499  15.8443892  30.7498670
  67.0466805   2.0931312  22.5344849  67.9444027   1.7863131  22.4072409
  66.5054178   1.3173282  22.3882151  65.0136232  76.7850780   7.9386330
  64.4202518  76.1627817   7.5180531  64.6719837  77.6449633   7.6934481
  77.2001410  54.5241404  10.5985618  77.2628832  54.6259546   9.6488631
  76.9577074  53.6069059  10.7256126  -0.0487427  13.5535395  19.9199629
   0.3704580  12.8285301  19.4564283   0.3958306  14.3357241  19.5932007
  69.2453194  17.6527810  16.9222093  68.6423874  16.9113731  16.9771862
  70.0998831  17.2547531  16.7563105  62.0219517   8.9128131  18.3318520
  61.8566275   8.3628064  19.0976143  62.6477337   8.4124291  17.8081667
   5.1059282  46.2038946  59.1813183   5.3993565  47.0243502  59.5775318
   5.5108064  46.1985207  58.3139801  59.5192099  67.5894165   3.5531515
  58.8547516  67.7021694   4.2328680  60.3160000  67.9592228   3.9334226
  57.7393913   7.0385110  68.8901806  58.2874918   7.7798498  68.6328173
  57.0598316   6.9980758  68.2172823  76.5088272   4.7269601  18.0330551
  76.0489941   3.9070281  18.2133281  76.8732643   4.6093124  17.1557999
  14.1449797   1.3067608  25.6388354  13.8300383   2.2104403  25.6186604
  15.0885379   1.3786867  25.4947615  67.6840591  29.2849588   5.7637674
  68.5403013  29.5394611   6.1077344  67.7271032  28.3311439   5.6958359
  27.7539086  50.6323957  12.0958018  28.5539818  50.3157473  11.6764605
  27.9089808  51.5669823  12.2326708  69.3335485  62.6692104  59.0915442
  68.4644985  62.8586483  58.7378502  69.8421288  62.3786211  58.3344889
  50.7491732   4.7826290  32.0237732  51.0021544   5.3918362  31.3301611
  51.2106180   5.0989670  32.8004527   2.9715994  15.4760218  13.7507200
   2.6234043  16.3458788  13.5549128   3.9217010  15.5923629  13.7488830
  78.2097626  24.1838193  22.6251173  78.1972408  24.8276234  21.9168878
  79.0003538  24.3911529  23.1233239   3.6490440  78.6443567  59.6641970
   3.8209483  79.3892717  59.0881920   4.5116711  78.2620144  59.8251963
  55.7528353  25.6732750  50.5747604  54.9952745  26.1526752  50.9101868
  56.2991476  25.5190945  51.3454771   7.0773733   0.0280206  38.7951636
   6.5173894   0.7758915  39.0033460   6.8698704  -0.6210303  39.4674063
  69.3008947  26.2039328  22.3224568  68.5600233  26.1788487  22.9280233
  70.0138044  26.5890789  22.8320193  68.6710930  26.8008757  13.4145260
  68.9046288  26.3450766  12.6058590  68.7605476  27.7295280  13.2004368
  70.3747559   2.3470004  22.3219705  69.8252583   1.5643768  22.3642659
  69.9785709   2.8808922  21.6333270  35.2538610  36.1723995  16.8036842
  36.1480594  36.0059810  17.1019244  35.3587127  36.7235947  16.0281706
  56.4970875   9.9143958  12.6573694  56.0284996   9.8636025  13.4904826
  55.9235764   9.4706362  12.0325553  22.9375196  67.0738840  40.6756830
  22.8496742  67.7190924  39.9740958  22.2129679  66.4648485  40.5330849
  19.6372318   1.4147286  67.0569706  19.2692792   0.6111420  66.6894245
  20.1115131   1.8159387  66.3287401  42.6224089  27.1372032  16.4533484
  42.4749231  27.7928495  15.7717264  42.6639175  26.3057375  15.9809327
  79.8255825   8.2785124  42.5626564  79.8603582   8.4454262  41.6207647
  80.3408432   7.4809724  42.6837540  68.8778543  62.0800447   6.8449813
  68.0805254  62.2884941   7.3318589  68.7808561  61.1571169   6.6103929
  21.9051909  50.0199604  18.3535779  22.5612164  50.4779959  17.8281569
  21.5954041  49.3133068  17.7870977  75.4355049  10.5561733  39.0495682
  76.2930059  10.4736197  38.6323047  75.6327629  10.7381868  39.9683690
  62.9021358  32.2989511   0.3782823  63.3882666  32.6213169   1.1372221
  62.0270252  32.6738834   0.4774867  63.9156961  21.1247706  18.3185875
  63.1640148  20.6592584  18.6853397  64.2111588  20.5708742  17.5960028
   0.4076874  17.6115239  15.8530891  -0.5354826  17.4729633  15.7666993
   0.5003282  18.1422079  16.6443050  21.2724328   1.6451214  17.6934695
  20.3331923   1.7755121  17.8240657  21.3476610   1.3313627  16.7922878
  74.7744274  46.5095329  17.2093308  75.0048828  46.4548302  16.2819004
  73.8490534  46.2667894  17.2409046  75.9170151  36.1096263  53.8804817
  75.4072285  36.3587260  54.6513939  75.2636051  35.9783578  53.1934214
  56.8013000  27.7258420  18.8263416  56.0614681  28.1935191  19.2138410
  57.1648264  27.2127557  19.5480216  79.4238472  69.3328905  65.8095503
  80.1691151  69.3163967  66.4099979  79.6471548  70.0083208  65.1691198
  11.9714737  15.6688273   7.2603661  12.2956848  15.5122995   8.1472814
  11.4261734  16.4515412   7.3393458  61.9101000   5.9692353  62.5926113
  62.3088026   5.7949519  61.7400312  61.1547089   5.3824192  62.6282167
  82.5292301  19.7188258  32.7229166  82.2468758  20.5615187  32.3674273
  81.7732143  19.1437054  32.6049876  69.3521166  54.3123341  55.9816027
  68.9708328  54.8741579  55.3069162  69.9824810  54.8738670  56.4327717
   5.3004140  16.8702281  12.9093146   4.8223525  16.5786767  12.1329856
   5.6734967  17.7150297  12.6576185  62.9363585  72.8522348   7.6302892
  62.6367331  72.4100733   6.8359673  63.8575029  73.0501366   7.4612850
  81.6020679  25.3436613  19.5240664  81.9770432  25.7435870  18.7394094
  81.4634514  24.4277024  19.2831552  50.6204367  11.1255443  33.7702465
  51.5063143  10.7876360  33.9016533  50.7006931  12.0689940  33.9105773
   1.7259189  33.9741302  66.1151695   1.9447051  34.7779894  65.6438208
   0.8563657  33.7367272  65.7930708  35.2608681  54.7803259  66.9564581
  36.1777878  54.9699020  67.1553326  35.1835108  53.8323355  67.0639896
  30.8245659  65.4517078  63.7548351  30.1541996  65.0571012  63.1970453
  30.6857133  65.0537634  64.6142483  19.9778461  12.0629537  61.7571735
  20.0412369  12.1191418  62.7106190  20.8782601  11.9205999  61.4652395
   6.2674719  45.8516026  22.3762631   7.0380032  45.3407764  22.6243973
   5.5877924  45.5733728  22.9901481  64.8638821  17.7480423  18.4389615
  64.4881392  17.4772811  19.2766583  64.6707726  17.0231926  17.8443754
  70.3864288  15.4013538  22.4593353  69.9298716  15.7019663  23.2450962
  69.7772455  15.5836511  21.7438674  69.6625090   8.1712490  14.3517458
  70.4526043   8.2545906  14.8856306  69.9224710   8.4908128  13.4877253
  -0.1927026  32.0857239  27.2885370  -0.3252633  33.0335021  27.2691059
   0.6386344  31.9695377  27.7485538  80.3226662  43.8529444  40.9822035
  79.4702816  43.9348030  41.4099503  80.4067326  42.9184914  40.7925653
  37.9319096  71.5662003  66.4618874  37.2255063  71.2700033  65.8878708
  38.5792446  70.8618927  66.4280796  82.4361801  14.4068396  29.6899366
  82.1188545  15.2698433  29.4239306  81.8578053  14.1498566  30.4080367
  63.9418316   5.8663273  39.9774361  64.4348860   6.6456801  39.7210407
  64.3139076   5.1621068  39.4465256  15.5733001   6.2679225  25.2513576
  14.8616445   5.8212399  24.7928238  16.1979163   6.4936280  24.5620513
  14.6748185   0.7548109  67.2887802  15.1149750   1.6010648  67.2090960
  14.8038161   0.3366460  66.4374685  60.9400702  37.5259185  13.9289868
  60.9503365  37.2201014  14.8359609  61.5456867  36.9419336  13.4724486
  51.1351919  46.5792036  13.5249865  51.4226580  47.0835686  14.2860448
  50.3658485  47.0489645  13.2030201  25.4541039  19.1329062  16.2237322
  26.2069726  19.6512568  15.9395957  24.8627734  19.1368914  15.4710412
  12.2996736  43.1432343  12.2312462  11.4036286  43.4090424  12.4378455
  12.8178203  43.9402056  12.3434567  21.9786310  67.9863358  56.9278955
  22.2542858  67.2552538  57.4808550  22.6034951  67.9870939  56.2027931
  12.4789011   2.1470129  17.5387204  13.3552861   2.5291106  17.5854540
  12.3807728   1.8840019  16.6236091   9.8866606  49.7036362  23.2384992
   9.4810015  50.3849268  22.7022958  10.4443407  50.1820278  23.8519883
  20.2488756  11.5322840  67.3679543  20.6663561  10.6813359  67.5014782
  20.7266164  12.1268368  67.9463148   1.6526552  27.6747036   1.3651364
   1.7156096  26.7199779   1.3374984   1.3731906  27.9219270   0.4836532
  70.5382538  68.7160873  66.5284491  70.1364040  67.8940296  66.8094730
  71.4758587  68.5848761  66.6695499  82.0376682   6.1948633  56.8527842
  82.9080296   6.1376083  57.2470331  81.4805984   5.6664777  57.4243641
  17.5545764  78.5293293  52.7138186  18.4217083  78.1389141  52.6047659
  17.5875604  78.9498043  53.5730886  74.5219231  25.7592344  67.2008610
  74.4303560  26.1607552  66.3367891  73.6317730  25.7416701  67.5523615
   1.1274622  41.3618422  13.6915708   1.6144904  41.2433720  12.8760946
   1.5110239  40.7248163  14.2943263   9.6175694   2.6791582  26.0213804
   9.2594707   3.0412671  25.2109027   9.4464594   1.7393801  25.9599757
  70.3321743   1.6980855  10.0282395  69.9108648   1.3778824   9.2306185
  69.8498344   1.2767228  10.7396007  24.9005461  69.4841146  47.8802967
  24.1575718  69.7931242  47.3619032  24.5388007  68.7840605  48.4237099
  45.3198576  20.6081820  47.6853943  46.0025406  19.9645901  47.4957514
  44.5145369  20.0937891  47.7409744  67.3294353   9.4654220   8.9950526
  67.7915239   8.8155437   8.4655571  66.4066362   9.2220002   8.9214724
   0.4667420  28.9371037  23.3570790   1.3913098  28.7646770  23.5350537
   0.1540824  29.3953514  24.1371346  72.3749590   3.1623882  13.0741131
  72.5018835   2.3119690  12.6535070  71.5632391   3.0646273  13.5718989
  82.9198265  12.8472352   9.5869094  83.8192463  12.7638054   9.9036330
  82.5610352  11.9619811   9.6487582  53.5570478  14.4697964  59.3422556
  52.6307774  14.4431996  59.5821428  54.0104723  14.0910101  60.0953579
  74.4410944  60.3151274  20.4428935  73.5257864  60.2669573  20.7187843
  74.5463181  61.2089968  20.1170707   6.4105630  35.1262593   5.7144028
   6.8700123  34.2874956   5.6742436   7.1030271  35.7722235   5.8538926
  52.6674271  74.9165630  15.5667627  52.1142483  74.8943710  14.7859097
  53.5614395  74.9474382  15.2261424  13.1680739  68.4225368   0.0247761
  12.9437721  68.4011316   0.9550783  12.3774862  68.1159878  -0.4193310
  43.0803204  55.1284075   0.6036089  43.3588362  54.5157194  -0.0770305
  43.3193636  54.6988535   1.4249313  81.5804005  40.7940102  64.8460150
  81.3167000  40.2240038  65.5683613  81.2715626  40.3431797  64.0601397
  11.3430917   9.0888578  26.7544746  11.7443466   9.5030469  27.5184584
  11.0657978   8.2276326  27.0669341  71.7362833  39.2410254  18.4763992
  71.3319874  38.4294343  18.7831557  72.2727489  39.5345950  19.2127764
  19.5699668  71.6069794  33.2334805  19.3361139  71.0738993  33.9933300
  20.2276778  71.0882521  32.7702641   7.6980025  49.9310255  16.2945867
   7.5063658  50.8650732  16.3786101   6.9465196  49.4952345  16.6965735
  12.7129352  35.2770996  56.5241385  12.8811049  36.2193537  56.5345478
  13.2087564  34.9536061  55.7719803  74.7890615  74.3654013  14.5320904
  74.3716335  74.5524025  15.3729343  74.5415401  73.4614468  14.3375885
  20.5939341  20.2634931  35.4477835  20.5419493  19.6335590  34.7289562
  20.5426502  19.7281170  36.2395978  48.3602762  52.9756117   3.0529305
  49.1271019  52.6374435   3.5153723  48.4133577  53.9249372   3.1633595
  55.6453657  53.6808777  57.8140259  55.1324129  54.4485092  57.5613451
  54.9931574  52.9980993  57.9710960  45.5991507  78.3269072  66.7935133
  44.8119020  77.8805351  67.1053219  45.4115200  78.5315323  65.8774567
  59.8490286  12.3168564  18.2510579  59.5175076  12.8362203  18.9835799
  59.4609118  12.7217245  17.4753785  81.5358543  47.0876265  15.1885164
  81.6125679  46.7114019  14.3117023  80.8617687  47.7616549  15.1017928
  65.6449747  14.6157384  10.1550162  66.4429331  14.1294622  10.3624523
  65.0466204  13.9558613   9.8046327  12.7360773   6.9291079  64.1970253
  12.8550589   6.4899582  65.0391769  12.0582426   6.4184701  63.7542820
  69.1653776  48.1122923   6.0574394  68.3320284  48.5826731   6.0798526
  69.7592020  48.6992455   5.5893672  47.3740244  39.0440464  16.6623127
  46.9412422  39.0998101  17.5142634  47.8763151  39.8561025  16.5952170
  33.0709434  46.9435120  31.5552545  32.3315740  47.0622730  30.9590507
  32.7145267  47.1416187  32.4212527  29.2344570  21.8029380   0.1059405
  29.9886394  21.7974854   0.6953551  28.5199881  21.4376450   0.6277920
  16.4652002  37.0048642   1.3941392  16.1322308  36.6769171   0.5587871
  17.3812795  37.2201180   1.2189345   3.4758416  15.6354094  30.4847670
   2.7743113  15.0049090  30.3218079   4.2816311  15.1423848  30.3302979
  36.2913370  11.5613687  18.0151939  35.4145622  11.9323051  17.9156709
  36.2711835  11.1240590  18.8664198  73.0062819  64.7128487  54.8973131
  72.0642519  64.8061752  55.0390863  73.3540249  64.4650269  55.7539892
  71.1938953  28.4038782  63.7552357  71.0439920  28.6360836  64.6716642
  71.5400600  27.5120544  63.7876654   7.4310929  32.7707028  65.7038736
   6.7027819  32.9601049  65.1123333   7.0911473  32.9743600  66.5751886
  77.0851803  19.9371779  20.7616401  77.7756596  19.8087096  20.1112843
  76.8169737  20.8491373  20.6492615  20.3152490  13.5341573  33.2758713
  20.6615448  12.8958607  33.8994813  19.6808124  13.0409932  32.7557659
  59.8246384  19.3293059  12.1173632  59.9433994  19.0761447  11.2019181
  60.5444622  19.9351192  12.2936475  64.7837734   9.4690937  52.2788858
  65.0670195   8.7366569  51.7315865  64.3574905   9.0561038  53.0298567
  57.0364285  37.6064515   9.1981262  57.6840115  38.1867886   9.5982218
  57.1009827  36.7936659   9.6995652  77.4405909  29.6319890  14.0031576
  77.2535658  28.6932898  14.0130901  76.8570948  29.9995017  14.6670055
  81.1156654  48.4260511   4.6654212  80.9824276  47.4810696   4.7395420
  81.9788647  48.5152769   4.2614996  10.5633593  67.8561783  31.8120837
   9.6875864  67.7401495  31.4435863  11.1473095  67.4416733  31.1769295
  19.2610466  16.8773830  21.5295315  19.7801840  17.5464082  21.9757748
  19.4953406  16.0598683  21.9688582  27.1650386  68.8830948  59.2703009
  26.8255091  69.2375422  58.4485245  26.5169954  68.2304716  59.5355463
  11.5473497  36.0435915   7.6614332  11.4525032  36.8108320   7.0970088
  12.4343634  36.1139846   8.0142546  83.6171246  72.7024794  48.4161806
  84.4083118  72.7829647  47.8834724  83.5140800  71.7604685  48.5511875
  65.6082678  20.7608008  39.3753862  65.3069210  21.6693282  39.3755198
  64.8725557  20.2643776  39.7338820  81.0278320  14.1687238   1.2457421
  81.2835217  14.6017158   0.4312661  81.5146542  14.6328413   1.9267908
   1.4818302  21.3965750  20.4293346   0.7019240  21.2134600  19.9054587
   1.4563668  22.3423982  20.5742621  64.5588827  23.5344672  68.3138561
  64.4389820  24.4551015  68.5468578  65.1050711  23.1791210  69.0150261
  12.9674804  35.3567672  13.4565866  13.0787444  34.9666023  12.5896239
  13.6753392  34.9818373  13.9806044  76.3169432   8.2234472  32.9107213
  77.1922731   8.4379542  33.2332325  76.4036369   8.2340407  31.9575143
  34.0691590  20.8548975  34.4959998  34.5576310  20.2731562  35.0784135
  34.2946243  20.5562592  33.6149693  17.6813698   3.3229935   9.0450412
  16.8759632   3.6109772   8.6153686  17.8359318   2.4437800   8.6996055
  72.7968359  69.9643421  63.8424397  72.3505592  70.5055952  63.1911993
  72.1254969  69.3538523  64.1471434  17.8185475  42.0492983  19.3815303
  18.2978177  41.6077518  18.6804104  18.1992686  41.7013597  20.1878953
  57.4187088  36.0878849  64.3153286  57.3248863  35.4418707  65.0153971
  57.1918106  35.6107545  63.5171461  75.4248238  71.7266130  13.1339085
  75.9241199  71.3271809  13.8462234  74.6613073  71.1589384  13.0289161
  81.9734192  24.9843693  11.2317181  81.6504574  24.0854406  11.2938333
  82.8260326  24.9035478  10.8042252  47.6790380   4.3273261  59.5582199
  47.6806164   4.3339881  60.5153942  48.4757519   3.8529190  59.3206882
  81.2181187  44.3600368  50.8452654  82.0899773  44.6543455  50.5816889
  80.6186771  44.9627686  50.4052401  16.3214302  29.5511913  26.6201425
  16.9486594  28.9941645  26.1591244  15.4693317  29.2958522  26.2666416
  38.0584407  73.1423140  48.3997917  39.0022779  73.0191612  48.5009718
  37.9408503  73.3391809  47.4704695   5.5782831  54.9055004  49.3883991
   6.0281801  54.6194029  50.1833630   5.3534222  54.0930986  48.9348888
   2.4929969  37.6183271  12.1002936   3.0109447  38.2736278  12.5677812
   2.6116079  37.8345323  11.1754048  67.0704460  49.8253822  14.6372962
  66.4092302  50.3810263  15.0499475  67.8561497  49.9529505  15.1689231
  24.6788454  11.1546552  13.6342061  23.9241862  10.7775354  13.1819880
  24.7056746  12.0643926  13.3377433  37.9076004  37.7960253  16.6764784
  38.3712435  37.3784995  15.9505725  37.3803973  38.4793568  16.2625384
  66.1618948  35.6378841  22.6208282  66.1863661  36.5497279  22.9109550
  65.9035349  35.6862426  21.7004251  76.0832644  42.5804567   3.4210327
  76.3345003  41.9044447   4.0504122  75.7740498  42.0935059   2.6571655
  36.8310404  27.6370192  28.8807011  36.8128538  28.5767460  28.6995554
  37.6714110  27.3417592  28.5302305   1.3197175  48.3315468  51.1614704
   0.4312199  48.0339289  51.3569927   1.4396389  48.1336689  50.2326584
  69.7364569  13.5421026  31.5464401  69.3824720  14.1625988  32.1835518
  69.2587042  12.7294660  31.7125964  49.8979712   8.0674440  28.6805606
  49.5068598   7.7900958  29.5090175  49.1928434   7.9747581  28.0399108
  64.1327429  53.1449938  18.3735228  63.6279202  53.9173079  18.1187356
  64.9875641  53.2710266  17.9616630  81.6941738  60.3682327  63.2367086
  81.9131374  60.2891922  62.3082495  80.7424927  60.4698753  63.2505417
  16.1113119  58.0541086  58.1357050  15.2164090  58.1613064  57.8133869
  16.4331722  58.9482021  58.2507277   0.3717606  75.7478380  14.6370542
  -0.5491158  76.0088491  14.6274829   0.7707857  76.3018847  15.3079081
  82.2571564  62.2946405  13.0833638  82.8399849  62.8091717  13.6417568
  82.8392315  61.6918755  12.6206613  14.1924679  73.1920576   6.5571535
  13.6220074  72.6206589   6.0430419  14.3896103  73.9232254   5.9716970
  35.6554079  34.4015765  30.9741139  36.2439775  34.8150539  30.3425646
  35.3332114  35.1256442  31.5109086  33.3976698  74.7690153  65.4686546
  34.2386651  75.2069235  65.5997801  32.8004313  75.4703569  65.2085400
  70.8588886  17.2212720  28.1117225  70.4189157  16.5292060  28.6053801
  70.8884811  16.8927646  27.2131467  23.0269885  58.0908918  42.6359892
  22.1276522  58.3004761  42.8879786  23.0501795  57.1344948  42.6044083
  72.4042034  54.6719694   7.5236213  71.7582083  55.1409769   6.9954562
  72.2494030  54.9767780   8.4176916  59.2071199  79.0468550  60.4304218
  58.3495569  78.6955881  60.6700706  59.7523689  78.2727242  60.2902174
  63.3864594  16.1893618  57.5171661  62.7359438  15.5337286  57.7685690
  63.7190962  15.8851981  56.6727304  73.7422180  36.9795179   2.7596089
  74.1181993  36.4000225   2.0969996  72.7958822  36.8883824   2.6483330
  80.6801510  70.7608175  15.8582568  81.6323662  70.8545876  15.8849382
  80.5161667  69.8830223  16.2029564  68.7907314  30.8400917  52.8160477
  68.7981558  31.6096735  53.3851862  67.9006672  30.8102775  52.4651527
   8.7212646  37.5703907  15.9337246   9.3117398  37.1686459  15.2964091
   8.4542781  36.8476391  16.5016890  15.7197595  75.9431744  15.9820771
  15.9117877  75.0315952  15.7621193  16.2715662  76.1275053  16.7421842
  65.5322552  17.3420453   2.9236716  65.0353003  17.7661216   3.6232629
  66.0358000  16.6595483   3.3673722  65.9293032   3.2412663  60.0107384
  65.0035477   3.4645140  59.9139547  66.3007879   3.3768836  59.1390514
  13.8414180   2.0296049  64.0115881  13.4891379   2.4478625  64.7972059
  13.9335704   2.7437234  63.3808947   8.3186299  78.3028650  28.2547259
   7.4298626  78.6508179  28.1822658   8.7095928  78.7931967  28.9778805
   8.6207974  17.8719366  31.4000702   7.8585154  18.3848369  31.6685677
   9.2315573  18.5181773  31.0457015  25.2870154   2.8087011   3.0970684
  25.4983234   2.7937153   4.0305328  24.7452354   2.0312931   2.9616287
  62.9385996   7.4939340  25.3510547  62.4744701   8.2525623  25.7050347
  63.8408422   7.6036203  25.6513047  29.5615435  64.0698338  31.1191845
  30.3193378  64.6521187  31.0650849  29.5607328  63.7613487  32.0253134
  77.5146246   4.5168763  58.9808846  76.9723749   4.9699029  59.6266127
  76.9841051   4.5114091  58.1841755  67.7991676  10.6999207  21.4104795
  68.5990953  10.8003175  21.9264865  67.1332598  10.4433334  22.0484138
  72.4065542  46.4055061  22.0414782  71.5786457  46.0623455  21.7052627
  72.8579473  46.7427015  21.2676716  26.6644335  44.2181396  15.9491611
  25.7137823  44.3268013  15.9753656  26.9319105  44.2267275  16.8681908
  79.3701792  74.9520111  57.0341444  80.3093433  74.7938681  57.1299791
  79.3141508  75.7569742  56.5192413   0.3935206   6.6153973  58.0668783
   0.1023499   6.9123369  58.9290142   1.2933481   6.3203478  58.2064819
  35.7293510  59.8192215  31.6258621  34.9252629  59.3319988  31.4461708
  35.6259036  60.6388140  31.1423349  41.8326759  10.1271820  65.9162664
  40.9841633  10.0037062  65.4908085  42.1804762   9.2412949  66.0185909
  71.6490316  39.2602658  50.6291533  72.3275518  38.9347458  50.0376511
  72.0053625  40.0785065  50.9751940  17.0643401   6.3772827  60.3377914
  17.5229442   7.1391547  59.9835777  17.2437930   5.6767708  59.7106457
  34.8250675  32.9825974  62.0620680  35.4089642  33.4039903  61.4314127
  34.5197701  33.6974788  62.6206112  42.6171350   1.8413721  44.2190123
  43.1266069   2.4752152  44.7239017  42.0031118   1.4690547  44.8519278
  43.2743359  70.2632809  60.0763416  44.1841507  70.5565453  60.1260519
  42.7589369  71.0639477  60.1739645  70.6292915  33.1227517  41.4049768
  71.5558434  32.9708672  41.2187767  70.1776123  32.8599262  40.6030178
  43.0390263   9.3598062  63.1496477  43.3610153   8.7818921  63.8414335
  43.3705854  10.2257276  63.3873034  43.0631924  69.9295187  63.1947899
  43.4353113  70.1553726  62.3422956  43.2155037  70.7045269  63.7355280
  25.9274983  37.9640412   3.6185849  25.8170605  38.1585431   4.5492861
  26.7223716  38.4348917   3.3681729  36.4243793  76.8201923  50.7303095
  35.5048299  77.0692492  50.8232212  36.8108916  77.0076084  51.5857124
   7.0847726   2.2993857  65.9711266   7.5455642   1.6894528  66.5472221
   7.4264842   3.1605655  66.2116146  17.4897861  28.6513352  63.6816168
  16.7994750  28.3214974  63.1063700  17.6791501  27.9215598  64.2713594
  81.4136028  75.0536966  50.8189201  82.2862625  75.1413584  50.4354954
  81.1313057  74.1727638  50.5729580  56.2244940  77.1324301  57.3801756
  55.6704235  77.1504688  58.1605005  55.7746458  76.5370083  56.7807198
   6.4694655  34.8593163  53.7695169   7.1810031  35.3548455  53.3640575
   6.9062340  34.2816114  54.3953943  25.3461361  79.6277428  22.1809530
  25.8653355  78.9091396  21.8200159  24.8928428  79.2425919  22.9308963
  68.6612558  78.5329580  48.5017347  68.3980513  78.8838339  49.3525267
  69.2994070  77.8508949  48.7109804  18.1635666  22.4500632  51.8584681
  18.4016061  22.8155041  52.7105379  19.0014529  22.2504044  51.4409590
  52.8443241  65.0274372  19.0601504  52.0019150  65.3701210  18.7615657
  52.7208281  64.8705149  19.9962890  53.6037683  70.3416157   7.7075016
  54.1351748  70.3443909   8.5036385  53.9028931  69.5724726   7.2225553
  59.2360830  67.8852892  26.3321877  59.4394493  68.6911678  26.8069816
  60.0907183  67.5200272  26.1032319  46.4394808  61.3341141   8.4327298
  45.9881020  60.8578348   9.1296148  47.2708559  61.6012144   8.8247848
  61.5356731  44.7764444  56.4689207  61.2957382  45.7029581  56.4535570
  62.4921656  44.7760916  56.4321184  48.1943035  55.1839638  20.8514333
  48.3837366  55.3050756  21.7818522  48.9486885  55.5647802  20.4018617
  16.4795601  44.1131878  54.8202896  16.7303741  44.9713135  55.1622581
  15.8552480  43.7730837  55.4612255  54.6893263  78.1235600  49.7952223
  55.0533342  78.0387592  50.6764364  55.2676678  78.7472486  49.3561745
  68.6223269  79.1821527  12.3208141  69.0611362  79.9306059  12.7251601
  69.0417337  78.4171677  12.7146792  64.6259308   4.9656570  42.8261662
  64.1151667   5.4350621  43.4857178  64.4832230   5.4578918  42.0177269
  28.7607384  26.4868283  66.8653631  28.9266491  25.6214619  66.4914036
  29.4533777  26.6035414  67.5156403   9.4058830   6.7941797  12.0414424
   8.8203990   6.0856622  12.3087323   9.9271917   6.9814712  12.8220773
  53.8415909  74.7432899  21.0228324  54.3673611  73.9550352  20.8869886
  53.7425423  74.8043346  21.9729352  14.9565482  22.0716786  66.3879108
  15.6157017  21.5587807  66.8555450  14.2311072  21.4622283  66.2517548
  28.8882041  69.0131092  22.5937009  29.1281056  69.3288040  21.7224860
  29.1184497  68.0840683  22.5836062  37.7911520  23.4389949  67.2124147
  38.3126545  23.8111401  67.9235935  38.2163382  22.6044512  67.0149612
  70.8080626  54.5192051  23.1184006  71.3458347  54.0504313  23.7565851
  70.2181768  55.0543594  23.6493254  55.0262022  22.2046328  11.5502203
  55.8843040  22.2056246  11.1260843  55.0246620  21.4112854  12.0857847
  21.8784356  29.6912599  67.1421099  21.0921097  30.2208710  67.0100737
  21.6335940  29.0645957  67.8229713   1.5337980  31.6598248  45.9847069
   0.7873814  31.7986679  45.4017687   2.2766089  31.5282130  45.3955173
  17.5734377  63.0737782   4.0607947  18.4911954  62.9482460   3.8195592
  17.5896382  63.7824535   4.7040236   2.5188151   6.8773979   5.6868649
   2.8427601   7.1710902   4.8353744   3.1575182   7.2141647   6.3152587
  50.5932140  53.6622524  42.0373678  50.8087635  54.4146633  41.4863253
  50.7679987  52.9016161  41.4831972  79.9882364  14.8021626   4.4392872
  79.3758202  15.0143027   3.7348899  80.8503914  14.8335671   4.0246409
  57.4063683  30.1223207   6.1079913  57.5542402  29.2980886   6.5716809
  56.6505480  29.9491382   5.5467641  78.8695145   2.1638933  42.3959446
  79.1020870   1.9416466  41.4944172  79.6279335   1.8922135  42.9128790
  81.0608578  73.6449862  67.9858685  81.4491844  72.7833796  67.8339672
  80.9988308  73.7151670  68.9384747  56.0717201  60.1649237   6.4145666
  56.4881992  60.4130840   5.5892223  56.2666702  59.2327023   6.5104210
   3.9312810  77.1707439  62.0717144   4.6870100  76.8805265  61.5609503
   3.3440048  77.5656843  61.4272308  48.9804316  62.9580116   8.1724936
  49.8154497  62.5431395   7.9560232  49.1977978  63.5911083   8.8567245
  75.3486776  75.2053976  65.6231213  75.8849955  74.4248104  65.4842567
  74.7174692  75.1934099  64.9036312  70.4214382   2.5418746  60.7688999
  70.7640505   3.4347674  60.8087969  70.2316999   2.3993514  59.8415804
  43.5567713  22.8005242  63.4558487  42.8047752  23.1878996  63.0078840
  43.3035326  22.7843928  64.3788004  50.4196262  69.4306898   3.0794403
  50.0576210  68.9684916   2.3234248  51.3680601  69.3733025   2.9636338
  67.0172596  30.2475405  13.6557353  66.1511326  29.9102211  13.4271181
  67.1807003  29.9105263  14.5366108  78.5673761  75.8520842  62.3625231
  79.4325829  75.9737396  62.7534914  78.0678415  75.3797674  63.0285645
  13.4316206  50.2047539  49.9786663  12.4831438  50.2722740  49.8688269
  13.6840189  51.0296583  50.3934717  39.5623684  41.5354443  65.8804607
  39.9933791  42.3881197  65.9387779  40.2816439  40.9040785  65.8645678
  69.3526983  72.2634983  19.0428603  69.4175434  72.3385906  19.9949050
  68.4123611  72.2190666  18.8696015   3.1240678  43.2398462  64.5652676
   3.2947508  44.1810799  64.5310259   3.9833403  42.8360224  64.4435692
  53.2376194  63.9468956   5.1626492  53.0152750  64.0434742   4.2366534
  52.4228573  64.1408396   5.6260926  72.2442150  13.3253467  47.9436493
  71.6327620  13.1721520  48.6639881  71.8862438  12.8196990  47.2139835
  45.9413910  15.9547269  49.9572754  45.4189634  16.6634941  50.3327084
  45.3689909  15.5567884  49.3013525   6.7170125  25.4341173  65.1047897
   6.4749670  25.2361250  64.2001104   7.6482791  25.2188611  65.1561594
  78.3389473  17.3082983  12.9620790  77.5175476  17.0236540  12.5614452
  78.7856674  16.4948082  13.1964052  20.8513522   4.0468144  24.4292855
  21.4994645   4.0913144  23.7262917  20.5124474   4.9392560  24.4994521
  50.3006649  71.2302637  14.4136775  49.6432686  70.8807230  13.8121104
  49.8420525  71.3090992  15.2501512  18.7881267   7.5039321  58.3994532
  18.7870014   8.4565765  58.3061838  19.6886194   7.2451580  58.2035446
  46.8400002  42.0290184  11.1584389  46.4636230  41.1489964  11.1472559
  47.7203512  41.9175816  10.7995510   8.8130194  28.7975669  45.7550669
   8.6513555  28.3763671  46.5992737   9.0956336  29.6840286  45.9798956
  37.5798154  17.4365699  48.5899973  38.0712986  17.0898020  49.3345976
  37.8260946  18.3606744  48.5499048  57.3560810  75.1638746   3.0794099
  58.1051111  74.5904970   2.9168379  57.4241638  75.8429480   2.4082538
  42.5602150  22.8048897  66.2589788  42.4516773  22.8307581  67.2096539
  43.4258652  23.1838155  66.1063433  46.6278219  27.8161573  16.2714887
  46.4767694  28.0819201  17.1785641  46.3226557  28.5587955  15.7503390
   7.8689098  12.5874686  42.6448345   7.7691025  12.7913606  43.5747242
   6.9826019  12.6516986  42.2890759  46.7468548  68.8465786  67.2298622
  47.2149801  68.2427692  66.6532278  46.8518448  69.7031498  66.8157387
  42.9375458  43.6450958  17.4792266  43.1088686  44.3671417  18.0838132
  42.8744125  44.0620613  16.6199350  50.0265694  64.2136908  14.4134951
  49.6004772  63.9443016  15.2271938  50.1096344  63.4053421  13.9076221
  28.3172131  70.5988455  39.5188713  28.5492587  69.7174740  39.2263412
  28.9988542  70.8288574  40.1502895   4.0049472  72.6300430  13.8134193
   4.5870081  73.2061529  13.3179069   3.1329629  72.8115034  13.4627819
  40.9047127  75.6594324   5.6185949  41.8057728  75.4136372   5.8281308
  40.9452581  76.6017628   5.4554933  42.6975679   4.8005056  65.9340048
  42.3394632   4.8628482  66.8195009  42.9306078   3.8774726  65.8343267
  25.8865762  72.1405268   0.7642274  25.5580449  71.3494921   1.1914992
  26.1609411  71.8471098  -0.1046007   6.9651550   9.5597667  47.9893875
   7.3799372   8.9938372  47.3383045   7.6906776   9.8798954  48.5254574
  32.7294946  29.0861750   3.9430448  32.5045323  28.2499933   3.5350969
  33.3351827  29.4980407   3.3268130  46.8817377  18.5166025  46.8637037
  47.6416492  18.1761324  47.3357725  46.2131262  17.8392839  46.9658422
   3.1058013   0.9451170  13.2884705   2.6534414   0.6142441  14.0644372
   4.0316999   0.9414645  13.5312259  18.2200325  60.4183674  41.5123463
  17.3297513  60.6974745  41.7261887  18.3770752  60.7694674  40.6358194
  68.6870718  73.5415316   1.3026512  68.3955956  74.4183779   1.0528284
  67.9099131  72.9923391   1.1995026  45.3927135  62.9258966  20.9943175
  44.6987772  63.3286715  21.5162897  46.1749363  63.4378099  21.2000036
  35.5425239  54.7696400  12.5046217  36.2761188  54.6569729  11.9001591
  34.9111032  55.3001404  12.0187116  14.0233731  65.2346277   8.2474667
  14.2744708  64.9026203   9.1094148  13.5542417  66.0484076   8.4316039
  16.8170929  18.2751644  14.2030644  16.1494756  17.6197720  14.4054949
  16.4058948  19.1114044  14.4218111   5.2286130  75.7561827  37.4665999
   4.4590485  76.1405420  37.8864455   5.5364126  75.0967598  38.0884123
  60.4280949  59.6465492  30.6993127  60.5006599  58.9150810  30.0861883
  60.4291964  60.4259062  30.1435828  43.8897562  58.4749269  21.5655160
  44.5608997  59.1574144  21.5629268  43.0769062  58.9375782  21.3619018
   0.6490461  59.1530466  45.2562189  -0.0640760  58.8212013  44.7107220
   0.2526689  59.8610926  45.7639456   6.8867213  27.2988081  42.0996952
   7.2646779  26.8672919  42.8659725   7.6047093  27.3368931  41.4678144
   9.8457122   8.1445563  21.9323802  10.4540873   8.8716769  21.8004441
   9.6802658   8.1387496  22.8751540  63.3613777  38.3878517  13.0852365
  62.5204182  38.5077929  13.5264051  63.8130426  37.7244449  13.6068928
  18.0921292  20.2744031  46.5066385  18.1236386  20.8053899  47.3024368
  17.9259694  19.3848717  46.8186569  13.6009049  49.7292233  65.8526897
  14.2822087  49.1274500  66.1525726  13.7174320  49.7690868  64.9034452
  30.2474475  23.5470653  35.1477361  29.6969843  23.2260132  34.4334888
  29.7276568  23.3960581  35.9371948  59.4909096  33.9714384   8.0069155
  60.4205370  34.1228986   7.8363973  59.4283438  33.9152646   8.9604157
   8.7546277   3.9546719  23.4841633   8.7919319   4.1297689  22.5438523
   7.8200608   3.8792828  23.6768627  41.6371346   5.5959153  15.2245080
  42.4942350   5.3243273  14.8960924  41.4553690   4.9938443  15.9461057
  82.4280357   0.1031240   4.3495470  83.1337929  -0.2674735   3.8196364
  82.7667046   0.9495458   4.6412796  79.5899105   8.2079619  47.8051424
  80.3033066   7.7872676  47.3252344  79.7902727   9.1429204  47.7611113
  46.8703651   8.1225413  64.7102404  46.0760021   7.8360456  64.2595291
  47.3722029   7.3187208  64.8453856   3.6432415   5.9260142  11.7160523
   4.1681144   5.9768820  10.9172070   3.2303149   5.0633538  11.6768014
  46.9776630  22.7556729  46.8526268  46.2144375  23.1586909  46.4387512
  46.6649199  21.9019771  47.1519947  73.1098843  12.0015776  43.4067059
  73.4681082  11.2244320  43.8356018  72.2415161  11.7314684  43.1080246
  13.0352569  60.2535057  68.4080172  13.3052254  59.5324326  67.8393316
  12.4624240  59.8450851  69.0570831  61.0261345  26.5366530  51.5709305
  61.5153980  26.0878205  52.2604275  60.5371475  25.8404756  51.1322308
  57.7341986  73.4719753   6.5435630  57.5311041  73.4979916   7.4786073
  58.4033298  74.1460896   6.4249587  47.4175167  77.9517794  37.4231148
  46.5709591  77.5151539  37.5176096  48.0618572  77.2611427  37.5782776
  69.6169043  78.1906986  36.3259006  70.2269411  78.9175034  36.2000251
  69.7586393  77.6248646  35.5669689  46.5897560  71.8456888   3.4606016
  46.1748695  72.3335028   4.1720346  46.6950941  70.9597111   3.8072723
   3.5521442  66.0154438   7.0182407   2.7261910  65.5453300   6.9040924
   3.2906890  66.9169569   7.2057045  23.1374359  77.3528242  49.6491003
  22.3743725  77.9107189  49.7998333  23.7344909  77.8971767  49.1358423
  83.5740566  17.9739594   3.5262507  82.8530598  18.3677971   4.0174526
  84.3512726  18.4501052   3.8185748  14.8197448  40.4425907  36.3874912
  13.9036977  40.1968002  36.5166330  15.1687443  40.5401325  37.2734451
   9.4714689  60.0918198  58.1310034   9.1511798  60.9684229  58.3436346
   9.4831198  59.6310520  58.9699268  58.4418631  37.5814962  16.2887108
  59.1527176  38.2035017  16.4437115  58.7709665  37.0095968  15.5952752
  17.6965451  59.7294283   4.8329264  17.7158606  60.6752443   4.9788231
  18.6038303  59.4497204   4.9546996  58.1056452  24.7077727  16.5143621
  57.8137636  24.0300417  15.9046745  57.5246763  24.6168160  17.2696328
  13.0022514  31.8623543   6.6556036  13.6023426  31.7804146   5.9143823
  13.5738301  31.9210029   7.4211693  57.6807737  79.2846870  27.1771908
  57.4174929  79.9455595  27.8176260  57.0375395  78.5831404  27.2787166
  59.5496082  75.7248545  55.1114893  58.9238977  76.3589287  55.4617310
  60.0865364  76.2302589  54.5011616  26.2517357   9.5687556  51.9478130
  27.0980883   9.5213288  51.5032148  25.7037497  10.0936151  51.3643169
  39.4036341  72.0299911   5.7988465  38.6969972  71.4673424   6.1155856
  40.0978708  71.9324493   6.4505804  29.2690754  40.7784700  68.9123869
  29.1334057  41.7174101  69.0397215  29.1641688  40.6469345  67.9700899
  73.9876032  10.0342488   8.3196324  73.8611984   9.2003131   8.7721854
  74.8871660   9.9964696   7.9946846  43.3688974  44.2363262   3.7737665
  43.5129261  44.9753523   4.3648028  42.9793692  44.6274281   2.9917577
  24.6891832   2.9705089  60.5661535  24.2824817   2.2670093  61.0720348
  25.6298852   2.8259024  60.6681442   7.7938324  37.6957750  65.6750679
   7.0581448  38.2297778  65.3753424   8.0722123  37.2131133  64.8967552
  83.2053757  55.0760841  41.7100239  83.8803768  54.4824362  41.3811064
  83.6904240  55.8374071  42.0283747  26.3765693  71.1020041  25.5823231
  25.8720541  71.3267899  26.3640976  25.7160354  70.8708334  24.9292636
  78.8549280  77.6489401  57.8471518  79.1397095  77.5508642  56.9385767
  79.5216513  78.2064486  58.2482767  46.8039989  27.7594090  11.1426604
  46.2007141  27.2613454  10.5911064  47.0460749  28.5167336  10.6096613
  16.5401113   6.2539995  62.9934263  15.6202102   6.5100032  63.0603266
  16.6964543   6.1659575  62.0531940  41.2305260  17.9475522  64.3101406
  40.3122663  17.6898134  64.2288828  41.2224007  18.6669791  64.9414778
  69.8331594   9.8638022  55.9885120  70.6879902  10.2910686  56.0427523
  70.0233889   8.9899540  55.6472921  18.2684124  56.9418049  64.6159267
  18.3377302  56.8333960  65.5644369  19.1740572  56.9272089  64.3063688
  76.4384365  16.7646992  11.0942233  75.5001163  16.7198396  10.9104371
  76.7962074  17.2984695  10.3847718  73.8586378  73.0414629  52.2056150
  74.7765398  72.7744818  52.2547054  73.5234594  72.6039171  51.4230299
  58.4989834  70.7302952  19.3731320  58.8430214  71.0450459  18.5371888
  59.0693617  71.1270618  20.0315213  43.6095381  52.1988010   9.8459876
  44.1651201  52.7354193  10.4113197  44.0989256  51.3839626   9.7329628
  48.8644123  49.8073721   2.5748417  49.5165443  50.5047035   2.5063920
  48.6956024  49.5475674   1.6691713  58.6206293  69.4328260  11.2546718
  58.9955807  69.7845888  12.0620799  59.1886425  69.7679710  10.5609345
  57.2757721  64.7390032  12.0952678  56.9988871  65.6399298  11.9282591
  57.6501179  64.4455957  11.2645984  34.9309587  79.0094519  61.4217567
  34.1886640  79.5630550  61.6641521  34.6900249  78.1365061  61.7318344
   6.1522752  31.1796260  59.3031883   5.5565536  30.4830670  59.0272331
   5.8841264  31.9415617  58.7895870  58.6383772  15.2117980  48.4305000
  58.0224800  14.4791090  48.4221363  58.1130075  15.9692693  48.1727123
   0.7464822   0.2106815  11.5420210   1.4273259   0.6412625  12.0590162
  -0.0196357   0.2007341  12.1157777  83.2690907   6.6954941   8.0000997
  82.4764252   7.2316778   8.0205703  83.2711697   6.2388688   8.8413614
  33.0438614  69.4924879   5.5307627  33.4791493  70.3423405   5.5979109
  32.1186328  69.6845579   5.6833792  16.1925948  77.2036695   1.2473048
  15.7065034  76.3843489   1.1542070  15.5233312  77.8862000   1.1976212
  29.0233874   9.2014611  13.3139288  29.7495556   8.6611742  13.6253750
  28.9207029   8.9575183  12.3940480  45.2430105  75.4098749   3.2732949
  45.8791018  75.4616117   3.9866975  44.5337009  74.8708916   3.6234576
  25.2880430  50.4979134   8.1524044  25.1178813  50.1953077   7.2603798
  24.4513822  50.8577299   8.4469551  25.9201717  53.2443428  52.9878092
  26.6704082  53.2647467  53.5819149  25.5571556  52.3646259  53.0905437
  64.4424009  43.1983519   2.4984287  65.0702477  42.5157833   2.7353641
  64.3358421  43.1075287   1.5515241  63.8278151  30.9724140  62.5250769
  63.3422899  30.4852247  61.8593884  64.7200298  31.0225391  62.1820402
   7.3160952  33.4834933  58.2310295   8.0147821  33.1346464  58.7845373
   6.9928998  34.2485237  58.7069511  13.6537147  19.2684710  12.0360529
  13.3583200  19.7921324  11.2912345  14.3734479  19.7739577  12.4138081
  22.0593452  38.0231857  53.9132643  21.8192410  38.4528971  54.7341967
  22.8128266  37.4780178  54.1397333  74.2527485  21.7279983  51.2168407
  74.0807343  20.8954906  51.6568136  74.5958090  21.4789486  50.3586340
  61.4880848   6.1217594   1.6926453  60.6743288   6.3587564   1.2478301
  61.3814068   6.4581239   2.5824267  55.8055496  65.2458811   9.3021214
  56.7056847  64.9254417   9.2445493  55.3318167  64.7506523   8.6338735
  65.0417280  63.3660269   7.3690993  65.1861429  63.0533409   6.4760131
  65.6475830  62.8526402   7.9035199   6.1505836  28.6250949  54.0961266
   5.7186180  29.1459751  54.7731209   6.0908580  29.1622353  53.3060980
  31.0629344  62.6718569   0.5076564  31.0227895  63.2580566   1.2632942
  31.2384653  63.2498884  -0.2348386  11.6701412  53.3232355   8.8717830
  12.2123027  52.9906750   8.1564534  11.8254471  52.7137518   9.5933396
  19.3837762   3.2764000  54.9548578  19.2785180   2.8491229  54.1048050
  19.9516129   2.6865640  55.4507256  50.5314112  38.4878540   4.0960172
  50.9659386  38.6751390   3.2639447  49.9417686  39.2297649   4.2306152
  68.8613415  26.0747719  52.1579695  68.5936403  26.3222408  51.2729120
  68.2190228  26.4960670  52.7290773  27.1449900  78.4067202   9.3344194
  27.3574090  79.3367100   9.2555022  27.9058695  77.9553938   8.9689147
  31.9523048  77.5462961   7.9650503  31.5239024  77.7240133   8.8023782
  31.8849945  78.3699226   7.4820006  56.5889931  57.4721861   6.8631572
  56.3791513  56.8539429   6.1631775  56.7913628  56.9195890   7.6180851
  10.0501323  72.5422287  63.0024099   9.8008341  71.7664385  63.5046387
  10.5957758  73.0507708  63.6023188   8.5833657  17.7040827  55.2518320
   8.5653538  18.4653223  54.6718168   9.5034879  17.6134849  55.4996204
  24.0107870  51.2739992  45.1004457  23.4339499  50.7115841  44.5835543
  24.6315503  51.6294861  44.4644308  20.7825899  20.2736950  57.9700613
  20.9379578  21.1242104  57.5593090  19.8674655  20.0753832  57.7714300
  25.8070993   4.1433266  35.7190657  25.2271867   4.5920274  35.1037621
  26.2324405   4.8493928  36.2056732  34.5179009  23.0042815  58.9546680
  34.9869394  23.1879115  58.1407166  35.1332426  23.2484770  59.6460104
  42.1253777  74.9637699  11.9281328  42.0769119  74.9870968  12.8838205
  42.4678612  74.0928888  11.7268682  31.0169005  69.8985529  15.6069052
  30.6582665  69.2873955  14.9633992  30.8280897  70.7646894  15.2458036
  31.5071869  36.3359404  21.9882679  32.3470068  36.1158180  21.5851760
  31.3109541  37.2161841  21.6674948  12.1503937  23.2389688  14.5057249
  11.2572145  23.4658051  14.7645855  12.0445037  22.5131464  13.8907444
  34.8484063  59.5397425   2.5798091  35.6322742  60.0828600   2.4973208
  34.2688322  59.8483229   1.8833143  10.0970554  46.9236755  65.3152561
  10.5309689  47.1901608  64.5047426   9.2124629  47.2820234  65.2423620
  30.1719642  17.5342309  56.3245773  30.5281353  17.1156347  57.1082592
  29.6472073  18.2615590  56.6590261  15.2034712  30.3499722  51.2901831
  15.8101380  29.6269965  51.4498472  15.7629812  31.0752153  51.0123301
  34.0782642  71.0846949   1.2093345  35.0170588  70.9702730   1.3569963
  34.0187597  71.8319321   0.6140801  51.3781118  55.4019499   4.0739450
  50.6101418  55.8274126   4.4552982  52.1209955  55.7883930   4.5376492
  21.0824132  11.5212107  13.7493467  21.2741613  11.5124321  14.6871030
  21.2122607  12.4325097  13.4868491  68.9389324  37.8212118  -0.3566656
  69.6492886  37.8302193   0.2848520  68.1898200  37.4642706   0.1204720
  84.2091274  40.2166843  53.1437492  83.3843231  40.2329016  53.6291981
  84.2475986  41.0682821  52.7083969  23.8797259   8.0148667  23.1217003
  24.1832948   8.6794603  23.7400794  23.8609529   7.2046119  23.6309791
  52.0631838  75.8811045   1.9751479  52.9308224  75.4929733   2.0882718
  52.1278429  76.7387629   2.3952283  60.2424192  69.9767113  13.2476497
  59.9868298  69.9960899  14.1698921  60.8620453  69.2497301  13.1860566
  82.4397373  72.2550011  32.2864556  83.3841228  72.4093485  32.2629285
  82.0934677  72.7781105  31.5634847  48.3352470  27.2612810  46.4380980
  48.5480356  27.5748444  45.5591011  47.5896931  27.7967715  46.7094564
  45.8596897  72.5360966   9.3241644  45.5457735  72.3431301  10.2075958
  45.1270914  72.3037720   8.7535870  23.3205938  26.2031484  68.7299395
  23.6006570  27.0315599  69.1192102  23.9432454  26.0498381  68.0192852
  14.0010643  36.8958712  50.1295805  13.7495005  37.3453403  49.3227816
  13.1782687  36.5550804  50.4804373  15.2176428   6.6381913   4.4929200
  15.6886744   5.8253348   4.3095484  15.9000194   7.3087573   4.5235038
  79.6644068  11.9213617  10.8000672  80.2443981  12.5287366  11.2593424
  79.9391317  11.9737709   9.8846388  37.6500654  49.2111683  66.6915369
  37.5753832  49.9423742  67.3047161  38.5826468  49.1705084  66.4797163
  13.2850885  76.8818569  61.0386038  13.1948495  76.3196898  60.2691555
  13.5925281  76.2948656  61.7293692  63.8728380  76.4408779  60.9503937
  64.4962311  75.7305384  61.1021471  64.1510820  77.1353674  61.5474701
  17.7726376  14.4198501  16.4528251  18.1342995  14.3139374  17.3327196
  17.1773970  15.1658130  16.5267217  48.5899019  73.2529497  32.4166059
  47.7023554  73.4882593  32.1461868  48.7153530  73.7084961  33.2490540
  75.8403826  46.1066246  14.8159885  76.2044477  45.3220415  14.4059658
  76.4483500  46.8060923  14.5765066  78.1570530   0.8814610  18.8094473
  78.7932444   0.9127585  19.5239520  77.9567814  -0.0490019  18.7076604
   5.6345266  25.3726888  17.9874551   5.1362181  25.1900959  18.7840605
   6.5057755  25.0173473  18.1632090   8.0578196   2.3318052  15.6966007
   8.4606749   2.8874242  16.3638532   8.6428481   2.4010274  14.9421585
   6.1897117  15.2836013  62.7776384   6.4041167  15.8432198  63.5240221
   5.2828288  15.0180018  62.9301262  67.9573107  14.7466671  25.7112098
  67.5540066  14.3054390  24.9636149  67.5029707  14.3890500  26.4740419
  22.9546928  46.1633015  67.9704094  22.5319409  45.8780718  68.7804461
  22.2437167  46.2045097  67.3308420  13.1656706  77.8234243  18.0874729
  13.3048511  78.7253571  17.7987242  13.0166674  77.8940916  19.0303600
  70.1840782  66.5090275  13.4400654  70.3476620  66.4484119  14.3812335
  70.7661867  65.8550406  13.0531776  51.0816479   4.4974592  62.2678947
  50.1435757   4.5527887  62.4500990  51.1699581   3.7351480  61.6957808
  33.1356597  17.1790123  40.7647991  33.9116693  16.9234931  41.2635469
  33.1682253  18.1354415  40.7444525  22.6806021  53.3244610  52.8373766
  23.4789586  53.2908344  53.3643770  21.9853854  53.5134840  53.4675932
  79.2595053  44.5017815  46.3508844  78.4610271  45.0056076  46.5084410
  79.5698214  44.8053217  45.4977751   2.9508147  46.7690706  68.8626862
   2.8626233  46.9051647  67.9193211   2.5656897  47.5527668  69.2547750
  50.9170389  17.2857165  50.8223438  51.2550163  16.4389217  51.1137962
  51.6111565  17.9081357  51.0392046   5.2925968  72.6035833  32.2307730
   4.5226857  72.9315567  31.7661190   5.1718140  72.8993654  33.1330800
  20.4767585  64.3779421  63.9136744  20.8678126  63.5866880  63.5432386
  20.3096581  64.1562414  64.8297310  62.0256662  10.5642903  12.7752018
  61.7992926  10.7910109  13.6771905  61.9046593   9.6158928  12.7290452
  36.1452055  30.6023622  29.9911714  36.8600225  30.6934094  29.3611073
  36.4274144  29.8968387  30.5732584  43.9669752  28.4060502  59.7587442
  43.5109425  27.9130721  59.0766668  44.8814440  28.4162021  59.4761181
   3.7142265  40.8932638  23.7115526   3.2481441  40.8723021  22.8757548
   4.0562209  40.0055313  23.8174057  13.0501962  55.9670544  56.6379213
  13.2391381  56.8122005  57.0456791  12.6547337  55.4467678  57.3373079
   0.3117209  10.2758932  12.3036659  -0.3195363   9.5733136  12.1483314
   1.1624478   9.8371607  12.3067403  26.7217541  71.8686247  21.5986633
  27.2338128  71.2191963  21.1167192  27.2712612  72.0989704  22.3478079
  59.1823006  53.9533949  34.4965291  59.6786213  53.7614632  33.7008786
  59.7866249  53.7505198  35.2105808   9.5744717  13.2961833   1.5920697
   8.6371583  13.4839344   1.6413204   9.9104494  13.5250843   2.4586466
  23.4261155  45.8023977  40.6847239  24.2364931  45.5567503  41.1310196
  22.7499676  45.7287788  41.3582516  47.1839666  56.7724514  11.3147211
  47.1269894  57.5733614  11.8358088  46.2899017  56.4308167  11.3020885
  83.2248688  73.8497400  43.7120581  82.3440742  73.6889791  44.0505743
  83.4146690  74.7549725  43.9585590  77.0197153  12.3545206  13.4458506
  77.8619576  12.7624941  13.6468983  76.4156485  13.0899787  13.3436990
  12.4697864  54.1681290  58.5688448  13.0731475  53.4682369  58.8185310
  11.8420899  54.2119026  59.2901754  32.8654099  25.3047061  66.5096760
  33.7740564  25.0803542  66.7103291  32.9252124  26.1121678  65.9991264
   2.6345825  33.9222407  62.3592377   2.2452509  33.0913973  62.0865631
   1.8865004  34.4729137  62.5902462  52.1540546  78.0869961   3.2845470
  52.9481173  78.5422325   3.5646379  51.6127396  78.7705660   2.8896496
  14.5775223  71.5738916  11.6448939  13.9619601  70.8586407  11.4844847
  14.3162894  72.2575903  11.0280156  21.5508437  34.7800422  52.8065252
  21.7383385  33.8413906  52.8094769  22.2102976  35.1578426  53.3884335
  61.5663671  57.3243284  11.4358270  61.8782043  56.9329691  10.6198454
  60.8796740  57.9326344  11.1626065   7.2793776  26.4748955  62.0276070
   7.4405658  25.5789351  61.7317867   6.3329208  26.5889764  61.9413710
  74.7032928  31.8862963  49.3341351  74.9121094  31.1136985  48.8090420
  74.3064594  31.5342665  50.1308966  40.5562878  78.1663704   4.6580309
  40.8005619  79.0604544   4.4189224  39.9443531  77.8942442   3.9741331
  33.6009383  68.7476683  22.0297909  33.2156515  69.6161842  22.1458220
  33.5265398  68.5761118  21.0910320  82.7934361  17.3950410   0.9342268
  83.5216808  16.9857931   0.4668827  83.2034492  17.8333127   1.6799060
  35.8846831  45.1685905  67.9374552  35.0561762  44.7160530  67.7792788
  36.2415695  44.7483206  68.7199116  33.6048651   5.6745696  52.4697399
  33.2317138   6.2183022  53.1635284  34.5084453   5.5208981  52.7457142
  60.0189877  46.1935663  47.1131945  60.5159855  46.7376709  47.7240753
  59.1371202  46.1613989  47.4840164  60.4297304  72.9333639  55.5531979
  60.3124714  73.5302734  54.8141575  60.0305939  73.3887243  56.2945271
  34.2958832  40.3540707  14.2129290  33.3746529  40.6137371  14.2247641
  34.6794510  40.8644724  13.4997678  78.7789154  46.7582464  28.3431125
  79.6924305  46.4723969  28.3460975  78.8012934  47.6276112  27.9431868
   5.4148579  20.3734183  59.0654087   5.9165704  20.2724552  58.2565069
   4.5166069  20.5270338  58.7725306  80.5197525  10.7528555  14.6629381
  80.3186798  10.3396988  13.8232338  80.1632309  10.1518154  15.3170621
  79.5327854  11.2185693  31.8575740  78.6822128  11.0481977  31.4529371
  79.7429228  12.1173346  31.6040111  30.8717346   9.8615080   1.4395653
  31.3914609   9.0688479   1.3061243  30.7344651   9.9014008   2.3860313
  10.0701523  39.3634033  39.9923348  10.4254889  38.8785934  39.2474008
  10.3339815  40.2701187  39.8358393  47.1632004  35.4254127  54.9116611
  46.9293308  35.1177621  55.7873821  46.3254833  35.5130577  54.4569349
   6.7793512  27.9824090  58.3921146   6.9959033  28.3920813  59.2296743
   5.8272833  28.0576229  58.3277607  50.5579424  20.9263039  56.3452244
  50.7221699  20.7811856  55.4134512  51.0784292  21.6996622  56.5625668
  56.9047403   7.3080564  41.1019135  57.7545595   7.6250279  41.4078045
  57.0966625   6.8707967  40.2723312  16.4671004  79.0522337  18.2750118
  17.3086715  79.4582748  18.4826720  16.2889016  78.4765911  19.0187240
  24.0588689  67.6837921  55.2600670  24.0092278  66.7990065  55.6218910
  24.3048263  67.5545263  54.3440819  12.6268017  50.0166178  56.6310167
  12.8002536  49.2034054  56.1568499  13.3597279  50.5882311  56.4022923
  20.6274152  51.6271305  52.0462513  21.3813400  52.0819378  52.4217272
  20.9422779  50.7386971  51.8795872  20.9438682  34.2016053  10.0901127
  21.0761666  33.4296918  10.6404591  19.9939263  34.2652321   9.9911416
  73.9208508  26.8494034  16.5946543  73.4303522  26.5536094  17.3615634
  73.2503366  27.1633625  15.9879625   8.1658894  14.2897356  11.1344707
   8.3301640  15.0419271  10.5657411   9.0000534  13.8208771  11.1584198
  80.4868412   6.8010843   3.4217921  81.2923717   6.2987775   3.2991728
  80.6812286   7.3915559   4.1496572  69.9554777  33.8977098  66.8365622
  69.8631859  33.6435676  67.7547836  69.3469238  34.6285343  66.7279911
   7.0958740  16.2969971  27.7048302   7.2956276  15.3746700  27.5446963
   6.9099444  16.3424635  28.6426973  43.1716442  63.1605577  47.6081467
  44.0533590  62.7904606  47.5652456  43.0794907  63.6548853  46.7936659
  75.0861406  31.4883280  38.4841204  75.0894451  31.3448262  37.5377440
  75.3547430  30.6476760  38.8547802  33.4202075  15.6792426  24.0711355
  33.1963801  16.4639878  23.5708261  32.6605654  15.5291891  24.6338606
  28.7126899  52.9915094  27.4921966  27.7676153  52.8682804  27.5809646
  29.0474653  52.1231699  27.2682714  20.8811259  25.3629136  16.5073931
  20.3418612  26.0982895  16.7983425  20.5372882  24.6092606  16.9869888
  40.6301451  68.1149197   7.1091115  39.6885681  68.0122662   7.2474247
  40.8329821  68.9770269   7.4722332  49.9002457  77.2819996  19.4147873
  49.7790575  77.3955441  20.3574705  49.0130997  77.1816874  19.0696180
  14.3244624  29.7148013  31.8535638  15.1072538  30.0079799  31.3871789
  13.6121356  29.8360634  31.2257767  53.0488777  23.6458755  22.5490355
  53.3429527  23.5709143  23.4568524  52.3416471  23.0053806  22.4727082
  80.9557819  21.1161208  20.6501818  80.5650806  21.5389466  19.8854566
  80.2561569  21.1088657  21.3034058  56.2373734  23.3785295  14.1779816
  55.7222939  23.4285402  14.9832284  56.0719013  22.4975872  13.8421404
  30.1243758  62.5534868   3.8770336  31.0364890  62.3493814   4.0834868
  30.0963116  63.5093737   3.8355732   6.6484207  63.8185835  15.8785772
   7.5086927  64.1111088  15.5775940   6.7177236  63.8133144  16.8332505
  40.7976341  42.2443342  27.2019792  40.7567883  41.3777637  26.7974782
  41.6384935  42.6022053  26.9171643  25.0177383  31.2662697  50.8369017
  25.3818369  31.4219713  51.7083502  24.2185426  31.7925596  50.8136988
  78.0396557  16.8359292  43.4277439  77.6793766  15.9496343  43.4579420
  78.8988256  16.7594910  43.8427305   2.4391563  17.9807949  20.7785010
   3.1052417  17.4181259  21.1734271   2.0755890  18.4740078  21.5138865
   8.4983742  10.7561171   4.8952574   7.8786933  11.4422691   4.6474215
   7.9699516  10.1178300   5.3744143  69.9664593   6.8734384  42.4516439
  70.0111198   7.3117995  43.3013916  69.9555016   5.9401298  42.6638889
  45.0285435  10.7491326  61.0671854  45.5961943  10.0158072  61.3043308
  44.9540806  11.2639654  61.8706989   7.4955904  53.0532598  61.6702986
   7.5320464  52.2540760  62.1958542   7.5823289  52.7498150  60.7666254
  17.2558212  38.7482572  34.7915030  17.0097971  39.5960546  34.4214463
  16.4222670  38.3055425  34.9509478  68.1884050   8.3068657  32.7727008
  67.4452686   8.3069551  32.1693969  67.8648996   7.8534043  33.5511279
  23.0871964  73.7647533  41.1757994  23.1586695  74.7093678  41.0386086
  23.6127234  73.3803844  40.4741526  59.9629211  74.6676826  24.6803951
  59.8854160  75.5170059  24.2458010  60.7888079  74.7193050  25.1615119
  75.0565720   6.3691562  19.5256364  74.9477673   7.1553224  18.9905322
  75.7768488   5.8946842  19.1105366  22.2361708  36.1434984  25.1624393
  21.8797946  35.7422233  24.3698454  22.9653072  36.6803789  24.8520374
  42.8553772  47.5420475  42.8601122  42.9124594  48.3516693  42.3526859
  41.9262838  47.4589634  43.0748463  21.9534469  40.5513620  59.0999222
  22.7861977  40.9119797  58.7954330  21.3052034  40.8921623  58.4835863
  14.8974931  28.2080770  55.1386023  15.4758584  27.5496721  55.5236101
  14.0143323  27.8878736  55.3222561  62.8994083  59.0084553  19.3585694
  63.7374973  59.1670084  18.9241707  62.3172426  59.6833277  19.0094817
  11.5437877  43.9731932  25.0026870  11.9500375  43.9812565  25.8693647
  10.8535421  43.3132362  25.0678468  56.3955593  64.3163776  14.5710218
  57.0840693  64.5677948  15.1866341  56.6912174  64.6595573  13.7277865
   5.1523697  56.8809605  17.6584840   5.7712317  57.5117397  17.2905684
   4.7732106  57.3301363  18.4139383  24.6047926   0.9393649  26.5684724
  25.1316500   1.7033201  26.8030477  25.1843882   0.1928977  26.7204189
  36.4676809  42.0500755  63.8915062  36.8878818  42.8739119  64.1383934
  37.0917225  41.6311121  63.2988214  70.7885790  17.0058239   7.9804176
  71.6647291  17.3254299   8.1959307  70.4704857  16.6125429   8.7930536
   1.6820081  12.9014575  27.2056985   1.8007752  13.3272815  26.3566995
   2.4975066  12.4211645  27.3489189  67.9538155  79.0770245  29.8603511
  68.8783646  79.0469599  30.1063967  67.9570198  79.3854618  28.9542127
  39.4268560  77.2912121  14.2530465  39.3184614  76.3525391  14.1001451
  40.3434420  77.3874950  14.5115566  57.5911188  20.7630968   4.8979864
  57.8488207  20.7248688   5.8190519  57.2942543  21.6639853   4.7695279
  64.8950863  44.6593332   7.0834082  65.6890059  44.1622639   6.8863147
  64.3119955  44.4819021   6.3453323  57.3242044  39.9905205   0.3218171
  57.4591303  40.8514166  -0.0742746  56.3751698  39.9204373   0.4250233
  16.2483048  27.4399233   7.9699236  16.7967427  27.6397514   7.2112954
  15.8718121  26.5819716   7.7739596  27.2594643  54.3909311   3.1206763
  27.0195413  55.1292896   2.5607657  26.5107489  54.2817354   3.7069619
  24.0332913  52.3854971  63.7820721  24.2892671  51.4648104  63.8372421
  24.4377899  52.6984835  62.9729652  72.9671097  76.9385862   3.8908562
  73.0867004  75.9965038   3.7708196  72.1122551  77.0195293   4.3138319
  10.3163517  36.6420269  67.2981930  10.1326406  37.2125769  66.5518999
  10.2665436  37.2200370  68.0595446  72.1796751  75.4990053  55.6676006
  73.0280924  75.3483105  55.2508163  72.3141050  76.2758493  56.2104416
   3.9638305   4.1663677  18.9918363   3.2374865   4.5062280  19.5144749
   4.3469256   4.9416408  18.5814440   8.5830337  16.6478992   9.7094828
   8.0934721  16.7828274  10.5208743   9.3453121  17.2209859   9.7915596
  74.1345835   9.0940982  24.7314525  73.7636280   8.9900565  25.6076956
  74.7783470   9.7961771  24.8257089   7.6536155  50.2714109  54.4276810
   8.5513991  49.9487877  54.3493891   7.3355770  49.8975754  55.2494669
  76.5421867  15.8833957  54.0798569  77.4889231  15.8455098  54.2158413
  76.2360191  14.9986076  54.2789602  47.5343370  12.5998867   1.1826707
  48.1363821  12.7455831   1.9124299  47.8777075  11.8236387   0.7402134
  72.3892641   9.3478584  29.8770785  72.5826216  10.0850606  30.4561949
  71.6891956   8.8706088  30.3224683  17.5204086  69.6975851  39.4330406
  17.0847988  68.9575768  39.0101171  17.2272110  70.4627514  38.9382744
  11.0857129  68.3946276  10.8103180  10.3386915  68.9741564  10.9597743
  10.6970131  67.5273371  10.6965232  21.3405728  43.0825710  55.4441071
  21.1136270  42.6306057  56.2567902  20.8592558  43.9088392  55.4871130
   9.3554968  29.7794867  60.4869747   9.5841926  29.3987775  61.3349056
  10.0337994  29.4617605  59.8909998  39.8187709  64.4996071  42.0466709
  40.5838776  64.4987154  42.6218605  39.8306704  63.6374903  41.6309261
  23.7368321  34.4873357  61.4775991  23.7199569  33.8696909  62.2086716
  23.3937287  35.3021455  61.8444777   3.4287152   1.7291610   2.2002409
   2.7100503   1.5988746   2.8189316   3.5108572   2.6798815   2.1253046
  70.8826780  13.0499899  39.0530396  71.2915230  12.2098148  39.2608428
  71.4373302  13.4233499  38.3680630  20.3381777  31.8979478  65.7553864
  19.4138634  31.9360900  66.0011864  20.3806281  31.2124419  65.0886726
  53.8243294  70.9057999  36.9015098  53.5672998  71.3888597  36.1161280
  53.1682825  70.2134800  36.9823027  76.6215563   3.7946361   6.4393061
  76.3629913   3.2880020   5.6694376  77.5124264   3.5015163   6.6307908
  80.5835152  40.1141882  50.8805799  81.3903236  39.9478054  51.3680363
  80.4825878  39.3479991  50.3157806  55.1326275  66.1804628   1.5190125
  55.5892801  65.9264278   2.3209903  55.6010389  66.9568634   1.2123645
   4.6030992  38.3036041  62.5037384   4.5497718  37.3655677  62.6867056
   5.1155984  38.3615899  61.6973782  24.6749067  37.4689078  63.4086323
  24.9755120  38.1605458  63.9981318  25.1854873  37.5969219  62.6091623
  -0.0499696  67.0814705  12.6336634  -0.2713793  67.5345373  13.4472609
   0.8861364  67.2433519  12.5164795  19.5287609  35.5759621  54.0406704
  19.9716198  35.4194856  54.8747110  20.2344179  35.5920768  53.3941221
  61.5145493  45.3695011  62.5386572  61.5630150  44.5327663  62.0763254
  62.1855068  45.9116173  62.1237469  19.4858479   1.3789167   1.7508699
  20.3317523   1.0621151   2.0675935  19.0863287   1.7979071   2.5131452
  18.1429410   8.4727186  68.6833954  18.7046170   8.0218178  68.0529690
  18.7423587   9.0229428  69.1875648  78.3366823  33.7311697  45.6632662
  77.3861504  33.6601281  45.7508659  78.5699892  33.0538201  45.0284433
  80.2879715  23.6163330  15.0702441  79.3844795  23.6327791  15.3859234
  80.2248287  23.2665229  14.1814947   0.3739396   8.7117940   6.4672565
   0.9739734   8.2924235   5.8505565   0.0142057   7.9885530   6.9808191
  75.1592731  39.0087080  37.8668094  75.0321436  39.9573660  37.8559518
  76.1036921  38.8924122  37.7629805  47.2679377  64.7185230  12.0705307
  46.7017746  64.2998409  12.7189136  47.7877808  64.0013170  11.7077446
  59.3169069  38.2576132  10.8488142  58.8900042  38.1679583  11.7008400
  59.6857214  37.3919058  10.6734335  25.1801181  72.4892759  63.0476189
  25.4118967  71.6753769  62.6003170  25.2227902  72.2713995  63.9787149
   6.9368953   3.5373276  57.4798155   6.9651067   3.9841768  58.3258438
   7.4080729   2.7171108  57.6263380  79.4824982  49.4721889   6.8153572
  78.8978100  50.2024984   6.6128343  80.0506687  49.4004488   6.0483688
   7.0112574  46.7713165  63.5208368   6.2844050  47.1392155  63.0182743
   6.6156048  46.4962673  64.3479013  36.8243408  16.1183739   6.3622934
  36.3056278  15.4057705   6.7356086  37.0697117  16.6559684   7.1152991
  21.0793042  53.1403828  55.1923180  20.3257608  53.7265110  55.1226282
  21.6804576  53.5924864  55.7843065  64.5403719   3.4950525  53.6626720
  63.7609577   3.0572793  54.0048695  64.5626640   4.3360093  54.1193199
  33.9497471  19.2211938  48.9230919  33.0561876  19.5418000  48.8006544
  34.1498542  18.7540543  48.1119347  66.4955044  77.0502567  13.0214787
  66.1696291  76.7430544  12.1755087  67.3441029  77.4456358  12.8220201
  61.9497824  20.1491594   8.4694636  62.1300364  20.8045840   7.7955490
  62.6771545  20.2332401   9.0859801  24.3485880  13.1795287  63.5355616
  24.5267463  13.9168108  62.9516888  24.9519062  12.4945593  63.2473660
   3.2741287  56.7502546  56.6053915   3.3558923  56.5900755  55.6652355
   3.3441025  57.7008295  56.6933727  78.9325285   1.2515379  39.7432041
  79.1357183   1.5801390  38.8674355  79.3275404   0.3800455  39.7696352
  60.6735039  19.1779768  63.8136148  60.7513809  19.1204560  64.7659063
  61.3646030  19.7868800  63.5531330  25.3548312  57.5550985  65.3517866
  24.4009209  57.5210142  65.2802038  25.6635046  57.5453949  64.4457769
  56.4650249  46.0862255  65.0608492  57.2308207  46.3808775  64.5679331
  56.7964315  45.3847647  65.6215239   2.6895827  56.9214439  16.5943182
   3.4762698  56.9463539  17.1390522   2.5837252  57.8211451  16.2851858
  79.5257092  54.4503403  64.8753786  78.8380051  54.8925066  64.3776083
  80.2063560  54.2628002  64.2290115  29.9774790  77.0222330  58.5725355
  30.2013683  76.2853622  59.1409779  29.2897081  76.6826582  57.9999208
  73.9958906  70.2083158  22.6156425  74.5857239  70.6606579  23.2187295
  74.5763159  69.7001934  22.0489407  33.1925583  75.7616663  27.6825523
  32.7478623  76.5867805  27.8766179  32.6476860  75.3475523  27.0133305
  49.9012375  68.6345625  36.9036222  49.8403120  68.2079554  36.0489106
  50.0891876  67.9217672  37.5142241  78.4110594  36.5859485  44.4088268
  78.1449795  35.6706572  44.3212175  79.1385937  36.5654230  45.0305223
   6.3240224  71.8061781  20.6309366   5.4347354  71.5548182  20.3815031
   6.6523027  71.0595989  21.1320210  12.6881540  26.1127162  55.3717566
  11.9507706  25.9898758  54.7739220  12.7414620  25.2902293  55.8584881
  37.7828479  78.1858110   8.1121963  37.2067571  78.3525181   7.3661685
  37.9702711  79.0541029   8.4688044  33.6427712  64.2598104  18.7107635
  32.8349328  64.5563841  19.1298985  34.2744422  64.9567890  18.8880837
  81.9755554  35.2201009  23.8181162  81.1455536  34.9306417  23.4392405
  82.3688889  34.4220853  24.1712236   1.3857967  16.8946505  66.5153217
   1.7971832  16.1073196  66.1588049   0.7785514  16.5679312  67.1792030
  65.8568764  68.8230085  66.7233324  66.7430401  69.1783237  66.6548491
  65.6860447  68.7852144  67.6644087   1.5968108  76.5348196   5.2259499
   1.1035419  75.8334684   4.8004836   2.3749377  76.1016130   5.5767792
  61.7718029  57.3031330  54.6761751  61.0319996  57.8111362  55.0091267
  62.0105314  57.7365351  53.8567829  17.8755760  49.1833019  55.7420206
  18.5450065  48.9558411  56.3872766  17.8334212  50.1392365  55.7674313
  53.3589363  28.0630112  22.0740032  53.5902071  27.1400547  22.1783757
  53.1730413  28.3653593  22.9629707  41.2172985  19.9371469   3.4482634
  41.5341854  19.2256403   2.8918734  41.3515711  20.7278013   2.9257041
  16.6964197   7.2289139  16.8792963  17.3171508   7.9575467  16.8749106
  16.2100029   7.3335749  17.6970232  55.3117323  27.0634913  16.3711274
  56.0271358  27.5040126  16.8297887  54.5442820  27.6085448  16.5448225
  10.1105225  31.3023376   3.0314666  10.1320350  30.4738760   3.5104468
   9.1872293  31.5548468   3.0310446  83.0464268  55.7298660  28.4272170
  83.8423920  55.2850771  28.1359577  83.2339668  55.9904242  29.3289757
  12.4782693  15.2089810  22.4308085  13.0808032  14.9192166  23.1158066
  12.8028297  14.7903419  21.6335416   6.6495717  17.6463306  19.8307669
   7.3395067  18.2170415  19.4923723   6.3082886  18.1104541  20.5951929
  65.0047112  24.3243837   2.2044012  65.3467464  23.5011339   1.8558256
  65.4822540  25.0031853   1.7275220  38.8890648  12.6472783  61.6124058
  39.0614724  12.5497019  62.5488806  39.7418165  12.8590488  61.2326670
  55.6581593   4.7075054  20.3659296  56.4699364   4.4622493  19.9219692
  55.5117416   4.0069860  21.0015917  30.1571131  78.6807203   9.7238868
  30.5717158  78.1943750  10.4364920  29.6862149  79.3905067  10.1605630
  19.3740368   5.6207955  30.6089973  19.6796095   6.3495064  30.0687766
  18.4253120   5.6101269  30.4823494  32.9116654  25.7440424  22.6591682
  32.1438479  26.2489295  22.9270792  32.7635145  24.8713565  23.0234504
  39.0305161  20.5746031  31.8092179  39.7233796  19.9470270  32.0149374
  38.6075044  20.2169991  31.0285711  54.6498775  25.8695817  64.8996830
  55.1221752  25.1094866  65.2394199  54.1669607  25.5336356  64.1445875
   6.8530726  34.1133714  47.8958368   6.1529583  34.0692663  48.5470867
   7.1217823  33.2031775  47.7710342  12.0448124  19.2859018  34.2824936
  11.0955477  19.3966520  34.2289877  12.2883821  19.7028172  35.1089835
  42.5192642   4.4194257  21.2044430  43.0451488   5.0161552  21.7369771
  41.7114830   4.9025312  21.0302830   8.1972492  32.6435971   8.2563585
   8.6197114  33.0782890   8.9971703   8.7312764  32.8862762   7.4999499
   1.2729730  18.3435321   8.0860943   1.3647614  17.4734426   7.6978296
   1.0090960  18.9046013   7.3568469   0.9442973  13.3391523  57.9701853
   1.1367953  13.9459372  57.2553492   0.8839884  12.4824691  57.5474739
  12.0358860  52.9475117  56.1409140  12.2255063  53.2317829  57.0350409
  11.8999052  52.0028210  56.2136889  24.3340969  77.2024488   4.2581362
  23.7679577  76.6018915   3.7733161  24.0771055  77.0878649   5.1730454
  60.3548717  70.5569744  33.1791496  61.1561394  70.7968616  32.7136850
  60.4833794  70.8930969  34.0661335  80.1440430  42.3224640  25.7919002
  79.5233250  42.1302557  26.4947462  80.9073639  42.6873350  26.2396169
  28.8794208   3.9212105   8.5285461  28.0923271   3.3765006   8.5316056
  28.5510302   4.8170429   8.6051995  77.8060246  19.1480052  40.3344345
  76.9693565  19.5636451  40.1259565  77.8231525  19.1105640  41.2907457
  23.0128551  18.3228397  64.8800945  22.0570469  18.2909608  64.8395109
  23.2475519  19.1077840  64.3851042  73.8725519   4.6996126  41.9323015
  73.7037230   3.8122562  42.2490454  74.0033531   5.2167851  42.7270699
   1.5241553  12.3701644  10.3039527   2.4097720  12.7222455  10.3931379
   1.3535461  11.9363785  11.1399877  70.0554800  69.9976110  24.9610519
  69.1805601  70.0693417  24.5794725  70.4389191  69.2292070  24.5382404
  56.6451550  14.7129035  12.1055722  57.3747921  14.6978903  11.4861882
  57.0386934  14.4749975  12.9450715  51.7475748  75.9442568  42.5320101
  52.2206926  76.2573576  43.3029604  52.4088573  75.4828835  42.0161915
  31.3263535  26.1449862  34.8039675  31.6550922  26.6174436  35.5687857
  30.9086561  25.3636932  35.1663828  60.4389811  35.8395958  10.6204450
  59.9125433  35.0426769  10.6838429  61.2675142  35.6135893  11.0431576
  28.7068272  11.1637211  -0.0051039  29.5408773  10.7574868   0.2306187
  28.3918619  11.5543926   0.8100063   4.7992429  63.9247465   3.3743078
   3.8446194  63.8978386   3.3094850   5.0694656  63.0086088   3.3118087
  20.4260111  39.9137712  15.1492512  19.9023926  39.9263430  15.9504354
  20.4727530  38.9886093  14.9081647  50.9085941   8.9770865   1.9160029
  51.2531567   9.7192895   1.4193721  50.0089550   9.2269331   2.1268530
  76.6606426  35.7931566   0.4112310  76.9901085  35.4168177  -0.4048898
  75.7864428  35.4167438   0.5128132   7.6605541  45.9897947   8.9768744
   6.9588959  46.6332102   9.0764946   7.3999923  45.2619410   9.5412898
  69.0230274  18.3346069  32.1930933  69.8875475  18.5379148  32.5501704
  69.2042923  17.8420007  31.3926482   3.8783720  16.1048353  22.4791050
   4.3961072  15.5594897  21.8868375   4.4028592  16.1552835  23.2782292
  62.4484921  49.5982218  67.6550245  62.5315142  49.6382999  66.7022753
  63.3458996  49.6817732  67.9773712   2.2709735  47.9363203  38.7169671
   1.7146584  48.6716270  38.4599280   1.8470658  47.1692610  38.3320594
   5.9918183   3.7924317   0.6783111   6.6584766   3.1133568   0.7815372
   6.3784474   4.5706239   1.0797668  60.0217581  75.0896645  10.0870776
  59.0791035  75.1918173   9.9559098  60.3600931  74.8571825   9.2223746
  19.5330584  35.9968972  16.2532556  20.0502014  36.2637520  15.4932654
  19.6893322  35.0557280  16.3307846  19.6342087  34.6091294  47.4186468
  19.8358858  33.6989307  47.2016239  20.0257254  34.7419143  48.2819605
   7.0434546  52.6766300  16.1937654   6.1244214  52.5661182  15.9500504
   7.0241618  53.2881069  16.9299400  16.8712747  45.6136227  66.7371464
  16.6333199  44.7942877  66.3032103  17.4325967  45.3451777  67.4645281
  46.8980169   1.6405843   5.1710916  47.7758551   1.9808567   5.3438413
  46.7383242   1.8464108   4.2500237  11.7886508  15.8361053   1.5094061
  12.3263621  15.1333702   1.8744573  11.9206226  15.7719648   0.5635196
  67.1103954   2.2448330  53.7376785  66.1667633   2.4010922  53.7746859
  67.4459028   2.9382843  53.1695318  76.1094427  11.3775456  24.8906827
  75.8693457  11.5990674  25.7904124  76.9888735  11.0063875  24.9619365
  55.3018665   4.4568920  62.9384756  54.6058846   4.9572259  62.5124359
  56.0610867   4.5674035  62.3661089  33.2605982  61.5818357  64.3319082
  32.6746869  62.1342516  64.8493814  33.1634998  60.7084227  64.7113132
  15.1999056  36.9193196  58.1687403  14.5793283  36.1986566  58.0603027
  15.0138533  37.5077510  57.4370527   9.5624280  37.8596306  24.0533638
  10.5076265  37.9888010  23.9749670   9.3024397  37.4782705  23.2147908
  69.2280149  42.0930624  24.4208503  69.5962238  42.7534676  25.0078082
  68.3013391  42.0525169  24.6571946  31.9964004   6.3064051  56.4262867
  32.0275283   6.3507205  57.3819542  32.2358680   5.4027808  56.2204933
  11.5002537  37.8544712  18.7360179  12.2138011  38.3503842  18.3345819
  11.1142075  38.4599710  19.3689263  26.4899969  52.8503990   8.7951499
  26.2542486  51.9800568   8.4739608  25.6696129  53.2124710   9.1299671
   1.6680703  26.1990523  55.3224897   2.3010638  26.6948891  54.8031664
   2.0469469  25.3225398  55.3888845   0.9660988  30.8087778  18.8788939
   1.0182798  30.2801275  18.0826294   1.5363860  31.5580249  18.7067509
  73.1652117  16.5978086  51.9813585  73.2863712  16.8441999  52.8983355
  73.3499575  15.6588674  51.9592237  80.3604507  41.9915867  44.8468304
  80.2823067  41.3752937  44.1186094  79.5170069  42.4435902  44.8696375
  68.5540295  37.6097012   3.3320844  68.6206245  37.9468393   4.2254686
  67.6128960  37.5557709   3.1659707   0.9129353  10.5753303  25.0063252
   0.8392702  11.4654517  25.3505468   0.1513860  10.1172411  25.3618932
   3.0022573  71.3304043  23.9932036   2.4792106  72.1235514  23.8767004
   3.3098835  71.1148930  23.1127739  77.9273653  71.2633419  23.7874556
  78.7273312  71.6242123  23.4052753  78.2308531  70.5502033  24.3492031
  11.3406920  17.2379386  16.3086879  11.6096866  17.2655594  15.3904772
  10.7021952  17.9461110  16.3926220  69.6975946  44.8787642  65.6300211
  69.9635124  45.4770660  66.3282681  70.4456663  44.2918682  65.5196810
  37.8764534  19.3289542   2.1745865  38.7008166  19.6370375   2.5510705
  38.0095696  19.3849397   1.2283427   4.8852763   1.2825526  23.7325120
   4.7017455   1.0698949  22.8174591   4.3730196   0.6477252  24.2333317
  55.1773882  48.8854074  49.9598312  54.7376776  49.0089417  50.8010387
  56.1039782  48.7998199  50.1841974  57.8048038  41.7066288  66.2917423
  57.6264191  41.3876724  67.1764326  57.5082207  41.0001040  65.7180786
   6.0659951  12.3416340  15.3637528   6.2798572  11.5517223  15.8602738
   6.3517147  13.0622149  15.9253216  39.9110770  41.4095831  68.6679316
  40.6663370  41.9215202  68.9573002  40.2234793  40.9369850  67.8963852
  18.6355209   1.5822583  30.8240414  17.6784968   1.5772754  30.8063745
  18.8900375   1.8449615  29.9394846  84.0264034  42.9898834  10.5003011
  83.5560131  43.0213833   9.6672523  83.3604908  42.7434063  11.1422050
  25.3567147  19.3649054  21.0416031  25.2155375  19.2073882  20.1080680
  24.6728754  18.8555670  21.4765429   2.5631949  60.1130295  62.4073505
   1.6857049  59.9973822  62.7718639   2.8301361  59.2329979  62.1417999
  71.4822149  61.5216732  63.6861515  72.2728300  61.2470675  63.2216692
  70.7623386  61.1708498  63.1618118  14.4938743   7.1139944   0.3582313
  13.7466586   6.5839928   0.0807471  14.1405690   7.6894897   1.0366207
  23.6921120  71.0208559  68.0772543  22.7879977  71.2604284  68.2807636
  23.8055563  70.1564121  68.4723473  12.3928702  45.5782080  65.8584738
  13.1370354  46.1796808  65.8846045  11.6320539  46.1440563  65.7272911
  22.3993087  10.2017617  34.6519709  22.8071690  10.6303287  33.8994980
  23.0951834  10.1557362  35.3076172  67.7020741  20.2602053  35.2481318
  67.1259642  20.0686979  34.5080948  68.5319996  20.5160427  34.8456383
  74.4572115  44.0875673  30.4545331  74.2291689  43.4344006  29.7930169
  75.1293898  44.6264172  30.0373340  49.2313528  63.7674665  67.7331734
  49.9555540  64.1777039  68.2059050  48.4676218  64.2995119  67.9565001
   6.2992376   3.5652068  29.7241378   7.2238761   3.7426782  29.5515680
   6.2135333   3.6437741  30.6742501  72.3672390  29.8725963  16.6936839
  72.8788328  29.3800879  16.0518563  71.5234470  30.0188637  16.2660718
  20.1126337  26.1755037  20.3613639  19.1576624  26.1118817  20.3466606
  20.3440142  26.5065098  19.4935334  51.6956663  58.9865923  30.0818372
  52.1178198  59.8095226  29.8352599  52.3223639  58.3098364  29.8259330
  67.1632481  18.9996123   1.2099995  66.2139177  18.9102209   1.1262622
  67.4284124  18.2495904   1.7423391  24.7066879  33.1184697  25.8816051
  24.9966502  32.5686288  26.6094995  25.0144649  33.9963269  26.1071563
  80.2619648   1.8327427  55.1840305  79.3161583   1.9110841  55.3087473
  80.5844975   2.7329707  55.2263212  46.8305540  36.3086176   5.3883028
  46.2199402  35.5816126   5.2664524  47.4408627  36.2343335   4.6546552
  24.9556947  16.0120463  39.3678737  24.4793177  15.1818359  39.3745732
  24.2726135  16.6805696  39.4199133  56.7712545  61.3278103  54.1899109
  56.4987278  61.7597866  54.9994516  57.7262259  61.3930130  54.1934061
  57.2937250  66.6421938  63.7739325  56.4489555  67.0261812  63.5390949
  57.9193830  67.3594475  63.6723232   3.6765292   7.4184412  47.5097322
   4.5087481   6.9804329  47.3314285   3.1339318   6.7443532  47.9189110
  38.7545705  66.8098211  50.9885836  38.3348441  66.3416576  51.7103100
  39.5630002  66.3238335  50.8258343  64.7849083  57.9958344  61.0672903
  63.8481951  57.8098774  61.0022974  64.9011421  58.3327055  61.9556808
  15.5944598  40.0589132  22.7406144  15.2354705  39.9115038  23.6156154
  15.2458763  39.3393445  22.2143626   4.8951888  17.9033458  15.5163372
   4.3070802  18.0487692  14.7752488   5.3920197  17.1207142  15.2778459
  33.9904547   5.4603249   3.2749489  34.3973374   5.0890261   4.0577739
  34.2435098   4.8659283   2.5686300   5.3393078   0.8581138  44.8610640
   5.9595305   0.1290721  44.8537159   5.7351780   1.5151337  44.2884874
  15.4773784  41.3177967  43.7836647  15.6781352  41.6573334  44.6558094
  16.2997580  40.9321880  43.4816170  14.4166434  13.5267866   4.9267185
  15.0155020  13.8295722   4.2441344  13.5442960  13.6553550   4.5542768
  48.5184813  59.0461969  57.3753977  47.9833031  59.7179317  56.9528008
  49.0645742  59.5298624  57.9951382  18.9236474  55.0864601  42.0775890
  19.4413304  54.6575165  41.3962364  18.3699703  55.7065201  41.6030359
  36.4567614  74.0403271  52.0280266  36.9085217  73.2375383  51.7678976
  35.8754206  74.2368078  51.2934017  31.6650343  19.6926129   6.8914509
  32.4219298  19.4996333   6.3381869  31.8948841  20.5087876   7.3355913
  18.8010049  33.5656881  27.9339910  19.5167303  33.8883138  27.3863745
  19.2338419  33.0508685  28.6150503  55.7875252  78.9440203  52.0984936
  55.7595778  79.7818232  52.5605965  56.3775826  78.4014845  52.6216745
  64.8931360  72.0046282  48.6124611  64.7240734  72.6602793  49.2890501
  64.7168350  72.4594021  47.7888536  30.1550460  76.9781637  49.5883989
  30.1453805  77.7254772  48.9903498  29.2541528  76.6547680  49.5821953
  24.0672278  49.1183996   2.6652628  23.7828636  48.2362843   2.4260126
  24.4104934  49.4882536   1.8518688  52.4901819  36.4547467  16.8292975
  52.2352076  35.5579233  16.6126704  53.2222080  36.3552427  17.4379599
  55.1281214  25.0587010  11.6720366  55.9711170  25.2956772  12.0586050
  54.9707460  24.1631603  11.9711530  53.3525038  17.4793303  67.0482540
  53.5482883  17.9093099  67.8807306  53.0559063  16.6033483  67.2950649
  23.9531088  12.3566437  48.2373476  24.2311597  13.0496550  48.8362265
  24.2516971  12.6499403  47.3765039  24.1306615  51.5389633  25.8997607
  24.5332217  51.3495827  25.0522280  23.3158755  51.0366249  25.8955050
   7.7671486  55.2355099   3.1534263   8.1542718  54.4254351   2.8215393
   7.2671032  54.9641752   3.9232087  48.4996557   7.4433565   5.6609637
  49.2161989   6.9630826   5.2460754  48.2653570   6.9131380   6.4226753
   8.7514079  25.3534675  23.2953835   8.1886321  25.6087828  22.5644064
   9.1279685  26.1766124  23.6066175  35.2086759  15.7859933  61.9113207
  34.2799139  15.6144965  62.0669556  35.2913880  16.7371416  61.9799280
  65.3857422  75.5067492  45.9991121  65.8293962  76.1511040  45.4475641
  65.8080149  74.6753263  45.7831192  17.7915847  36.2200117   4.1503638
  18.5940921  35.8145285   4.4786879  18.0380046  37.1272349   3.9702055
  27.5011683  79.4698906  54.3744469  27.9123449  79.1281891  55.1684284
  27.0721745  78.7100887  53.9808702   6.4339441  12.9991591  32.3988438
   5.6032783  12.5283515  32.4664211   6.3960522  13.6531401  33.0967712
  29.5171356   7.2386807  23.7228775  30.0207472   6.7440712  24.3693805
  30.1368642   7.4046987  23.0125189  59.5604229  31.1975336  17.6745439
  59.8113728  31.0596371  16.7611766  58.6833811  31.5780354  17.6271331
  65.7900572  36.6170120  67.8509903  65.7684946  36.2194991  68.7214804
  64.9118614  36.9783711  67.7308846  11.9812012  52.3814297  34.7995329
  11.1560810  52.1625614  35.2325535  11.7998755  53.2004833  34.3385553
  44.7586918  22.6375294   0.8713184  44.2121410  22.6048326   1.6564570
  45.1605272  21.7701054   0.8229204  72.4421740  50.4719067  27.9855275
  72.4902201  49.8190451  28.6838794  73.3532858  50.7161713  27.8229094
  24.6207857  58.5807419  24.2649937  24.1442418  59.3348169  23.9178467
  24.9057102  58.0992317  23.4883356  34.8490095  21.9083619  12.9357207
  34.0803051  22.3027730  12.5236988  34.8888755  22.3109984  13.8032031
  17.3429823  38.8786960  25.6196308  17.0848489  38.6056066  26.4999819
  16.5151703  39.0165019  25.1592302  65.0118828  67.2273970  49.5211744
  64.1038418  67.4532223  49.3194389  65.1847601  67.6560926  50.3593636
  32.2217274  34.6339536  61.1908150  32.9453135  34.1906977  60.7478905
  32.1566725  35.4825997  60.7528639  61.8214703  24.8419952  62.3881388
  61.9973087  25.3841949  61.6191578  61.3094664  25.4065418  62.9672527
  42.9940653  64.9056768  49.5232201  42.1514702  64.8536587  49.9743986
  42.9842520  64.1692305  48.9118433  81.4882755  15.8517456  59.7398758
  82.1184921  15.1335490  59.7968674  81.3879204  16.0083973  58.8009310
  62.3603153  78.3102989  50.0200653  62.1804571  79.0651035  49.4595718
  63.1920481  78.5201550  50.4448175  13.6782539  15.9395826   9.8475683
  14.2798221  16.6836834   9.8218322  14.1068292  15.3048563  10.4217446
  31.6074419  15.3112662  21.5862322  32.4102163  15.0897861  22.0581794
  31.1766124  15.9630811  22.1391821  40.3873301  65.5762625  57.2226191
  40.6515598  66.4938354  57.2894907  41.1912823  65.0830126  57.3856878
  80.1577377   4.2677304  58.3227968  79.2683506   4.5033234  58.5868502
  80.4557610   3.6605480  59.0001011  59.5824146  65.4471636  57.7124882
  58.8463354  65.4656935  58.3241034  59.2815924  64.8929071  56.9923925
   5.8086973  65.6693554   5.1730126   5.4783213  64.9692726   4.6100110
   5.2301949  65.6566334   5.9355116  12.0215619  22.9691267  54.4152021
  12.0639229  23.5526609  55.1727819  12.2363019  22.1049023  54.7662497
  31.5685463   6.0764623   4.3289158  31.6845870   5.5140018   5.0946862
  32.3042512   5.8573532   3.7571090  48.9991522  61.6937685  54.8929262
  49.2356968  62.4802113  55.3846455  49.6917439  61.0656929  55.0980377
  12.7482760  63.4303379  50.8021450  12.4660528  62.5166845  50.7594824
  13.0028427  63.5599709  51.7157221  31.8121576  69.8349094   0.2346076
  31.6628265  70.4889870  -0.4481198  32.5672936  70.1650000   0.7214771
   0.7013308  34.3737388  20.1211214   0.7711834  33.7696195  20.8603072
  -0.0089744  34.0178490  19.5872307  36.4731789  10.3968084  20.7801771
  37.1129036   9.6983749  20.9186411  35.6802845  10.0853527  21.2166953
  71.8653917   7.0143753  68.1715679  72.4628639   6.6196704  67.5363779
  71.0096121   6.6420031  67.9589272  55.1988125  61.0474110  57.8778458
  55.4767799  60.3030825  57.3440456  54.8561907  61.6801691  57.2466087
  64.4170761   3.5417619  66.7932415  64.4730425   3.9652893  67.6498175
  63.5995960   3.8684911  66.4174557  34.8008037  49.1104221  15.3564262
  35.3187227  49.0894651  16.1611319  35.4429770  49.2576838  14.6620488
  81.5629482  58.1222916  46.8673992  81.8945408  58.2900429  45.9852791
  81.4053059  57.1784019  46.8885422   9.2711949  22.8386998  20.9308863
   8.9356685  23.6313272  20.5120850   8.4905332  22.3921442  21.2585878
  63.6622667  69.4827032  61.1927652  63.4265423  70.3790665  60.9535885
  64.3311930  69.5835495  61.8699646  15.3205466  50.9880590  13.7651718
  15.5187988  50.1213741  14.1198325  14.4261134  51.1667824  14.0554798
  26.5765905  36.0675263  10.1595616  26.4615798  37.0133781  10.2510631
  26.5138268  35.7310343  11.0534656  69.0704632  76.7279673   1.1860748
  68.3115530  76.4065123   0.6992931  68.9637518  77.6791573   1.1952744
  84.0629005   9.5565641  66.5876722  84.4470406   9.2038137  65.7850313
  83.4223080  10.1997519  66.2840509  44.3691063  70.0999880  26.9295907
  44.1476822  69.9209595  27.8434563  44.4867325  71.0492373  26.8931842
  69.2392349  29.2218709   2.0117329  69.1562796  29.6942854   1.1833763
  70.0892067  28.7854075   1.9544627  34.3375492   8.7602592   2.6938033
  34.8802042   8.6979336   1.9077551  33.5169959   8.3301610   2.4530919
  66.6404915  16.8234086  56.3000870  67.4401331  17.0029879  55.8055639
  65.9519148  16.7849720  55.6362963  21.4103818   2.7063698  13.7231874
  21.2223506   3.3675820  13.0570984  22.3656821   2.6485962  13.7403548
  30.8322453  57.0506716  16.3139975  30.7640958  56.2234688  15.8372116
  31.6381526  57.4501276  15.9866130  51.6487837  28.3705091  52.7241993
  50.7233620  28.6115265  52.6825237  52.1171427  29.1910887  52.5708246
  38.1296754  44.7109652   3.6350930  38.8473558  44.2714119   4.0911219
  38.3703423  45.6373453   3.6465198  73.9897680   6.6179675  53.3676720
  73.4654045   6.2209553  52.6722240  74.4181919   7.3641765  52.9483175
  11.6039479  63.7823772  62.1123743  12.1621823  64.4314623  61.6842461
  12.0719743  62.9545832  62.0031023  65.3908968   6.6520470  61.4925432
  65.3256893   7.3727900  60.8660364  64.6137714   6.1186731  61.3257647
  17.5269055  73.0146170  39.8166585  18.2797325  73.4249306  40.2422476
  17.3907983  72.2013617  40.3027868  22.7351213   3.3904833   7.5783724
  22.6427174   2.4442196   7.4675667  21.9400287   3.7558433   7.1903378
   7.0832568   6.7392379  34.7724700   6.2025511   7.0926744  34.8976612
   7.4065924   7.1754897  33.9841986  12.0328283  55.8455467   3.4473765
  11.8928075  54.9010849   3.5152978  11.9816649  56.0284042   2.5091988
  21.9020033  42.1136951   5.6277591  22.6157165  42.5143576   6.1240566
  22.3350811  41.6828394   4.8908460  24.5538688  71.7407131  65.7061768
  24.2975640  71.4506626  66.5816212  25.5062580  71.6459465  65.6917286
  69.0558386  38.4630537  46.2260675  69.5513725  38.9023328  45.5349016
  68.7679720  39.1715860  46.8016958  16.0610139  19.5658135  18.8474298
  15.1721060  19.4054544  19.1642225  16.1088502  20.5156207  18.7387490
  83.7649536  32.9400396   7.7042931  84.3044567  33.3593798   8.3746123
  84.3918324  32.4826765   7.1438634  19.2319548  41.8707323  35.9474754
  18.9570940  41.7343855  36.8541694  18.4816396  41.5880346  35.4246545
  76.5767956  31.1856890  68.6945009  76.8476582  30.9358120  67.8110838
  76.2566042  30.3728914  69.0857458  10.2131319  53.9033699  60.1294184
  10.1137853  54.8232031  59.8839235   9.4154310  53.4824324  59.8089218
  76.3543701  60.5033398   7.9133826  76.2075424  59.7226954   8.4474921
  75.5631828  61.0284042   8.0340618   5.0143021  27.3084903   8.4627825
   4.4928396  27.6601124   7.7412069   5.9139651  27.3203778   8.1361359
  13.5786200  50.9648609  10.1058185  14.3208420  50.3730249   9.9830544
  12.8284645  50.4839897   9.7561598  17.5082076   5.8496100  12.9138851
  16.7836583   6.2951285  13.3529449  18.2876647   6.1299044  13.3935869
  68.4596539  12.2073686   3.2707018  67.7103186  12.0577097   3.8471806
  68.7245846  11.3314462   2.9899848  75.0229836  56.6653109  54.0109444
  74.9283981  57.6067448  54.1557980  75.1214123  56.5775490  53.0628729
  15.1425588  70.7429123  33.4201837  15.9546256  70.2501345  33.3020782
  14.5553982  70.4022980  32.7453089   9.3441260  69.1264009   5.6810457
   9.0534163  69.3994379   6.5512013   9.0185636  68.2309055   5.5897951
  17.4092615  35.1948237  59.0677738  17.0749843  35.9812379  58.6364460
  16.8459904  34.4893432  58.7495661  15.6261945  32.5877309  10.4808974
  15.6158960  32.2088075  11.3598418  15.5917382  31.8323517   9.8940039
   4.7482789  39.4338012  43.5058308   4.9013782  38.7758684  44.1840029
   3.9498168  39.8827434  43.7835741   7.9194027   8.0347723  39.4014215
   8.0081534   8.4423053  38.5398698   7.3574537   8.6337835  39.8929811
  69.2574310   5.6703305  48.8702917  68.8245821   5.4198629  48.0541134
  69.7332859   4.8847699  49.1398954  26.5276718   8.9723802  20.5842543
  27.1609092   9.2886496  21.2286282  26.9340420   9.1584307  19.7378027
  77.2200966  76.8265486  35.2168226  77.1530342  76.7149734  34.2685175
  77.0328188  75.9584427  35.5739641  62.1352243  14.8277771  60.1404905
  63.0868340  14.7636878  60.2214766  61.9632626  15.7670188  60.0734997
   2.2178289   2.9949152  68.7627554   1.2659693   3.0932528  68.7398481
   2.5435063   3.6799508  68.1788969  62.8385639  18.4515858  36.8790889
  62.2604132  17.7915156  37.2615576  62.6436567  19.2520308  37.3664618
  10.2336621  11.4254212  21.0007715  10.8349359  10.6815886  21.0383916
  10.3013575  11.7428160  20.1002669  33.3306885  67.4400711  67.1661901
  32.5991297  66.8260765  67.1024847  33.2205772  68.0226278  66.4146996
  59.6410799  11.9012356  48.9999580  60.2554369  11.9686830  49.7308826
  59.9187422  12.5845516  48.3898640  17.9938793  75.6562996  57.6760387
  17.9269660  76.3236475  56.9931030  17.2097874  75.1189375  57.5634670
  36.3631058  20.0171518   4.3016094  36.7043066  19.6263659   3.4971833
  37.0270872  20.6575084   4.5571572  42.2359371  38.2514691  23.5945082
  42.3805428  37.6511455  24.3258977  42.2096491  37.6863408  22.8223896
  18.3714199  33.1502724  -0.1510214  18.6135852  33.7256908   0.5745699
  18.5916507  32.2710657   0.1567522  51.8271303   5.0050408  11.4592290
  52.4081087   4.8763919  10.7094657  50.9560490   4.7875336  11.1273456
  22.0272565   4.5831892  35.0972819  21.7378354   5.4590416  35.3529191
  21.8412781   4.0370470  35.8610702  64.6872330   6.2119824  54.7381401
  63.9245510   6.7163974  54.4550896  64.7162151   6.3338059  55.6871128
  58.1014252  58.7890816  38.7475705  57.5529099  58.8538742  37.9657984
  57.4808931  58.7911844  39.4763851   3.8818556  37.3766446  20.8748436
   4.2019004  37.6511717  20.0155210   2.9420421  37.2451305  20.7495999
  67.7073431  45.7577944  58.8613510  67.5805378  46.0708380  59.7569847
  67.9744530  46.5354872  58.3713722  70.8311749  25.5147839  30.7258749
  70.4658079  24.7645020  30.2570319  71.7755842  25.4487252  30.5846000
  64.4604015  73.3104658  13.8950217  63.9435530  73.9896107  13.4615970
  63.8168478  72.7899313  14.3757641  38.9105916  68.7979984  31.7106700
  38.5436559  68.5778761  30.8544374  39.1501856  69.7218895  31.6382289
   7.4904549  56.3425827  13.7896895   6.6078317  56.1087942  13.5023713
   8.0474532  56.1460829  13.0364478  64.4473553   2.6399049  47.8168106
  65.3980398   2.5285736  47.8230476  64.1034317   1.7747706  48.0392694
  79.5531225   4.9135426  40.0245523  78.6363363   4.6992186  40.1971817
  79.8878956   5.2277374  40.8644533  13.0873108  36.1646461   1.0675853
  13.9186871  35.8057952   0.7573061  12.4702704  35.9879875   0.3574552
  34.1186380   2.3952764  28.2914710  33.2748508   2.8374362  28.1979394
  33.9736915   1.5227538  27.9255128  66.7166805   2.7235180  35.8410358
  65.9723043   3.0673912  35.3471851  67.4442148   2.7386424  35.2191877
   1.4292985  44.3836498   4.5001683   0.6554374  43.9268875   4.1704139
   1.5780120  45.0885916   3.8699546  13.3457685  55.5896521  65.0620413
  13.4725142  56.1822081  64.3210649  13.9992261  54.9021339  64.9334145
  66.4279556  70.6101084  52.0508432  66.9630480  70.2750492  52.7703190
  66.8037176  71.4677477  51.8521309  28.0186343  25.0576043   5.9215248
  28.0214000  25.3071070   4.9974182  27.2647691  24.4744134   6.0099000
  59.5030689  19.0748894  38.4589672  58.8756657  18.4054065  38.1862259
  58.9613104  19.8241341  38.7066722  37.2613740   4.4553098  50.6546450
  36.9298530   3.5574815  50.6395292  38.1820011   4.3665665  50.9012270
  80.7909489  77.0835733  43.7826061  80.8176327  78.0332041  43.6654711
  80.6663895  76.7366838  42.8992128  77.8959465  77.7051449   5.9513211
  78.7726259  77.5820780   5.5872816  77.7682972  76.9520998   6.5282643
  77.8172779  75.3575850  59.2048883  78.3930922  75.9695911  59.6632767
  78.1862783  75.2957010  58.3238411  13.1287742   5.8312488  19.4995606
  12.7009869   5.9742063  20.3438306  13.5134709   4.9576598  19.5708573
  53.0640411   9.7155285   5.1549530  52.2847223  10.2712119   5.1654202
  53.3740377   9.7547555   4.2501912  15.6011021  19.8385429   5.3232419
  16.0091007  20.5539012   4.8353565  14.6667230  19.9208724   5.1324809
  59.1476727  16.9238794   6.8780327  58.7716389  17.0818889   6.0120845
  60.0491571  16.6543949   6.7021483  13.2488537   9.9384683  24.9407053
  13.6602783  10.4137754  25.6625414  12.3744833   9.7216153  25.2642536
  29.8760343  35.4767513  14.5131302  30.7747626  35.1488447  14.5446563
  29.4861102  35.1864886  15.3377140  40.4667044  12.3970199   4.8368660
  39.5370269  12.2595263   5.0185925  40.8200169  12.7530336   5.6521308
  57.4132347  64.2913628  68.7462473  57.0682764  63.4102821  68.8909292
  57.0223284  64.5685434  67.9176378  40.8442497   4.1052371  17.6038015
  39.8907065   4.0238765  17.5845563  41.1484385   3.2725665  17.9648554
   6.8966389   9.4132245  30.3530049   7.5044763   9.2945445  31.0828543
   6.8608510   8.5556823  29.9292445  68.7624168  63.8103199  17.5172305
  68.6791039  64.1270208  16.6177917  69.6438742  64.0724945  17.7827930
  32.4742436  61.4340353  12.1709943  32.1599841  61.6244984  11.2871408
  33.2417154  60.8777714  12.0376313  54.0369558  16.6048813  17.3951912
  53.3089161  16.6930544  16.7800331  53.9918327  17.3944342  17.9344511
  52.3309612  33.8146162  52.5876999  51.6105270  34.4435692  52.6279593
  53.0926800  34.3384981  52.3395824  38.6712956  69.5314360  22.3407722
  38.4359384  69.7360325  23.2457447  37.8471780  69.2647600  21.9334006
   8.0017179  48.1557751  61.1051941   7.7051848  47.5125980  61.7491102
   8.5180217  47.6477289  60.4794550  82.0621395  14.7809005  14.7808444
  82.6754570  14.2195725  14.3065166  81.6742897  14.2071807  15.4416394
  18.1626880  19.8230028  57.8541565  18.1428266  18.9114308  58.1454849
  17.6915872  19.8184741  57.0209265   3.4710819  53.3404875  53.1465816
   2.9052949  53.0673552  52.4244213   3.4349447  52.6129246  53.7675333
  75.3080988  26.7649269   3.3517721  75.7436848  26.4359331   4.1380674
  75.6430149  27.6555181   3.2473019   2.9812568  11.4904177  60.2586508
   3.7379515  12.0068979  59.9813557   2.3791605  12.1314943  60.6364489
  76.0807467  78.6308718   3.7987682  75.6518507  77.9006338   3.3526388
  76.4813137  78.2362938   4.5734203  50.2193260  59.0829277  55.0132227
  49.6947193  58.8573837  55.7814360  51.0369444  59.4259691  55.3738546
  58.1671238  39.7151923  59.7301245  58.1369305  39.6234918  60.6824446
  59.0963173  39.6430445  59.5118999  16.3697910  16.0696220   7.2653812
  16.1264825  16.4523542   8.1083220  16.9191289  15.3194010   7.4925995
  67.3565531  23.1478786  66.4495611  67.2164679  24.0382218  66.1272335
  67.1178770  23.1880951  67.3756552  20.0540257  31.7617846  47.1080399
  20.5251002  31.0419178  46.6883850  19.9220693  31.4683652  48.0095530
  33.2029986  30.9291649  19.5943534  33.3213162  30.2052569  20.2093244
  32.9023910  31.6579413  20.1372647  80.7536411  30.6641483  62.7564287
  81.4761353  30.0768113  62.5344706  80.8047581  31.3635683  62.1049452
  51.9419003  78.2257318  50.1872349  52.8844357  78.0607224  50.2122974
  51.8517923  79.0205860  49.6615696  70.4977560   3.8197935  39.2000484
  70.9754419   4.1780359  39.9481869  69.5792627   4.0135714  39.3872714
  24.2587996   6.0721546   7.3135406  23.8238001   5.3382367   7.7475590
  23.5468554   6.5657943   6.9064951  28.5847902  49.8846912   0.4793163
  29.2378139  50.5463886   0.2513928  28.2888770  49.5400333  -0.3632272
  25.1491952  72.4420500  16.2048650  24.6929216  72.5057459  17.0439053
  24.4560218  72.5167608  15.5489993  46.2871075  73.9072752  28.7928843
  45.6647444  74.4007015  29.3271351  46.8266630  74.5774317  28.3733535
   7.8285205  50.4590368  62.8927469   8.1603152  49.7610998  62.3279142
   7.0757329  50.0696230  63.3376074  28.9890480  43.4654188  11.3784218
  28.1024003  43.1612110  11.5721881  29.4574118  43.3830786  12.2091365
  14.0415215  17.4090600  34.7324657  13.1921208  17.8503537  34.7296166
  13.9784002  16.7726469  35.4446650  51.7250109  64.2144012  53.8402081
  51.4737320  64.9582672  53.2927084  52.5967550  63.9712477  53.5284948
  81.5759277  48.9394188  63.9998341  80.7709599  48.4341097  64.1134548
  81.2779236  49.8049450  63.7200356  80.2698135   3.0131105  60.8816147
  79.7081614   3.6878949  61.2629843  80.3278923   2.3390196  61.5587091
   6.4902675  56.0329485  64.6563101   5.8549678  56.0872841  65.3702211
   7.2740328  56.4616871  65.0000048  62.6792049  76.1627769  45.9836340
  63.6176395  76.1848736  46.1709213  62.2635841  76.1341763  46.8454218
  72.2767448  33.6160135  31.0921669  71.6357422  32.9052639  31.1055398
  71.7596912  34.4015360  30.9137321  48.7035656  72.7931643  22.4869752
  49.3835974  72.8468800  23.1584668  48.0930328  72.1337461  22.8166056
  58.4500504  78.0825853  55.9629202  57.6960087  77.8849697  56.5184402
  59.0029001  78.6483526  56.5019035  70.0826788  13.3178616  49.5576668
  70.4309320  13.2255125  50.4444742  69.5023823  12.5644791  49.4485760
  77.2262383  66.1924410  66.6433191  76.9323874  65.2817011  66.6642189
  77.7278662  66.3008595  67.4513102   7.1416509  27.9233909  68.0414534
   7.0759058  28.7975192  67.6569939   7.8771865  27.9845047  68.6509466
  78.2131529  77.9758406  64.4436455  77.8154325  78.1783247  63.5968590
  77.5628996  77.4335814  64.8901367  24.2964721  71.2271118  52.1257448
  23.8405776  71.6110945  52.8747129  24.9795961  71.8619537  51.9099855
  15.6031871  27.7078748  28.9850116  16.3886607  27.5890899  29.5190096
  15.5845535  28.6451435  28.7915826  23.7961864  45.2618504  20.4801726
  23.7784529  46.1672068  20.7904077  23.4775805  45.3112125  19.5789039
  80.6468010  38.0719924  49.1082335  81.3506889  38.1126904  48.4608459
  80.8037567  37.2550058  49.5816565  53.6215305  61.0975647   7.9122841
  52.8164530  61.2814474   7.4282658  54.1066647  60.4939318   7.3496926
  80.9917355  72.2399950  41.9533396  80.3982258  72.9545403  41.7222500
  81.5417099  72.1253157  41.1783457  83.3492756  42.2011137  51.3436222
  83.8031197  42.0628357  50.5122757  82.7102852  42.8887081  51.1561871
   3.2984886  19.2637515  26.4604545   3.7472504  20.0481462  26.7760015
   3.9857435  18.7479365  26.0387373  45.5886936  17.0435107  58.3371973
  46.5333319  17.0998836  58.1932735  45.2534199  17.8974533  58.0640554
  25.6676197  22.3987365  48.7369585  25.4149008  23.1580281  48.2117558
  25.8729434  21.7202330  48.0937576  37.0938087  14.5777488  60.7498312
  37.4839163  13.8581622  61.2460613  36.2408209  14.7175074  61.1610603
  65.7479477  67.5926208  54.6295977  65.8643627  67.0857906  55.4332161
  65.8120775  68.5053682  54.9106789  37.4800277  51.5664577  11.1372089
  37.8031969  52.1155262  10.4228449  36.5312791  51.6928864  11.1261094
  31.4427161  14.7234321  52.9453707  31.9776082  13.9368117  52.8388357
  31.9970703  15.4351664  52.6254368  37.9813266   8.5001022  46.4698839
  38.0400562   8.3694327  47.4163008  37.3603296   9.2210358  46.3657188
  54.1170168  67.7952194  51.8303442  53.9244509  68.2634830  52.6426744
  53.2830715  67.3979855  51.5794134   3.0283105  32.3772049  41.2918234
   3.6521769  32.0287275  41.9286776   3.2918552  33.2897019  41.1729670
  62.1160603  72.1277142  50.9643698  62.4980497  71.2536144  51.0435295
  62.8701878  72.7156019  50.9206772  13.5887551  62.1342802  29.0835500
  13.2873547  61.9006491  29.9615073  14.3465412  61.5693903  28.9322472
   1.2347978  65.2263784  49.0714359   0.3353623  65.4958487  48.8853312
   1.1837786  64.7940445  49.9239111  15.8050227  31.5857983  42.2753000
  16.3868868  30.8520150  42.4733639  15.9607065  31.7717528  41.3493347
  39.0960097   9.3355918  60.7225895  38.9152956  10.2435541  60.9658575
  40.0449085   9.3046129  60.6006861  17.2415829  19.5806909  25.4976106
  16.6365039  18.9931560  25.0449395  17.9963970  19.6443999  24.9124360
  48.3050728  22.3131728  12.8423977  48.5940313  22.1496320  13.7401652
  47.4957514  21.8094587  12.7557647  76.0997915  58.3259964  65.0765848
  76.1512232  57.4754477  65.5126476  75.3754807  58.2343674  64.4575453
  61.7069674  67.5173569  10.6974542  60.9286737  67.4735022  10.1419687
  62.2939730  68.1194878  10.2401805  24.9681044  30.3365111  64.9716282
  24.6668005  30.4505968  65.8729792  25.0667524  29.3898416  64.8700714
   5.6309134  76.5321827  30.2610230   5.3274488  76.1444569  29.4401622
   6.4872479  76.1322594  30.4126358  71.5117979  23.0516100  54.5792913
  70.6745338  23.0755734  55.0425863  71.4927197  22.2276020  54.0925884
  56.3528633  60.9264898   3.7651798  56.0898924  61.4611244   3.0160165
  56.4326000  60.0407600   3.4111217  31.7188239   5.9838361  59.0036821
  32.3335338   6.3286513  59.6513462  31.5366745   5.0913262  59.2977524
  40.7354641  58.0409193  37.9542470  40.2797031  58.8627386  38.1362486
  40.4596233  57.8051376  37.0684981   9.3579960   6.0357094  58.4167862
   9.5057070   6.6769284  57.7216196  10.1912022   5.9951431  58.8862038
  26.9405508   7.5769305  25.0141597  27.0892334   7.4895972  25.9557009
  27.8110194   7.4915498  24.6252847   9.5190650  70.4168558  35.6392574
   9.7127563  69.9703264  34.8150444   8.8738614  69.8558998  36.0696936
   2.2204176  57.8848743  36.8406701   2.7470496  57.8126192  36.0446382
   2.1754317  58.8252592  37.0135546   6.4098722  77.5913095  40.9465218
   7.2608095  77.5597095  40.5093241   6.5711939  78.0874586  41.7490435
  13.3167672  11.2187517  58.9046812  13.5586882  11.3280106  59.8243380
  13.2084906  10.2739108  58.7961245  35.9781671  10.4347873  46.5280342
  35.3647757  10.3371036  45.7997227  36.1212063  11.3788152  46.5957308
  13.4134984  70.4497099  48.8229609  13.4910786  70.6039524  47.8814602
  12.4896908  70.2369976  48.9554977  79.9822950   9.8341626  12.3478723
  79.4319296   9.1483235  11.9697738  79.9325800  10.5546606  11.7196667
  53.4822941  25.0399971  43.5819626  54.4130325  24.8563337  43.7093353
  53.0707741  24.1766024  43.5441446  70.1324701  32.8495264  54.3575668
  71.0365486  32.6428556  54.5945406  70.0052834  33.7488532  54.6596766
  20.6126404  32.7925062  29.8530817  21.1119056  32.0202565  30.1187801
  20.9350705  33.4929585  30.4202127  24.4675612  24.7824359  47.5700712
  24.1776729  25.4103661  48.2318115  25.2614927  25.1709771  47.2027254
  73.1844234  78.5526562  63.5687065  73.2310152  78.8169050  62.6498842
  72.2635174  78.6657143  63.8040352  29.1597533  19.4887495  67.1311665
  29.8160291  19.7377121  66.4803600  29.4302845  19.9420404  67.9296494
  23.2197833  54.2019224   0.3030874  23.0858850  55.1424503   0.1860132
  24.0595150  54.1342783   0.7575172  41.0341787  13.0073822  47.5225925
  41.3269091  13.4095407  46.7047882  40.3732395  13.6103749  47.8628731
  25.6503654  74.4394112   1.9505563  26.2176299  74.3479061   2.7161080
  25.8700061  73.6888409   1.3986200  35.1673675  70.7933617  50.5473948
  35.5487466  69.9420738  50.3327036  35.4953194  71.3812208  49.8668814
  68.4292316  69.5239305  54.0044689  68.1379318  69.7416592  54.8898888
  69.0241337  68.7835264  54.1233301  25.2181792  75.9599209  56.7618036
  24.8860264  75.4780626  56.0043621  25.9557819  75.4359961  57.0743322
  82.3746872  19.4634390  49.8940229  81.5410328  19.3235910  49.4449091
  82.6000404  18.6053562  50.2533817  71.1259127  58.6468554   5.6805682
  70.9935427  57.7344751   5.9379905  70.3440046  59.1004133   5.9954357
  79.6840763  16.2532020  18.6576712  79.3355656  16.5884507  19.4837332
  80.3554726  15.6230426  18.9191365   1.7908259  61.5610695  34.3828607
   2.6732430  61.8746805  34.5809054   1.2111826  62.2234058  34.7591066
   7.5767666  45.2056456  30.6158352   6.9365269  45.4332542  31.2900162
   8.3143383  44.8358250  31.1010695  19.0812504   2.5204819  21.1183238
  19.0536296   2.4559282  22.0729470  19.2820954   3.4404063  20.9461856
  31.8330193  30.9454823  48.6613560  31.4875269  30.1417828  48.2728529
  32.7536249  30.7503676  48.8364172   2.8353959   7.4228472  62.9873133
   3.2351813   6.7861187  62.3948765   3.2672781   8.2505631  62.7761364
  14.0778685   6.0204118  34.6493173  13.6371779   6.7553574  35.0757909
  14.9247277   5.9597713  35.0913382  72.7390671  76.9098663  67.6028728
  72.0695591  77.2386074  68.2028103  72.2851706  76.2541342  67.0735121
  15.8070433  21.3702989  52.7509403  16.6625011  21.6885090  52.4625587
  15.3743148  22.1427608  53.1146431  82.0056534  68.4943199  63.7330770
  82.5628471  69.2477417  63.5378265  82.3803043  68.1195211  64.5301914
  69.7012901  61.4398623   3.2331330  69.9556971  60.7337761   2.6390409
  70.5158091  61.6920853   3.6680692  11.6725087  48.4774113  47.3589277
  12.5973022  48.6778355  47.2146368  11.4049768  49.0723228  48.0594540
  41.7988396   2.4811918  62.1556187  40.8779097   2.7421027  62.1492767
  41.8080235   1.6245291  61.7286825  29.9994779  72.6762915  28.4741807
  30.7394004  72.0950794  28.2982922  29.2277384  72.1195316  28.3709025
  73.4776068  17.6641738   8.9825517  73.5279226  17.9917896   8.0845714
  73.4214973  18.4526372   9.5223749  44.1294765  13.7456882   4.5739669
  44.0782452  14.6820223   4.7660208  45.0523663  13.5254014   4.7004029
  26.4702845  41.7512560   8.7314528  26.8501592  42.5224161   8.3104551
  26.2706542  41.1572790   8.0078715  72.9500961  72.0615673  36.7784977
  73.8729382  72.0147228  36.5286946  72.4859619  71.6266966  36.0631680
  17.3024702  18.7766159  50.5567980  17.7547133  19.6047211  50.3957081
  17.4850595  18.5787380  51.4753532  38.9371538  19.4436669  46.4348221
  38.1344581  19.8665357  46.7399359  39.5917487  20.1420403  46.4376354
  37.9705286  71.4397001  15.3782320  38.4170508  71.8067265  14.6152496
  38.5637188  71.6129684  16.1092150  80.2383518   8.7084830  30.9452319
  80.2621746   9.6436852  31.1478662  79.3312883   8.4507948  31.1097527
  27.6211452  57.0088053   5.4197210  27.1679902  56.7070627   4.6324256
  27.8426123  56.2057686   5.8912241  83.9049435  16.1697078  45.0527573
  84.3460846  15.7383037  45.7845449  83.2820415  16.7668831  45.4670191
  18.0059338  31.1407995  61.0876846  18.8286757  31.5462327  60.8139133
  17.5891566  30.8689356  60.2699947  47.5736094  77.9854012  17.8579998
  47.2831869  78.3279562  18.7033069  47.7022409  78.7635612  17.3156357
   3.7796703  10.0291109  49.4240904   4.6194723   9.9887127  48.9665651
   4.0127170  10.1866114  50.3390312  82.8954506  20.6677532  60.3605556
  82.7181625  19.8707163  59.8610258  82.9759121  20.3696537  61.2665892
  19.3716896  13.6580873  48.6734772  18.9376867  13.3118737  49.4532299
  18.6814392  13.6941779  48.0112982  13.4075606  74.1282654  62.5279188
  13.0624378  73.7981033  61.6983891  12.7087927  73.9628601  63.1608486
  29.4651699  63.1179094  16.9048035  29.6382213  62.3309660  16.3880730
  29.9393988  62.9756117  17.7240038  73.3569241  54.3068981  41.7720222
  73.2806349  53.4881449  41.2820721  72.4539995  54.6046352  41.8829966
  43.8274765  25.3518391  19.7044814  44.3320847  26.1354709  19.9224889
  43.8311291  24.8331237  20.5089378  46.3320112  18.7092829  61.5867186
  46.9073582  17.9451036  61.6219187  46.8987036  19.4464278  61.8141079
  23.9722633  50.3194046  57.3231173  24.7351456  50.7034826  56.8909931
  24.2006755  49.3968534  57.4369383  82.7013969  38.8951731  11.6269100
  82.7532101  39.2318153  12.5214601  82.7050686  39.6778464  11.0758722
  80.9950066  22.3801637  26.6407585  81.4443588  23.1152987  26.2237549
  80.6458378  21.8679953  25.9113789  45.4988146  60.5333948  18.5444081
  45.7806349  61.1543417  19.2161512  45.1031542  61.0790396  17.8647327
  58.4892988  64.5934248  62.2393847  57.7651787  64.7150040  62.8534651
  58.1584978  64.9345064  61.4084387  76.1499643  43.3864164  46.8011570
  75.6365395  42.9169178  47.4585724  76.5732384  42.6964521  46.2902498
  34.8624039  63.2599354  44.4063997  34.4503808  62.8735304  45.1791620
  35.7923818  63.3056164  44.6284103  82.1229935  66.2897539  48.0563116
  81.9564152  67.1999979  48.3011436  81.2521172  65.9037876  47.9623175
  27.3311424  20.8184886  59.6807814  28.1407309  21.2044358  60.0152063
  26.8833208  21.5427184  59.2435408  68.4470701  23.9538360  35.2257252
  68.8728809  23.4307718  35.9049320  69.0984154  24.0150547  34.5269847
   2.0394257  20.7871747  40.5859327   2.0624723  21.7212152  40.3779268
   2.4263754  20.3617668  39.8207355  60.9326172  64.6413565  41.1586094
  61.5155077  64.6201038  40.3996515  61.4222193  65.1260519  41.8231344
  39.5143127   1.0990961  39.4754267  39.8276186   1.7521679  40.1011801
  39.9826026   1.2998307  38.6650920  27.3600411   9.2427355  67.9315519
  27.3468018   9.3868977  66.9853640  28.2765865   9.0531534  68.1321383
  61.2426996  66.8966150   7.2092783  61.4370584  66.2213421   7.8592479
  60.3243637  66.7522192   6.9811416  32.9079127   6.0673356  64.9676609
  32.2241449   6.5772623  65.4020214  32.5305581   5.8342779  64.1194201
  67.2195148  78.9983988  32.7560592  67.5972366  78.6912823  31.9319010
  66.3270426  78.6523914  32.7541375  37.9519129   7.9510713  48.9726257
  38.3886075   7.6132059  49.7545290  37.0331144   7.7086288  49.0878057
   8.5151875  42.5698757  59.7954178   7.8790379  43.2822037  59.7310781
   8.0670828  41.8937492  60.3036356   6.7515337  26.4807415  56.0223866
   6.6427779  26.6789818  56.9524956   6.4113951  27.2535062  55.5714178
  16.5594590  41.3476372  34.5600390  15.9195423  40.7776737  34.9865174
  16.4463294  42.1966457  34.9873757  31.0698271  57.5813818  40.6031132
  30.4895496  56.8209028  40.6374788  31.3871312  57.5999308  39.7002244
  30.8541608  30.5670714   5.4413962  30.3673983  30.1943278   6.1764854
  31.4077139  29.8498988   5.1324075  22.1507120  49.9998999  43.0716705
  21.3554668  49.4754219  43.1651497  22.4741197  49.7904825  42.1954393
  51.1153555  68.1650877  47.4443102  51.4610243  68.9274025  47.9086590
  50.3717995  68.5048199  46.9463730  52.3436594  70.9863806  52.5274372
  52.0581627  70.3477097  51.8741179  51.6478348  71.6435766  52.5399590
  48.2051134   6.8772489  59.2257738  48.0091572   7.0612133  58.3070850
  48.0781078   5.9325528  59.3132448  56.2271118  73.5676813  55.5368662
  56.5815067  73.2492018  54.7066832  55.3090191  73.2971525  55.5248880
   1.0167614  56.1120605  24.2405558   0.8307588  56.4961147  25.0973749
   1.8544963  55.6635809  24.3558669  12.1798849  22.3509240  45.4722357
  11.6512752  22.4414635  44.6793842  11.6540623  21.7964101  46.0486507
  55.9764385  54.1048145   1.9539404  56.0815334  53.1741667   2.1516310
  55.1676512  54.3547344   2.4007392  24.9524164  13.3057284  54.1294861
  25.8373141  13.1577301  54.4630814  24.4282579  12.6082480  54.5232010
  76.8088341  69.3249464   1.2251135  76.5564728  70.1576710   1.6240090
  76.9299650  69.5304060   0.2981039  14.8382473  19.4741321  62.5703287
  14.1912127  19.8525941  63.1655931  15.6617582  19.8990273  62.8101730
  51.8029928   2.2148195   4.3685973  52.4749660   2.5932753   4.9355638
  51.5547800   1.3988329   4.8030955   6.1518747  20.2606821  13.9947557
   6.4860570  21.1116052  14.2784524   5.2465516  20.4330444  13.7360799
  37.3462415  70.4204464  11.6227031  36.9075775  70.0022316  10.8818257
  36.8962789  71.2590551  11.7251790  63.3494139  12.4717879  16.8752885
  64.2381907  12.3028886  17.1879792  62.7829456  12.0990729  17.5508845
  82.4781609  59.3209219   8.7248963  82.9910946  60.0883532   8.9782357
  82.9343796  58.9696884   7.9602206  19.4676232  30.9462810  42.7543545
  19.3352783  31.6817927  42.1562386  19.8076141  31.3465309  43.5546255
  43.4476757  10.1492476  55.1727915  43.0513573  10.9319913  55.5555105
  44.3666697  10.3843200  55.0446367  20.5843973  37.9278469  64.7048044
  20.2255034  37.4481893  65.4513645  19.8832369  37.9163957  64.0532875
  46.2896967  39.5252824  10.4327452  47.0434284  39.7859526   9.9034369
  45.9162092  38.7777567   9.9658996  49.8128033  76.7635202  30.0120091
  50.4407167  76.2166452  30.4841161  50.0610399  76.6734982  29.0919518
  55.4640865  58.0067205  63.4559822  56.2036943  57.4666262  63.1775713
  55.5997705  58.1329250  64.3950701  18.7327027  77.5845528  39.3310642
  18.2828903  76.7489195  39.4560528  19.6489036  77.3449039  39.1918635
   5.5314559  69.0136862  55.9125757   4.7592929  69.1511774  55.3638601
   5.3971303  69.5910978  56.6640997  13.2176089  20.3905606  36.4090753
  13.3922303  21.1812186  35.8985877  13.6385405  20.5527186  37.2533202
  21.8990183  38.8043833  56.4780092  22.3323870  39.3276548  57.1522570
  21.3846660  38.1621051  56.9670391  77.6838255   8.7201786   6.1700386
  77.2362852   9.3600720   5.6164354  77.4761200   8.9904594   7.0644867
   2.6714164  14.1781723  40.5270720   2.0779862  13.4275937  40.5005360
   2.4237558  14.6513450  41.3214302   4.2602009  18.5885990  30.2093768
   4.5012930  18.3648717  31.1082959   3.8739491  17.7862632  29.8582411
  61.6068125   4.0337956  10.6629503  61.0550547   3.3663753  11.0708070
  61.5119171   4.8008302  11.2276495  65.5893087  64.7996712  40.2875185
  65.8461666  65.1985884  41.1188555  65.2902889  63.9220095  40.5252790
  75.1432133  50.8329201  37.2358632  75.6117105  51.3960123  37.8520322
  74.7201967  51.4410543  36.6296744  56.2211561  54.7859716  49.1282988
  56.1400366  53.8331270  49.0866184  55.3231621  55.1066828  49.0447092
   9.1267967  15.9439731  -0.0108659   9.9244231  15.5071771   0.2878554
   8.5881227  16.0235572   0.7763623  13.1830060  38.2757759  56.5140152
  13.5186088  38.4302998  55.6309938  12.9326212  39.1437912  56.8303823
   8.5584313   9.6799552   2.4066013   8.5585696   9.9630523   3.3209798
   9.4408840   9.3387532   2.2613776  73.0665731  68.4963703   4.8525551
  73.3621740  67.9896355   5.6089091  72.3244858  69.0046310   5.1799852
  56.0078096  19.0481949  46.4458466  55.4889822  19.7818553  46.7756891
  56.8720722  19.1702449  46.8387556  27.4024177   4.3998384  63.5126829
  27.1527052   3.4780157  63.4485102  26.7563558   4.7822121  64.1065073
   1.6446811  37.9933882  18.1099641   2.1562536  37.2431087  17.8072977
   1.4300296  37.7857351  19.0193796  59.8828316  78.6683559   0.7615936
  60.2265835  79.2181015   0.0574328  59.2454100  79.2241669   1.2099286
   2.3116498  37.7110410  54.5357752   2.7836412  37.7983332  53.7076235
   2.9714930  37.4009204  55.1559877   7.3327559  21.5830255  54.9035263
   7.5149268  21.8630123  54.0065002   7.8740507  22.1550679  55.4475832
  55.9468842  51.0567760   3.8028663  56.7909241  50.8979177   3.3802691
  55.9454346  50.4734278   4.5617682  38.3500028  52.3490715  36.8982577
  38.2206511  51.7947245  36.1287093  37.5179243  52.3030710  37.3691726
  22.0999360  40.3315306  52.1378469  22.4052978  39.5224881  52.5482607
  21.9319224  40.0894928  51.2271214   4.2525032  24.9666142  36.6049838
   3.6047375  24.3465543  36.9398808   5.0702500  24.7133589  37.0332170
  71.5342188  40.1818800  12.8824675  71.4569330  40.8726311  12.2243488
  72.2463846  39.6268630  12.5646555  19.7313309  13.0957425  58.0317259
  19.3550491  13.6479592  57.3463821  20.6744385  13.1229389  57.8703594
  54.1936255  14.9193883  43.4368372  54.2878771  15.4235697  44.2450142
  54.5799065  14.0673947  43.6396265  21.2114120  45.5202341  59.5793056
  20.9628630  45.7026529  58.6731148  20.4081917  45.1971436  59.9875689
  11.7985225  23.2175469  64.2758226  11.2676322  23.7014174  63.6431646
  12.7007246  23.4580660  64.0650749  60.2519655  59.2602015  14.2174315
  59.3569422  59.3830109  13.9010668  60.8036327  59.6045160  13.5150504
  20.3723693  19.4105232  66.3567305  20.3548932  18.4667945  66.1976576
  19.4503474  19.6665621  66.3802576  35.9976220   8.4277958  43.3656645
  36.6828632   7.8269899  43.0729055  35.5916333   7.9836178  44.1100502
  36.3507342  21.9422841  24.8926282  36.0320735  22.8196716  25.1044679
  36.7878461  22.0438766  24.0471435  19.9755085  34.6439481   2.3127297
  20.2120256  33.8726258   2.8278533  20.4392815  35.3662634   2.7362931
  64.8308706  58.4556484   2.5590467  64.0152168  58.8135481   2.2085445
  65.0156498  57.6957083   2.0071626  24.9952197  19.7506189  40.0092316
  24.7118521  20.4619050  39.4347668  24.2897105  19.1057551  39.9578714
  81.2178707  58.3513927  55.6336737  81.2422943  59.3077135  55.6666279
  82.0718002  58.1020260  55.2803183   9.8005003  38.8065386  61.3933229
   9.5656735  38.8712525  60.4676342  10.7342172  39.0157247  61.4187479
  45.4677153  25.8344293  64.8137856  45.3679752  24.9503231  65.1668262
  44.7414589  26.3278818  65.1949501  14.2250538  13.1248379  56.1011887
  14.0600228  13.3693719  55.1905823  13.9867568  12.1989322  56.1474991
  32.6672316  56.3133240  66.3889742  33.2611632  55.9837008  67.0633841
  33.1063318  56.1101913  65.5630445  59.3395376  37.6366234   3.3182392
  59.3788195  37.8440166   4.2518753  58.4379339  37.3490858   3.1744891
  46.3553286  38.4522748   7.2610992  46.3972807  37.7578640   6.6036308
  45.7281828  38.1311131   7.9089957  69.0625143   5.3698397  30.2323389
  69.5812988   4.5965388  30.0107622  68.6429596   5.6206560  29.4093561
   9.6804982  27.9800868  51.1747599   8.8300556  27.9717350  51.6139746
   9.8869777  27.0559287  51.0350084   4.8271179  73.6480284  34.8049378
   5.0896925  74.5489645  34.9936223   3.8985622  73.6159706  35.0351286
  81.7091751  13.5757732  62.1542025  82.1631050  13.5249841  61.3130093
  81.5437317  14.5099938  62.2810650  41.5847778  77.5155067  10.7022154
  41.6043901  78.3208370  11.2192178  41.8912649  76.8370867  11.3039160
  84.1015720  78.2546473  50.6370306  84.1546154  77.3424816  50.9222841
  83.6765862  78.2133627  49.7803354  30.6378794  27.6669812  32.5347853
  31.1539578  27.0157743  32.0595741  30.5423212  27.3014998  33.4142876
  69.6982718  66.9566822  23.4876180  70.2927065  67.6778841  23.2808542
  69.2231655  66.7966175  22.6722145  15.6439745  57.6731873  54.2261934
  15.3918362  58.5576725  53.9609623  16.3490796  57.8050423  54.8599720
  77.2418118  35.0934649  67.0783710  77.1920586  35.7105708  66.3483477
  77.2662354  35.6471562  67.8587961  60.4135752  30.8708024  15.0514317
  60.9533644  30.5327630  14.3368757  60.2019358  31.7665577  14.7886372
  16.9949365  38.4632111  67.2354937  17.5389779  38.9430523  66.6109943
  17.4558628  38.5489440  68.0700207  23.3391929  74.5014191  65.9689569
  23.5788107  73.6636782  65.5727196  22.5322819  74.3169165  66.4496708
   9.8923278  16.4591932  61.2979269  10.7624280  16.5946126  61.6731834
   9.6464181  17.3155820  60.9481239  38.3311605  33.5338640  47.6538467
  37.7289200  33.6827230  46.9248915  38.5780001  32.6122999  47.5762320
   6.5837210  18.9676476  34.0627694   7.0529962  18.3008611  34.5641756
   6.0276079  18.4695911  33.4636784  42.6443911  12.5477386  49.8724318
  42.3102236  11.6669607  49.7027445  42.3092937  13.0748987  49.1471434
  49.3317986  30.1232243  62.4959660  49.2793179  29.2512465  62.1046448
  48.7287188  30.6553555  61.9769669  54.7283411  77.4122095  29.8570752
  55.1459932  76.9036627  30.5521870  55.4366493  77.9392433  29.4872594
  57.8734016  18.6531711  44.0531778  57.0993853  18.5148203  44.5990610
  58.4854555  19.1225708  44.6199989  35.0179577  12.9045510  34.7678161
  34.3900633  13.3033085  35.3702879  35.1510739  12.0209074  35.1108718
  73.0105686  12.9877341  19.1835964  73.3555555  12.2366691  19.6664190
  73.3044004  13.7493086  19.6834946  32.0370078  12.0897794  50.5523396
  32.1681905  13.0309117  50.4370451  32.8821707  11.7008078  50.3273296
  79.9805450  51.9710016  13.8046610  79.2607880  51.7404890  13.2172585
  80.7682705  51.6858101  13.3416474  30.7416821  18.7905896  35.0475287
  31.2069321  18.2193351  35.6586289  30.6849837  19.6313787  35.5014992
  19.0685403   1.1221956  63.5248041  18.7832475   0.2107880  63.5894251
  18.3192527   1.5813875  63.1454086  79.2536306  76.9683790  55.1439762
  78.6816406  77.0664454  54.3827629  80.1394272  77.0451260  54.7894382
  14.7670686  23.6262131  64.0475368  14.9667335  24.4657922  64.4616270
  14.8397636  22.9865050  64.7558594  81.8840790   2.2212766  33.7270403
  81.8839550   1.5900515  33.0074668  82.3147011   2.9961038  33.3658767
  68.1375980  54.8691273  36.1271381  67.4244213  55.1922560  35.5765033
  68.7235212  55.6196880  36.2250614  40.7481766   3.0242273  27.2751522
  40.3574610   3.4889257  26.5351319  40.8671284   3.6975798  27.9449868
   6.9376743  20.9375715  49.9914265   6.0280704  20.6545138  49.8979855
   7.1895850  21.2274361  49.1146421   0.6815109  27.5258923  66.0761833
   0.5862665  26.6153717  66.3556623   0.0288177  27.6336050  65.3843594
  67.9341602  56.2590647   9.3214595  67.3622084  56.3896227   8.5651141
  67.6401901  55.4324198   9.7041833  11.8818319  58.6969566  62.0964479
  11.0110736  58.5131741  62.4489212  12.4411535  58.0179596  62.4737358
  57.4819040  56.7541504  11.6122615  58.2082176  56.1308670  11.5974593
  57.1216345  56.6811657  12.4960637  52.6303625  44.8128033   9.0958512
  52.5115490  43.9361715   8.7302959  52.8301907  44.6619844  10.0197327
  44.7902536  29.8122406  49.9340487  44.7811222  29.3246126  50.7576799
  44.0031767  30.3558755  49.9688292  21.9270968  27.8993797  34.7186494
  22.8717566  28.0533862  34.7302485  21.6602039  27.9788589  35.6344461
  15.6710434  21.5685582  29.6013737  15.6636035  21.7205143  30.5464053
  15.1661789  20.7638144  29.4842005  49.9666452  17.6360607  53.8493252
  50.8651590  17.8290629  54.1170168  49.4261789  17.9736710  54.5635748
  61.7295647  24.7084594   5.7404959  61.5112734  25.5960941   6.0245466
  62.6839447  24.7083974   5.6670177  26.7052364  58.3871937  35.8024883
  27.5291491  58.8398266  35.6221485  26.4346838  58.7148952  36.6601849
  23.4627438  24.8895025  38.3534455  22.8834271  24.1462588  38.5214114
  23.5636640  25.3120542  39.2063785  68.0726671  52.0953465  40.0521517
  68.2540751  52.9447365  39.6498346  68.7305975  52.0118380  40.7423592
  65.9971809   2.1126138  12.7905953  66.4374399   2.4100916  11.9944084
  65.5068445   1.3371684  12.5176787  30.5424476  22.1165776  16.5830052
  30.9760261  22.4261999  15.7877839  29.7887826  22.6975203  16.6865766
  60.1641560  76.8579960  12.4106824  59.9446678  77.5519228  11.7889714
  60.1849842  76.0604143  11.8818593  83.3595657  54.8194313  35.7810378
  82.7005005  54.5143223  35.1575160  83.8049316  55.5352354  35.3277111
  24.1912818   4.1885394   9.8172301  23.6134529   3.8060912   9.1568667
  24.4160795   3.4565729  10.3916192  35.7699728  23.7223768  63.6788607
  36.6953373  23.4783077  63.6598539  35.6436539  24.1155314  64.5424032
   8.4589481   2.9972756  46.0633516   9.1293412   3.5966587  46.3912916
   8.6635929   2.1591020  46.4778614   7.2963309  58.0556822   3.0985218
   7.3550767  57.1250153   3.3144978   8.1602043  58.2756329   2.7498460
  34.6275973  70.7183361  13.4668887  34.7789025  71.2042141  14.2776036
  34.9554276  71.2953520  12.7770972  51.6935539  17.2596097  46.5413570
  51.7525434  16.3115132  46.6591072  51.8354177  17.3938692  45.6042957
  30.9841299   1.4821278  15.3756952  31.7100215   1.8873155  14.9012113
  31.1997771   1.6115059  16.2992692  35.6279278  38.2763815  63.5024929
  34.9744368  38.3934593  64.1920376  35.2242279  38.6574411  62.7227163
  32.5729370  19.7848201  41.1007929  32.1666312  20.0031376  41.9395304
  33.3116078  20.3892159  41.0279655  70.0455666  20.4502082  38.2050753
  69.2460680  20.8652639  37.8814125  69.7362375  19.7198927  38.7409735
  49.3329477  47.6185608  55.1371145  49.3635702  46.7656136  54.7037935
  49.5454454  48.2459974  54.4461727  20.6562161  15.6694746  15.3760862
  19.7108841  15.6772113  15.5261564  20.9604645  16.5086591  15.7216763
  32.1335721  33.4663296  55.6545305  31.2850761  33.3069706  56.0679197
  31.9290924  33.5888886  54.7274923  34.8134637  15.3060389  45.3530645
  34.9771476  14.6275830  46.0081482  34.4411254  14.8345888  44.6078587
  10.4311073  19.4163001  30.0596213  10.4929554  20.2246618  29.5507407
  10.3461194  18.7255132  29.4024897  47.2772837   4.1160953   2.7778789
  47.6917171   3.2640010   2.6421788  47.9239130   4.6211404   3.2708615
  22.1767592  18.3233345  68.3001852  22.0859528  18.9311004  67.5662899
  21.3116550  18.3113337  68.7096786  11.2772560  73.7802076  48.3372450
  11.6881526  74.1282368  49.1286182  10.3751564  74.0979052  48.3762169
  82.0424080  57.9806089   1.0322769  82.4004269  58.7808800   0.6480648
  82.7225304  57.3220396   0.8909943  63.8907337  66.6285515  18.3557189
  63.4810257  66.9657946  17.5590742  64.8042297  66.4805937  18.1110620
  54.9880457  72.0575428  65.5613184  55.0670862  71.4581013  66.3033819
  54.5010567  71.5613365  64.9034023  34.0962839  53.6634588   2.4772629
  33.8887024  53.8588715   3.3910218  34.3329024  54.5103168   2.0990101
   2.7914605  60.9081888  13.1059754   2.9580551  60.4875326  12.2624552
   2.0469676  61.4870596  12.9420507  23.3564520  32.4769640  63.4725285
  23.8232493  31.8500662  64.0250969  22.5794125  32.7113557  63.9799738
  11.5502965  25.0641561  41.2024021  11.0021293  25.2977204  40.4532719
  12.4446023  25.2361321  40.9076595  41.5945768  22.8093743  12.2948682
  41.9217682  23.3687353  12.9993498  42.0903587  21.9955873  12.3853290
  18.8479066  16.8115866  41.9732141  18.1998003  17.0268631  42.6439190
  18.7105715  15.8807361  41.7974615   4.7379354  69.3598938  10.8057475
   3.9304554  69.7602415  10.4833663   4.5282060  68.4294748  10.8867800
  56.3454819  57.5092077  58.7019634  57.0769691  56.9776344  59.0159416
  56.5672922  58.4019852  58.9665127  18.5414839  50.7111073  45.3969049
  19.2962217  51.1891365  45.7405472  18.8757563  50.2617884  44.6206284
  12.4204874  39.6992326  67.1734190  11.9110465  39.3310666  67.8953314
  13.2643449  39.9234343  67.5656796  83.6726093  26.3226199  51.0387611
  82.7495480  26.1193681  50.8874941  83.7205982  26.5397692  51.9697666
  67.4377823  21.4047027  49.6390629  67.9352760  22.2223210  49.6543169
  66.5717316  21.6572380  49.3190432  30.3229618  15.6228292  63.1394243
  30.3100061  16.5512955  63.3718348  30.3506088  15.1658702  63.9800549
  63.6590242  53.5144377  60.6161118  63.0369425  54.2418861  60.6080246
  64.5181417  53.9344263  60.6579971  45.9488487  76.3077545  54.6212912
  45.2017450  76.8823147  54.4541264  46.6799927  76.7275858  54.1680813
  48.9764881  32.1460795  55.8316231  49.6032476  31.4235854  55.7941103
  49.5171118  32.9347157  55.7868242  15.2025676  15.7357550  46.2786531
  14.3624401  15.5731177  46.7075682  15.5595398  14.8632848  46.1125278
  69.1249704  54.9946308  19.4134510  68.3624029  54.4335747  19.5546710
  69.2579889  54.9838781  18.4656000  18.2196271  37.9367185  56.7700768
  18.5638106  37.2569180  57.3494244  17.6422989  37.4680233  56.1673784
   8.2160211  52.7831173  39.4866538   9.1357231  52.6319218  39.2686629
   7.7292156  52.3420811  38.7904215  64.5986271  39.5497417  64.6434069
  64.6537161  38.8614345  65.3063059  64.1212559  40.2590704  65.0737524
   0.4409932  68.1733370  58.8309956   0.9702577  67.8789330  58.0897570
   0.4336369  67.4277115  59.4311810  36.1985970  13.1988382  56.0563850
  35.3244519  13.1287444  55.6727314  36.4233971  12.3023903  56.3055420
  67.2387886  43.4356833  66.1462164  67.4497604  43.9555693  66.9217443
  67.9948711  42.8601551  66.0307312  77.6067781   0.1318765   4.6179268
  78.3495903   0.0395978   5.2145374  78.0003023   0.3847294   3.7828016
  16.5707743   5.5123162   0.7544774  15.7845521   6.0145843   0.5404376
  16.4549422   4.6795684   0.2969340  52.5449705  17.1020854  61.2324905
  53.1630850  17.6848483  61.6735744  53.0254698  16.7744625  60.4722214
   8.9543003  38.3689332   8.8216835   9.6921557  38.5511780   8.2398009
   8.2741392  38.9832592   8.5456109  22.5851226   4.1080931  62.4851084
  23.0468011   3.4615108  61.9512415  22.8745532   4.9532217  62.1412802
   8.2476419  21.4684415  66.6663980   9.0496939  21.9898796  66.6987419
   8.5519624  20.5674076  66.5579510  13.2867444   3.4783399  41.7746782
  13.0021250   2.6844004  41.3220358  13.7766671   3.9680797  41.1141014
  19.1105020  10.2660084  15.5692792  19.3392813   9.3429077  15.4607534
  19.9463618  10.7020509  15.7349217  64.5635605  27.7294588  22.4687028
  64.7343349  27.5466776  21.5447664  65.0943470  27.0885706  22.9417300
  12.0956171  57.7493095  59.6005869  11.9524288  58.0144691  60.5091143
  12.9594588  57.3370123  59.6047211  36.8468165  10.8974338  68.6810493
  36.8753600  11.6882133  68.1424522  37.7081275  10.4966235  68.5638809
  64.4645500  72.5163317  28.5937047  64.7882271  72.0357084  29.3555856
  65.2205420  73.0174160  28.2877183  65.3930092   7.8151482  38.8034630
  65.5309296   8.7388927  38.5939240  66.2742567   7.4649668  38.9338732
  34.2215443  32.4216461  47.2836542  33.7960911  33.2092667  47.6225805
  34.3769336  31.8811846  48.0582428  12.3408961  31.4943099  23.0562186
  12.6309395  31.8204284  23.9081311  11.3859022  31.5489364  23.0913329
  14.8614407  36.6480541  26.0959053  15.6063449  36.1240387  25.8013606
  14.1613185  36.4376235  25.4780245  40.8715677  14.9126923  24.9289918
  40.3296375  14.1509223  25.1345420  41.7048788  14.5423210  24.6380472
  10.1339424   7.8863132  56.5100718  11.0426950   7.7989614  56.7977667
  10.1972198   8.1150156  55.5827522  20.6528878  25.3713703  66.9809914
  20.9806991  24.7831225  66.3007450  21.3949585  25.4887652  67.5741053
  25.4080653  17.0712698  51.7432499  26.1761570  16.8229949  51.2288332
  25.3689265  18.0248773  51.6702366  19.2057097  44.2974472  57.7563858
  19.0699399  44.7824049  56.9423723  18.3273518  44.1926146  58.1220722
  30.1208830  33.1807065  28.7816119  30.8652663  33.7646151  28.9271259
  30.4656649  32.3050070  28.9562750  83.1819721  79.4777051   2.4970098
  82.3314710  79.1319892   2.2261617  83.3742137  79.0246998   3.3180219
  83.5886002  75.5389786  23.2429838  84.2290688  75.4517365  22.5369954
  82.8698826  76.0374308  22.8541112  75.1726484  57.4060392   1.1821896
  75.9664392  57.3777246   1.7163497  75.4124117  56.9548273   0.3727744
  81.2203789  11.1512184  50.1989651  81.0890102  10.6895065  51.0270929
  80.4701042  11.7418909  50.1324224  18.1199419  27.1542072  51.1863422
  17.7145922  26.3059282  51.0064936  17.7773869  27.4063587  52.0438433
  62.2793102   6.2281853  57.6958704  61.5812826   6.0102475  57.0782232
  62.5347328   7.1209049  57.4633980  31.9402885   5.5361843  19.1359866
  31.1706877   5.0310099  18.8737905  32.0686746   6.1636376  18.4246135
  46.6537762  76.8172121  30.4676628  46.2329626  77.1420431  29.6716523
  47.5890207  76.8237638  30.2639341  42.5495815  48.2763147  10.3981519
  41.9224119  48.2194281   9.6772814  42.0064163  48.3432341  11.1834693
  76.9142008  37.8393650  29.0044475  76.3964462  38.6041474  28.7529206
  77.7434111  37.9478025  28.5387373  31.5591002   9.5314729  42.9040718
  32.3552370   9.7609884  42.4247789  31.7352033   9.8029459  43.8049173
  57.6080465  66.1262274  59.8453140  56.7102337  66.3286734  59.5822954
  57.9226303  66.9290018  60.2610302  63.7506008  67.2730255   5.1479328
  64.4124842  67.4095488   5.8258015  63.1109333  66.6869354   5.5523479
  26.4014935  32.2752643  45.8903599  25.9298015  32.6572323  45.1501989
  25.8031154  32.3717189  46.6312170  28.8478923  50.9109640   8.0777639
  28.4442949  51.6903973   7.6958883  28.8430142  51.0762262   9.0205777
  57.2109699  32.1369815   8.0069751  58.0936956  32.5061703   8.0338562
  57.2467661  31.4811039   7.3107183  63.5786772  34.1446471  41.8397665
  64.2417479  34.8046756  41.6374493  63.8989830  33.7193489  42.6352262
  17.0828843   9.0968955  12.7246296  17.9005635   8.7194920  12.4002850
  17.3109543   9.9962455  12.9599714  52.4784374  73.9905977  28.4891558
  52.7397156  73.0796480  28.6238170  52.3466825  74.3350554  29.3724585
  61.5257978  56.9244623  33.5703373  60.6849194  56.9643354  33.1147408
  61.2941647  56.7898273  34.4892788  68.7045860   5.8879888  16.5262234
  69.4711542   5.9045821  15.9532237  68.6788416   6.7613292  16.9171786
  27.6077104  25.4784870  57.9319668  27.1173859  26.1425734  58.4165335
  28.4973288  25.5357313  58.2805777  23.6170244  19.6222961  45.5290031
  24.1085410  19.9653566  44.7827101  22.9802918  20.3076053  45.7318735
  59.7834492  38.2039213  43.7906694  59.7459793  38.3484888  42.8451920
  58.8695955  38.0910182  44.0521097  50.2477503  44.8185253   2.9507524
  49.7782278  45.2670097   2.2474459  51.0543633  45.3222895   3.0594832
  14.5842695  17.1680403  60.9658384  14.7943294  17.7944303  61.6584730
  15.4215777  16.7553258  60.7541466  25.3102756  33.4284806  54.0977573
  25.2810001  33.8607955  54.9512672  25.8777070  33.9865422  53.5659456
   8.5447150  25.0278902  19.1274714   9.3310428  24.7346163  18.6671340
   8.7895471  25.8724403  19.5056593  13.6664081  37.8206635  47.5168324
  14.2116201  38.5406590  47.1996880  13.9671516  37.0573258  47.0237827
   9.5005554  70.5667830  64.6812344   9.0167528  69.9696445  64.1106272
   9.0056181  70.5688095  65.5005407  76.6197252  39.6673942  34.7208047
  75.8318472  39.5750237  34.1851330  76.5650702  40.5544853  35.0762153
  33.8850212  20.5497694  31.5870214  33.5099101  21.3185644  31.1575127
  34.7786474  20.4981232  31.2479043  46.7910290  44.1050959   9.1856372
  47.6352501  43.6544561   9.1644704  46.4700794  43.9706993  10.0773549
  65.0628233  78.3912086  62.4034262  65.9748840  78.5365438  62.6549339
  64.7022581  79.2707634  62.2911549  79.8420906   6.5736449  34.7595859
  79.9834728   7.1517146  34.0098667  78.9303112   6.7238384  35.0092459
  51.2151289  10.8303988  30.0601745  51.2706137  11.7280269  30.3879166
  50.3552341  10.7805920  29.6426415  51.3328838  64.6872663  11.5441394
  51.1040735  65.2216530  12.3046052  52.2699022  64.8375177  11.4190137
  16.5284371  46.9261742  56.4139223  17.1408653  47.4603796  55.9081697
  16.4639723  47.3710060  57.2590256  49.8740005  43.9003134  11.5563357
  50.7628536  44.2011023  11.7452598  49.9950886  43.1208515  11.0141110
   8.7874579  21.0432243  38.2484841   8.7685591  21.3915753  39.1398478
   9.3878126  21.6215396  37.7780008  37.7710104  57.4931335  63.3165407
  37.8155231  58.4371948  63.1649017  37.5428247  57.4097586  64.2423964
  55.8674240  33.6765122  15.4033124  55.2881718  33.6634851  14.6413875
  56.0100746  32.7531910  15.6115460  49.8900843  26.4054012  58.6891031
  49.4064236  25.8366823  58.0900526  50.7366657  25.9725118  58.7992668
  32.3560333  76.8499231  52.6576042  32.6713634  76.5885067  53.5227442
  31.6912007  76.1973190  52.4377346  56.4848471  16.6916168  62.1466923
  55.7468128  17.1586502  62.5383759  57.1771908  17.3493862  62.0816183
  13.2750559   3.6489886   1.3386531  13.8683355   3.5575470   2.0842326
  12.4468410   3.9335218   1.7250915  79.8026085  11.0995781  20.9170794
  80.4424095  11.2055230  20.2130437  78.9693785  10.9657300  20.4653668
  59.7844505  70.8767509   2.6862216  60.0446749  69.9784136   2.4824928
  59.4862509  70.8394718   3.5950223  33.1359601  17.3733509  45.0392675
  33.6517024  18.0065084  44.5399141  33.7151599  16.6177678  45.1385498
  11.3097501  34.4123888  61.9612885  11.0155094  34.6008778  62.8524256
  11.5280497  33.4804893  61.9732094  27.5939631  11.8426073  27.6822472
  28.4131861  12.2356868  27.3812580  27.6706433  11.8300879  28.6362886
  67.5387859  53.1160450   0.2211768  66.8323660  53.3512354   0.8227493
  67.4536180  52.1691084   0.1102845  23.0442929  63.3937263  19.2212498
  23.4643054  62.7323914  18.6712909  22.1765780  63.0348396  19.4070005
  55.3729773  61.2010145   9.9197429  55.7452106  60.3209114   9.8641318
  54.9836159  61.3512611   9.0583158  80.0186539  74.2877436   4.6009317
  79.6822119  73.7735128   3.8670376  79.2391491  74.6746016   4.9996105
  52.4371195  78.7769032  53.9951515  51.4999485  78.8594437  53.8187170
  52.7062225  79.6519709  54.2745638  53.8169003  73.0132675   3.7961420
  54.6910000  72.8201389   4.1350895  53.9625645  73.6777067   3.1226900
  74.0436363  63.0463409  19.5841181  74.1758680  63.8695240  19.1138899
  73.1135559  63.0464745  19.8103547   9.9909121  75.2755070  61.8670750
   9.6936619  74.5042658  62.3498392  10.6799507  74.9460316  61.2900925
  34.5428324  11.9335663  29.4245076  33.6854243  11.9867480  29.0023041
  35.0528741  11.3539362  28.8587189  41.3033962  23.8317776  62.1939421
  40.6036615  24.4739151  62.0745182  41.6888523  23.7328792  61.3233805
  57.4902010  67.5469828   1.3940819  57.8751659  66.9367075   0.7651167
  58.1711864  67.6707840   2.0552647  28.3697963  52.3887777  63.4534979
  27.6417780  52.2728968  62.8429270  28.8040113  53.1894827  63.1592703
  18.1271458  17.1063590  36.3700604  18.4935439  16.6896522  35.5900979
  17.6262760  17.8487396  36.0320807  53.0409098  27.4504185  48.0650473
  52.6075935  26.5983558  48.1146479  52.7805519  27.8023386  47.2138166
  63.1978273  47.6647043  57.8219891  63.6410856  47.2142601  58.5409212
  62.2793722  47.6970148  58.0896139  76.7920065  51.7651606   7.8147185
  76.9108200  51.5018415   6.9021511  76.1116600  52.4377441   7.7832943
  35.0756073  18.5572875  43.1555748  35.2836323  17.6291430  43.0483055
  35.7304430  19.0122652  42.6260328  33.9385080   6.3682210  60.9106827
  34.6670723   6.3369030  61.5307236  34.1970229   7.0313752  60.2706623
  75.9496689  66.5850067  30.3742647  75.1146269  66.2909508  30.0102997
  76.4122772  66.9713688  29.6306586  73.1108236  52.4469852  24.2956614
  73.9455414  52.5559855  23.8400388  72.7970314  51.5863419  24.0180707
  73.5534954  61.4771223   7.7710348  73.3211899  61.9403028   8.5758513
  72.8744793  61.7290688   7.1451831  20.9099388  54.7770071  62.4321079
  21.0371089  54.5857906  61.5028667  21.2865281  54.0228176  62.8855562
  58.4766865  59.3310499   5.2342874  59.2305851  58.9225435   5.6597120
  57.8349495  58.6252785   5.1549143  44.2283916  39.0578532  67.2045135
  44.5750570  39.3765759  68.0378628  44.2594290  38.1042361  67.2812176
  73.4809971  70.0731897  11.9027436  73.2049847  69.3308020  11.3652432
  72.8322411  70.1145220  12.6053357  68.1310749  -0.1528607  53.7122917
  67.7400780   0.7176288  53.7871504  68.7559032  -0.1978180  54.4360352
  13.0129087  69.5859909  12.4873579  12.4927032  70.3581572  12.7095699
  12.4213636  69.0394211  11.9700885  82.7362442  67.0150995   0.9582472
  83.4082603  67.6967144   0.9636452  82.4839211  66.9348097   0.0384024
   9.9722737  17.8871858  20.6578851   9.5332181  17.0602357  20.8569241
  10.2765858  18.2072520  21.5071106  60.2153301  42.5906324  57.5343513
  60.7829189  41.8410110  57.3550558  60.7416487  43.3527660  57.2927427
   6.3815957  63.9485788  27.7929974   5.6723678  63.7787199  28.4129786
   5.9435678  64.3031216  27.0192623  46.0340452  10.4559863  54.9606180
  46.3611412  11.2054658  55.4581308  46.7623425   9.8348606  54.9566698
  48.0774689  69.5420074  40.4546165  47.4556589  69.7332954  41.1567497
  48.1457043  70.3617811  39.9651885  51.5686560  19.3396449  59.7901630
  51.5943146  18.8719428  60.6249237  52.0722818  20.1382923  59.9475098
  55.2033615  53.3940268   7.6304281  56.0842991  53.6315203   7.3409778
  55.1071644  52.4761295   7.3765755  58.2791996  44.4774055  66.2910604
  58.1727219  43.5288382  66.3625860  59.2246962  44.6074438  66.2178469
  72.4219942  57.0143127   1.0907326  72.4367142  57.0672035   0.1351084
  73.3261871  57.1855640   1.3540457  47.2497702  31.0038400  47.2931099
  48.0052948  31.5816474  47.1856070  46.4929295  31.5657091  47.1266079
  28.2694173  13.2697511  67.9933739  27.3730445  12.9350770  68.0205631
  28.3275962  13.8599992  68.7446785  82.1547890  69.9756336  20.1082540
  81.2325668  70.2222300  20.1783633  82.5569344  70.6902504  19.6144557
  70.9250689  74.5743179   2.3996131  70.2050447  74.1840458   1.9041446
  70.8845568  75.5066776   2.1867882  67.5778341  54.1191244  45.8523178
  66.8502808  53.6712360  45.4206991  67.3134851  54.1755056  46.7705631
  33.3332753  30.4710078  45.2472830  33.4071302  31.0863447  45.9767628
  34.2010665  30.4731488  44.8433399  47.4965096  31.0714245  49.8650503
  47.5630951  30.9340024  48.9201117  46.5571833  31.1543393  50.0294209
  38.7298441   2.3170443  63.0290270  38.9798427   1.3942352  62.9826021
  37.8359628   2.3061037  63.3712101  12.5701737   5.8188832   4.8476857
  13.5186183   5.8277327   4.9765530  12.2175598   6.2328917   5.6353986
  14.1976857  30.4834414  57.5404453  14.6710157  30.0774264  56.8142653
  13.2750821  30.4085255  57.2966814  72.6312876  41.4878035  59.3154478
  73.0902195  42.2705698  59.6202278  72.6789236  40.8797503  60.0531721
  77.9598236  21.6304708  62.5383854  77.3324680  21.0315943  62.1334171
  78.7267113  21.5965915  61.9665718  37.5654435  24.2905951  51.6582775
  37.2677493  25.1700711  51.4256096  38.5074806  24.3040371  51.4891148
  74.6868563  27.8118086  41.0868263  74.1289949  28.3556747  40.5307388
  74.7170305  26.9653320  40.6409550  77.6543760  11.5728378   5.0151622
  78.5293150  11.1989367   4.9107003  77.7805853  12.3167992   5.6040806
   5.3578734  10.9690964  23.0957007   5.2119422  11.4781892  22.2983551
   4.8323423  10.1783001  22.9745030  78.1242418  62.2848320   4.6362627
  77.2520113  62.6761770   4.6841541  78.2907677  61.9617844   5.5217803
  43.0531263  29.1570926  56.4160824  43.8847065  28.9387321  55.9953403
  42.7553129  28.3325243  56.8003082  75.5820608  18.2199991  67.4115562
  75.8916664  18.9771044  66.9143963  75.6143904  17.4944973  66.7879915
  77.6471853   0.4422470  36.7905307  77.0045328  -0.2668242  36.8116808
  78.4948111  -0.0022524  36.8040657  62.0342159  32.9567170  63.2726336
  62.7036047  32.2855020  63.1399059  62.4871731  33.7831426  63.1050539
  55.1334715  32.1465373  40.9880114  55.8265495  32.4629283  40.4085541
  54.9523544  32.8845811  41.5700054  58.1851578  15.5585861  45.2116489
  57.2644138  15.8199036  45.1982403  58.1737185  14.6575129  45.5343962
  73.6751461  31.3129568  64.5825386  72.8091478  31.5783739  64.8920965
  73.7266493  31.6571903  63.6908627  59.5768309  75.0142908  42.2703552
  58.6935663  75.1024818  42.6285458  59.9965286  75.8537340  42.4585485
  47.1194935  72.4132538  35.3726244  47.8264952  73.0520678  35.4636931
  47.2805023  71.7768669  36.0692739  38.8142538  52.6445532  42.8125191
  38.1338596  53.2776308  42.5833750  38.5676765  52.3325586  43.6832047
   8.0200815  67.7233410  44.0378571   7.4612200  68.3475876  44.5006943
   8.8398290  67.7235365  44.5320702  35.3399634  64.1677189  36.4588118
  34.5613003  64.3506813  35.9330368  35.5667305  65.0103426  36.8522429
  69.7624016  23.9260817  62.1927261  70.4198074  23.4209919  61.7142582
  70.0010777  23.8184619  63.1134272  72.1439838  46.9087839  57.5566339
  72.1216869  45.9813166  57.3209715  71.9275904  46.9242859  58.4889221
  40.3152275  73.9268541  45.9187937  40.6237459  73.0805397  46.2425184
  40.8870459  74.1222429  45.1764488  34.2679811   6.3280565  29.4841027
  34.6774507   7.0004982  30.0285196  35.0031447   5.8450830  29.1066051
  78.3596945  11.9194615  60.2607155  78.4529686  12.8635824  60.1335621
  78.3664274  11.5566730  59.3749571  50.7532072  44.8281527  57.1828985
  50.5752850  44.0796280  57.7523565  50.4471016  44.5503807  56.3195467
  71.6774082  57.6704931  61.9765139  72.1164417  57.8543425  61.1460447
  72.3140812  57.9232168  62.6451063  39.7753382  30.8414006  47.5996876
  39.5260453  30.8629894  46.6757727  40.7309961  30.8950830  47.5912237
  68.1814194  47.4818087  46.4554310  67.6547241  48.1086731  45.9595871
  67.7485514  46.6399860  46.3133335  52.3163748  77.5558901   8.7099433
  52.6551962  78.1282234   9.3983233  51.3676357  77.5646257   8.8366038
  73.2373238  54.2202854  26.5856385  73.9405107  53.8375282  27.1102858
  73.1465244  53.6286163  25.8386993  48.1429482  44.0831900  63.9935255
  47.3893452  44.6733046  63.9847326  48.8421011  44.5812225  63.5699940
  56.1236000  30.2395296  53.5332251  56.3870716  30.7653308  52.7780104
  56.2996197  29.3363953  53.2694149  52.9310942  15.8952212   2.8637415
  52.1265078  15.3831565   2.7820829  52.7267694  16.7309070   2.4440852
  38.4299207   4.1679376  17.6665032  37.7107644   3.5700816  17.4625039
  38.4100008   4.8157275  16.9620860  61.2997866  70.0369644  45.8185720
  61.8988419  69.6503019  46.4572096  61.1370420  70.9210205  46.1474943
  13.7106025  37.7043676  53.7094355  13.6586976  36.7660737  53.5273838
  12.9917192  38.0861902  53.2058001  50.6533337  45.1192141  53.3243322
  50.5537558  44.5707750  54.1024876  51.5530777  44.9651814  53.0362892
  19.5421112  16.8031657  17.9827273  19.2564034  17.6491106  18.3276629
  20.0893378  16.4342701  18.6760461  54.5172215  55.8028698  68.9506292
  55.1090384  55.0691748  68.7842703  53.8467073  55.7284641  68.2715797
  67.8005695  23.2212162  52.0756865  68.4167242  23.9133286  52.3156166
  67.5867605  23.3979034  51.1595535  26.0935116  34.9146533   2.6652759
  26.2808776  35.8149242   2.9310524  25.1583171  34.9148774   2.4612039
  52.1385574   0.4954782  11.0022581  51.5623045   1.1584645  10.6219804
  52.9216099   0.9800957  11.2634349   0.1471584  59.4330215  27.3438907
   0.5399959  60.3057241  27.3263931  -0.5413182  59.4669104  26.6797543
  59.8169088  33.8278508  55.9880400  59.2524052  34.1602969  55.2901506
  60.0633955  32.9493546  55.6986904  14.4259453  58.4853363  13.1021774
  14.7503340  57.6237774  13.3643091  14.5900369  59.0443039  13.8616931
   1.3345635  62.5305414  51.2408686   2.0331454  62.2316313  50.6587410
   0.5989467  62.7154255  50.6569862  69.5359993  42.9929018  41.4926338
  70.3575230  42.7381420  41.9126701  68.9003658  42.3452663  41.7972183
  60.6958246  47.0548439  64.7803354  60.4040575  46.4829445  64.0703773
  59.9360895  47.6043797  64.9728107  43.7886095  60.2325153  50.4144812
  43.3611345  60.0563383  51.2526131  43.0771017  60.5060863  49.8355627
  57.4164057  42.4900055  53.8628769  56.7845583  41.7957687  54.0500498
  57.5571585  42.9196119  54.7065926  39.6085215  78.8707352  67.5679636
  40.5289030  78.8822365  67.8306389  39.2617345  79.7089338  67.8735685
  10.0678992  72.9664898   5.9499514  10.1611280  73.3532381   6.8205631
   9.3529892  72.3368120   6.0428959  53.0893850  66.9344711  61.6613197
  52.3056698  66.4462519  61.9136524  52.7576542  67.6716089  61.1486673
  45.3557348  78.7426710  27.8714490  45.5264378  79.6773577  27.9874492
  45.5597830  78.5742903  26.9515347  54.1336250  52.3947287  43.0148077
  53.7438536  53.0776501  43.5606384  53.6978579  52.4874401  42.1676111
  23.5574579  35.2753711   2.0378622  23.0855441  34.6635342   1.4728989
  22.8703594  35.7307339   2.5244543  22.2066808  78.0536318  21.4692950
  22.3029971  77.6952219  20.5869699  22.0110083  77.2931671  22.0166826
  23.2873368  16.0430574  63.4094620  23.4281921  16.8220985  63.9475012
  23.5284233  16.3164568  62.5243855  66.3550949  46.2122154  40.2451992
  66.2856436  47.1653891  40.2988052  67.0419359  45.9864569  40.8725071
  53.9492846  47.0993042  62.6715231  54.0349245  46.4102221  63.3303595
  53.6820221  47.8730774  63.1675816  71.4249802  64.3262005  63.3572340
  71.2994242  64.8567820  62.5704956  71.3264084  63.4232044  63.0553865
  51.6066599   8.3515561  48.1243229  50.7670212   8.4772199  47.6822233
  51.3733292   8.1733876  49.0353918  58.2814646  60.9402990  58.9664602
  57.7237463  60.7001591  59.7064018  58.0201626  60.3428173  58.2657671
  68.1052971  73.7096119  29.9219871  67.6362371  74.0681791  30.6754088
  68.6416817  73.0056667  30.2866507  40.0823927  74.1899061  24.3827820
  40.3884745  73.3712292  23.9925075  40.8410454  74.5261526  24.8598671
  39.5873451   3.5903862  10.9603286  38.8675141   2.9804847  10.7987833
  40.3708315   3.1146133  10.6846070  43.3588409  17.9839432  53.0659962
  43.9239788  17.7091634  53.7880373  43.9454699  18.0434418  52.3119688
  71.0247946  48.2013845  44.8045492  70.3347158  48.7380838  45.1943922
  70.9943914  47.3794603  45.2941942  51.8935442  22.7566147  43.3616209
  51.0288239  23.1663156  43.3868361  51.8087149  22.0579123  42.7128935
  71.0171127  69.6341133   6.3206005  71.2321424  70.0718403   7.1442461
  70.0609159  69.6537399   6.2814540  60.8316278  12.6279092  51.2188101
  61.6969967  12.3091877  50.9623194  61.0010767  13.4741902  51.6327238
  19.0117705  14.0131927  18.9497054  19.3334925  13.1289744  19.1254473
  18.6038303  14.2873001  19.7710943  36.9796944  28.0398154  48.0709600
  36.6091466  28.2836270  48.9191818  37.4500251  28.8216043  47.7814245
  84.2106247  22.5683117  66.7845106  83.7480831  22.4009085  67.6056433
  83.5163498  22.6470709  66.1302805  67.7473783  68.0564260   6.5393907
  67.9049540  68.4063673   5.6624973  66.9330120  67.5602722   6.4564991
  42.4083471  76.6369057  64.8216152  42.0823765  77.5286102  64.9434280
  41.6341066  76.1302614  64.5764542   3.7243623  64.7216415  15.2060020
   3.6230353  65.6075239  14.8579025   4.1478294  64.8450899  16.0555124
  51.1898518  73.7369585  13.2238913  50.3419685  74.1804838  13.1990063
  50.9719372  72.8068686  13.2845294  60.9127522  27.0515370  23.0074167
  61.6267252  27.6880479  23.0439019  60.3741884  27.2515726  23.7730312
  53.9867163  62.1389675  59.9230528  54.7688866  62.0061684  59.3875122
  53.8438225  61.2951231  60.3517008  83.0479527  50.3617191  22.8821206
  82.3948669  50.9565449  22.5134826  83.1777573  49.6986294  22.2041154
  50.4618645  63.5451603  55.9691477  51.2732124  63.4160519  56.4603519
  50.7482815  63.6895752  55.0672913  57.6105022  51.2532282  47.3270178
  57.9141140  50.5013371  47.8356600  57.4588776  50.9030581  46.4491701
  61.3322687  29.3497038  65.3317738  60.7828856  28.9113665  65.9815979
  61.9794035  29.8288798  65.8493042  33.0703640  24.6715450   0.6373022
  33.5443687  25.5028772   0.6163527  33.5120106  24.1610551   1.3159615
  30.3396845   8.3819920   7.8987676  30.6159425   9.2978430   7.9323941
  31.1564994   7.8840601   7.9320610  39.4299674  55.2651644  38.9255929
  38.8273740  55.6126547  39.5831370  39.6268964  56.0133696  38.3620000
  48.2046747  71.2404823  61.6862440  47.5390053  71.2451410  62.3740673
  48.9239931  70.7260752  62.0525646  42.7049589  67.7386951  59.2908430
  43.1010580  68.5093451  59.6975803  41.9111013  68.0705738  58.8714647
   5.9337878   6.4870411  52.5069332   6.2483430   6.3471758  51.6137791
   5.0148004   6.2204742  52.4817085  42.7835751  73.2310152  37.7653885
  43.1405497  72.5329924  37.2162390  42.6007175  72.8065062  38.6035943
  15.4572630  37.3857903  14.4633222  15.0931084  36.5304136  14.6912539
  15.8152544  37.2669792  13.5835731   3.8020951  65.7116890  20.9687424
   3.8634759  65.7395697  20.0139189   4.5412499  65.1675940  21.2404799
   8.3414602  50.0894976  43.1714249   8.1350881  50.7207012  42.4820614
   7.5257289  49.9971676  43.6636543  56.0695553  56.4366484  55.5740452
  55.8731365  55.6489325  55.0669384  56.5377760  56.1149788  56.3444519
  75.0706148  12.8859758  16.0738516  74.5501804  12.9418540  16.8752611
  74.9396563  13.7310493  15.6438136  60.7441902  34.4506431  41.6780519
  60.7104301  34.7671270  42.5807858  61.6676044  34.2464709  41.5302038
  24.9158931   4.9237105  67.9780006  25.1294327   5.3400832  67.1429777
  23.9941978   4.6791613  67.8949165  66.7337656  69.8126984  48.0546427
  65.9415150  70.2480173  48.3693933  66.5097666  68.8820887  48.0495167
  11.6196167  21.9993544  25.9249783  11.4586437  22.4310279  25.0859451
  12.1462107  22.6269078  26.4200616  62.7695751  68.2483053  53.2505274
  62.4576521  67.4274445  53.6314869  63.6363029  68.0371809  52.9034853
  15.8369923  49.4672346   9.6907258  16.0638332  50.1080751  10.3645945
  16.3044310  48.6727619   9.9486911  56.8080330  63.5614157  57.3481607
  57.1162462  62.7714777  57.7922678  57.5149870  63.7877131  56.7438126
  29.8506403  67.3664093  56.2436819  29.2384195  67.8115845  55.6578159
  30.2160597  66.6574621  55.7144403  81.8131161   2.6564869  18.2070625
  81.9200802   3.4592921  17.6968718  82.5595951   2.6522222  18.8062191
   1.7539160   2.8287026  36.5533447   2.6329488   3.1895447  36.4379048
   1.4405204   2.6718384  35.6626105  25.2514100  78.4819794  57.8445387
  25.4068017  78.1923676  58.7435436  25.0786328  77.6750898  57.3594475
  34.0170097  19.2908704  13.1898642  34.3619037  18.9363134  12.3703718
  34.4721031  20.1257372  13.2999492  50.5016279  56.6728687  45.5225420
  50.7768059  55.9419203  46.0759115  50.8267879  57.4513102  45.9747934
  55.2244997  58.7666035  32.4379396  55.7869816  59.3162966  32.9835391
  55.7607222  58.5608816  31.6721869  81.1923218  64.5127058  64.5799446
  81.1171341  65.2972937  65.1230860  81.8650055  63.9860916  65.0116777
  48.2688808  20.7805490  23.1374192  48.0807304  20.1893806  23.8663578
  48.3881378  21.6368771  23.5481668  50.4662228  24.5945764   1.8769687
  50.2463675  24.0774465   1.1020659  49.7438383  24.4348979   2.4843384
  32.6406527  12.1628726   4.3492523  32.3565125  11.3208246   4.7048527
  33.5653067  12.2243607   4.5889759  23.3512688   8.4632510  40.0640726
  24.2321706   8.1937265  40.3240824  22.7790689   7.7792835  40.4119349
  69.7271109  38.7368870  65.7137108  70.5765963  38.4425473  65.3851271
  69.3296385  39.1951895  64.9733019  19.9233472  74.0367317  40.5809641
  20.3574443  73.2223368  40.3268862  20.6093931  74.7017813  40.5237246
  39.1829944  62.8935051  37.3454332  38.2381630  62.9799080  37.2186995
  39.4469285  63.7198353  37.7500939  16.3634825   7.1714669  55.7202911
  16.8231332   6.4234787  55.3388882  16.3809586   7.8386009  55.0340986
  51.1937809  69.3415451  50.6535721  50.8023691  70.1010609  50.2221060
  50.5525875  68.6410522  50.5335093  19.4151413  71.6700602  68.0133772
  18.5212684  71.7847776  67.6907873  19.7911978  70.9992218  67.4434710
  69.4190741  74.7912073  55.4743862  69.1986513  75.1787090  54.6273375
  70.3736973  74.8439217  55.5207396  56.7271233  75.6036472  51.8074656
  57.5655222  75.9391642  52.1248770  56.0898066  75.8967876  52.4587154
  55.8570623  62.2941303   1.6042084  55.6895542  62.6150465   0.7181008
  56.7962217  62.4265385   1.7333513  45.5014086  50.2851439  37.9087996
  45.2119970  51.0193539  38.4504724  46.3337994  50.0149393  38.2965422
  72.7759981  74.6853399  49.8146439  73.3180761  75.4196167  50.1031208
  72.3938751  74.3384933  50.6208134  38.5622883  75.2190638  50.0113773
  37.8431630  75.7874346  50.2871323  38.1411767  74.5362091  49.4892550
  49.4803715  68.2003546   0.7106318  49.4395733  67.4197912   1.2631604
  48.5695124  68.3730698   0.4724438  53.8335896  58.6876106  41.0460138
  53.4247875  58.9829636  40.2324533  53.1562519  58.8074303  41.7116642
  81.9132137  47.9980850  54.5300770  81.2251091  48.4696388  54.9995279
  82.7295876  48.3584452  54.8763609  18.1459141  58.3150816  33.4842587
  19.0154064  58.4555817  33.8590574  18.2837284  57.6628542  32.7973533
  68.1932640  49.1587830  42.3251438  68.9956665  48.7370443  42.0177031
  68.4968519  49.8577023  42.9044390  48.0000591   5.8751535  12.0558000
  47.0709705   5.6783468  12.1753287  48.0188894   6.7986107  11.8045962
  61.2050772  73.3736897  43.9782763  60.8649778  73.5609245  44.8532057
  60.7949257  74.0309715  43.4161520  30.1039958  15.6488729  11.9882083
  30.8765149  16.1069322  12.3193097  29.3931127  15.9313655  12.5635982
  54.5361853  74.7634506   1.8909696  55.4666185  74.9555874   2.0076521
  54.4622374  74.4821453   0.9790324   9.4895339   5.0227851  41.9465923
   9.6082926   5.7141775  41.2953568  10.2526736   5.0995255  42.5192738
  22.5642085   6.8066835  46.1672735  22.9193234   7.6587290  46.4205408
  22.8799963   6.2054813  46.8418598  46.2080383  78.6793423   0.8712457
  46.9848204  78.2446718   1.2232466  45.4742622  78.2575035   1.3182965
  31.7050290  51.6046381  67.6410770  31.6666126  52.3862076  67.0898008
  31.6769600  51.9415617  68.5365772  11.7989051  39.0166998  10.0651419
  11.8960762  38.8818741   9.1224802  12.3013592  38.3051229  10.4619157
  49.1885567  49.5230293  63.3211613  49.6066380  48.8955116  62.7315331
  48.5018349  49.0197802  63.7586403  22.5761318  78.1407499  45.8012342
  23.3188558  77.7363777  46.2496471  22.9443336  78.9179373  45.3809500
  68.6672115  73.4620571  60.9606361  69.2507601  74.1464281  60.6330109
  68.6266613  73.6136770  61.9048834  56.9863605  48.1821012  45.5669069
  57.6857424  48.3740568  46.1916018  56.3014603  47.7698183  46.0933781
  25.2147627  77.1204138  46.2059307  26.0173941  76.9643641  46.7035866
  25.4548669  77.7934456  45.5690527  38.5183835  42.1803617  14.8223042
  38.7167215  41.8050861  13.9643645  37.9667902  42.9387188  14.6302915
  70.6437922  46.7125750  62.6869440  71.0770845  47.3595619  63.2436275
  69.9612713  46.3368464  63.2430267  64.3428993  33.6254978  47.2634602
  64.0947151  33.9150882  46.3855219  64.9625683  32.9114461  47.1138906
   2.8234679  63.8154507  44.0684700   3.3093715  63.0280066  43.8233948
   3.3478037  64.5377636  43.7226820  40.1786041  48.0785322  11.7667687
  39.2791748  48.1269455  11.4428627  40.3383017  47.1430016  11.8912876
  12.3740029  55.2169657  18.0443811  12.8010714  56.0421038  18.2745743
  12.3309159  55.2281666  17.0882165  13.3732796  65.1256847  60.4639196
  14.2435527  65.5146122  60.5510521  13.3460367  64.7986221  59.5647383
  80.3509521  21.4710903  40.4968929  80.0670052  21.5413404  39.5854807
  80.5427170  20.5410194  40.6170034  63.5770512   1.4166921   9.9124640
  63.5711002   1.7161630   9.0033364  63.6195278   2.2212008  10.4293716
  20.9555531  34.4717669  62.7635670  20.4034996  34.2358065  62.0180511
  21.3099861  35.3314543  62.5365305  59.9335623  52.9567337   1.6000956
  59.3256664  53.5347080   2.0612215  59.6034479  52.0750284   1.7728715
  68.1454372  65.5218363  35.5064893  68.5149717  64.9360228  36.1671734
  67.5714397  66.1076832  35.9999895  60.9160042  61.1121321  23.0118155
  61.4880276  60.3447485  23.0235910  61.4291191  61.7998791  23.4360194
  31.8123984   3.2488135   9.9470067  31.1014295   3.3336264  10.5822694
  31.4591575   3.6245507   9.1406113  57.2493362  30.9320235  56.4093494
  57.4206114  31.0175300  55.4714870  57.9607630  31.4166951  56.8279123
  44.1095495  68.3892250  51.1188650  43.3365440  68.0763054  50.6489944
  43.9985085  69.3392038  51.1567974  24.9615979  12.5492692   4.0653864
  25.5406070  12.6442194   4.8216704  24.4691229  13.3695447   4.0362978
  57.9988384  66.0724401  49.0304184  57.2585154  66.6540003  48.8573885
  58.6415863  66.6277409  49.4717264  30.9158921   8.1734550  65.7670927
  31.6059685   8.7468553  65.4335642  30.1010942   8.6162865  65.5299520
  27.6562333  25.7754946  33.4038830  28.0915284  24.9419570  33.5826731
  27.9438448  26.3524961  34.1113997  82.9486465  60.5187321  50.6307554
  83.0083370  59.9017859  49.9013376  83.4907722  60.1307106  51.3176107
  51.2717962  61.6811991  39.7215152  51.7067575  61.9476652  38.9115572
  50.5180407  61.1677599  39.4308734  53.9467192  72.3842525  18.8523531
  54.0576887  71.4737272  19.1259587  53.0359793  72.4380112  18.5627139
  53.2114935  76.5417004  56.7557669  52.7713394  77.3470736  56.4839697
  52.7912092  76.3065100  57.5829792  43.7248707  23.5519838   9.7351497
  43.2961130  22.7096009   9.5841855  43.3013058  23.8990283  10.5202532
  50.9906816  38.4929657  54.1303062  50.9820032  39.1592288  54.8175097
  51.2567568  38.9657402  53.3416843  48.4243870  76.4422560  45.6960440
  47.6756811  76.0017252  45.2940416  49.1851091  76.0944319  45.2306938
  33.6171818  21.1128426  25.1918125  33.5407519  20.5139565  24.4490314
  34.5503759  21.3211203  25.2365160  47.2134638  63.8847303  32.1774745
  46.8016958  63.0258846  32.0822930  46.4863825  64.4800901  32.3594904
   1.1021730  72.8673887  32.7688146   1.2209971  73.5172033  33.4615278
   1.6835058  73.1575823  32.0659113  82.0514297   5.5101395  52.4324512
  81.8186283   6.4372879  52.3831081  81.2185574   5.0485551  52.3349714
   1.8684949  42.4339724  38.3147860   1.7802387  41.5088272  38.5440278
   2.6661718  42.4749756  37.7872801  62.9167747  72.6221037  53.9544392
  62.5225163  72.1297932  53.2344246  62.2043943  72.7390003  54.5829964
  15.3494358  27.8168321  18.5411012  15.7125187  27.2428656  19.2156124
  15.9862661  27.7804041  17.8274131  32.6185775  71.7794132  62.8787565
  32.7896953  72.4396324  62.2071505  32.2287488  72.2695684  63.6026430
  71.6731596   6.9235408   2.0358497  72.4251842   6.4834070   1.6396479
  71.2010860   7.3044050   1.2953639  16.9174874  46.4680862   6.1193091
  17.0756888  46.0117626   6.9457328  16.4460039  47.2622824   6.3706779
  19.5900953   6.5291464  24.6013975  19.5286107   7.4454522  24.8712778
  18.7487614   6.3455945  24.1834283  30.6154370   8.7208080  10.6322765
  30.3071761   8.5550702   9.7413564  30.8368468   9.6520185  10.6397665
  48.6728477  68.1419992  33.8600397  48.8909101  68.9761257  33.4442163
  47.9749250  68.3579206  34.4785190  50.0383568  58.8723373  32.4088573
  50.6634331  58.6787271  31.7102671  50.0759983  59.8237467  32.5070357
  12.5895667  20.3948450  55.8009958  12.4860978  20.2098250  54.8675632
  12.3922801  19.5638680  56.2331867  44.2454290  60.4887867  41.3857079
  44.3650532  60.5665636  40.4392004  43.8674545  59.6180058  41.5086031
  68.4293842   9.6207643  44.9909544  69.1960382   9.0639293  45.1266432
  68.7405777  10.3212059  44.4175625  51.2378979  28.3347559   9.4309503
  51.8642139  27.7012277   9.7810888  50.9718704  27.9677010   8.5879004
  22.5231791  25.7915187  62.9979181  21.8568540  25.1269889  62.8228617
  22.8498387  25.5786824  63.8721180  61.2042284  52.4148846  61.4613962
  62.1334791  52.6355648  61.3979006  61.0959530  52.0890284  62.3548841
   7.7801043  38.5238171  38.6051202   8.5621965  38.6653185  39.1385460
   7.2110438  37.9832911  39.1530561  11.0355890  52.3417282  64.3581867
  11.3039625  52.5590277  63.4654427  10.0791657  52.3250771  64.3234205
  63.9353752  47.1810484  46.2390327  64.5892334  46.4844894  46.1798048
  63.9141178  47.4112463  47.1678972  20.9151673  66.6080952   3.3733276
  19.9840343  66.5827656   3.1529152  21.1181855  65.7171106   3.6582184
  45.8355045  70.8128977  45.5741262  46.6702795  70.3501797  45.5014992
  46.0797358  71.7206669  45.7544994   3.5893664   8.7294394  41.8190098
   2.6644808   8.9600450  41.9064140   3.9881995   9.0246195  42.6375675
  64.0339947  32.4623084   4.9474511  64.3916416  33.0389118   4.2722854
  63.0848742  32.5421071   4.8523980   1.9727789   5.4167444  48.5266495
   1.5153128   4.6768805  48.1272030   1.3017333   5.8623755  49.0436983
  22.2299933   9.9547100  21.4248300  21.2857056   9.8492825  21.3089156
  22.4360394   9.4318593  22.1996880  44.9828053  41.3547230   0.6415538
  44.1172075  41.4673424   1.0343473  44.8107862  40.9326649  -0.2001773
  25.8096981  30.7254553   5.3022659  25.8045149  29.8347640   4.9517336
  26.1151457  31.2673807   4.5747697   8.2956332   7.1910483  29.1796637
   8.5509229   6.7580223  29.9942470   8.9788300   6.9479346  28.5548687
  33.9153886   1.9985734  19.4954383  33.9901090   2.9526475  19.4756484
  34.4797659   1.7291075  20.2200770  29.5542288  42.4783039  21.0907841
  30.4246688  42.1321583  21.2876225  29.6121001  42.7684927  20.1804686
  33.9692259  12.9590881  18.4408736  33.2351160  13.1118405  17.8459108
  34.3022847  13.8341224  18.6399150  74.2610741   1.0970692  47.9940367
  74.8916149   0.4902171  47.6062536  73.4572744   0.5845304  48.0803442
  82.3363304  46.4092731  30.9187889  82.3959637  46.9346094  30.1208568
  81.5934086  46.7802858  31.3948560  35.3072929  73.7758636  62.6102924
  36.0106683  73.2660055  62.2083759  35.6756663  74.0797615  63.4398603
   8.8886482  45.0654888   0.3026528   8.1394303  45.4951715   0.7153018
   9.5437783  45.7579136   0.2155427  32.6692224  16.7264795  51.2976122
  32.4842644  17.2491467  50.5173302  33.6193824  16.7785919  51.4011097
  39.2156291  31.6196704   2.3627672  38.9279461  31.3143730   3.2231528
  38.9479971  32.5382042   2.3327476  52.4336100  71.1594200  64.1464520
  52.5278997  70.8459949  65.0459576  51.7541170  71.8316984  64.1970539
  43.3060169  41.8835163  10.2423346  42.6805210  42.0844650   9.5461971
  44.0476179  41.4820814   9.7894430  48.9551592  66.9458246  59.9280548
  48.1481934  67.4605608  59.9368525  48.8775253  66.3919926  59.1512203
  14.8132539  32.3966908  19.3139207  13.8677526  32.5458622  19.3112123
  15.0043142  32.0868802  20.1992154  45.2652884  68.5427237   7.2905362
  45.6072569  68.2673025   6.4399874  46.0434580  68.7711048   7.7989936
  67.0184803  55.4236460  24.7137570  67.4575567  54.6070862  24.9518204
  67.3935127  56.0779285  25.3032398  62.5901508  42.5876141  64.4061184
  63.3611107  43.1444168  64.5148659  62.4349594  42.5752068  63.4616613
  67.8022909  29.2326951  28.1799579  68.2101822  30.0858235  28.0315328
  67.5557995  29.2427206  29.1048241  46.2366533   8.4875846   9.9346608
  45.5774832   8.6556709  10.6080639  45.8922625   7.7418464   9.4432354
   1.5181582  10.1553261  37.2116899   1.2634538  11.0679138  37.0755219
   2.4589911  10.1924038  37.3839998  60.8234501  74.0036345  67.9974127
  59.9962139  74.1325188  67.5334120  60.5648375  73.8041925  68.8971758
  54.9687052  75.8907747  67.3599577  54.8944187  75.6100178  68.2720375
  55.2201748  76.8128300  67.4129057  22.3802352   7.5383443   5.1719999
  21.7081785   7.1108013   4.6411696  23.1245160   7.6409912   4.5789224
  36.8433619  63.5202360  57.3394871  37.1065784  63.0129814  58.1073666
  37.6153612  63.5161448  56.7735958  70.4269409   3.4450561  19.7501588
  69.8765945   3.6324024  18.9897299  71.2022972   3.9922890  19.6253181
  25.5407691  19.2647421   6.1165661  24.7636008  18.9160836   6.5532339
  26.1673713  18.5412478   6.1290741  55.3678513  47.1064520  47.5277996
  54.6620417  46.4624548  47.5855112  55.2695847  47.6407719  48.3158827
  17.4979532  10.1717627  65.8373928  17.7848017   9.9106175  64.9623203
  18.3030558  10.4295969  66.2863493  61.1220598  10.2438927   3.4782726
  61.8040848  10.9153414   3.4934258  60.3761387  10.6696606   3.0557194
  82.6728153   6.1688620  25.4355216  82.7534676   5.8068937  24.5530796
  81.7293835   6.2115180  25.5915999   0.8218556  10.4999185  46.2948370
   1.6658732  10.2625465  45.9107542   0.1806663   9.9947059  45.7949686
  71.9086790  67.4978018  35.7850409  72.6554680  67.8030872  35.2699327
  71.1710835  68.0205965  35.4706097  68.4150028   1.3348588  62.7829695
  68.7715292   2.1700209  62.4802732  67.5947237   1.2353896  62.2997761
  63.4454727  48.4161472  52.4320221  63.8326454  47.5416136  52.3930120
  62.9963112  48.4417582  53.2769060  67.1194267  25.0386548  55.7743359
  66.9485474  24.8634124  56.6997147  67.9548216  25.5059028  55.7693386
   4.4829205  52.4970436  25.7633376   4.7927278  52.9977131  26.5180421
   4.3125254  51.6214085  26.1104035  65.5886412  49.9262094  61.7289495
  66.3662529  50.4637718  61.5786886  64.8861456  50.3879881  61.2712479
  49.9242783  49.9979830  56.3350391  49.9529123  49.0991497  56.0071611
  49.1800451  50.3945398  55.8821678  35.3676891  37.7278924  14.3929732
  35.0339293  38.6198640  14.2969334  36.2335134  37.7509665  13.9854825
  23.8236165   0.0944247  17.1236992  22.9703403   0.4167898  17.4139297
  24.2830777   0.8759469  16.8165362  25.8929253  37.9404426  14.6055543
  26.7367554  38.3900905  14.6502602  26.1131430  37.0416284  14.3608701
  45.5477571  69.0133858  61.6905880  45.7879877  69.6629381  61.0298300
  45.4328966  68.2011461  61.1973381  59.5980787  70.8537483  21.7060041
  59.5973301  71.7740965  21.9690490  59.9505329  70.3881598  22.4644494
  64.0509510  25.4853249  56.0661364  64.8851776  25.9398317  56.1832428
  63.4119606  26.0377192  56.5164566  51.4129639  78.9146996  60.6297350
  50.7927561  79.6005106  60.3822660  51.4233828  78.9351273  61.5866613
  24.8629785  63.4644794   2.8052592  24.2216063  64.0136671   3.2561111
  25.3971887  63.0940962   3.5078746  59.1245222  45.2015400  39.3564677
  59.7795677  44.5301056  39.5470595  59.0067816  45.1587486  38.4074998
  18.0229712  54.6796083  62.3127556  18.8559210  54.9170256  62.7202606
  17.6743293  53.9828014  62.8687620  61.6767788  51.7785883  41.7914009
  61.1691618  50.9671021  41.7844248  61.4246893  52.2257519  40.9834862
  65.6295252  31.0031366  41.9591904  65.1714659  30.2694178  41.5492249
  66.2854290  30.5916667  42.5219631   7.7476233   0.0798729  42.1650410
   8.3656949   0.5045097  41.5701437   7.7910089   0.6004854  42.9671097
  12.9343426  71.1154985  35.0132084  13.6691439  70.9531975  34.4216371
  12.3237431  71.6424656  34.4977403  67.7598381   8.3610636  28.8034749
  67.2924900   8.1993389  29.6230245  67.8412199   7.4970454  28.3996415
  70.6486130  68.4868908   2.6543283  71.1475229  69.2873001   2.8176036
  70.4888010  68.4925890   1.7105801  15.6876504  10.9004247  57.5031471
  16.4102554  11.3894010  57.8968191  14.9258924  11.1281765  58.0361462
  63.3990192  59.9308300  46.4449024  63.6589050  60.3529644  45.6260681
  62.6262617  59.4153595  46.2138844   6.1346674  70.0705910  35.4339838
   6.5009356  70.0493765  36.3180828   6.0543215  71.0024118  35.2303123
  49.5987892  12.6181364  24.8296714  48.8206482  12.7911985  25.3595567
  49.7660303  11.6831160  24.9479866  51.8186998  57.0391893  36.3671994
  52.4927568  57.1928930  37.0292068  52.0077181  57.6782084  35.6800604
  81.9840527  34.1549015  46.3991547  82.6286697  34.0735435  47.1020651
  81.9965839  33.3029842  45.9629059  62.4127817  15.0028157  65.0516224
  63.1149769  15.2382207  65.6580353  62.4778509  15.6481731  64.3476963
  27.0684147  11.3629985  18.5803533  27.6060510  12.1446979  18.4533727
  26.6164041  11.2448847  17.7449083  73.6298370  43.5292959   4.0398875
  74.3731785  43.5175467   3.4369469  72.9100418  43.8948584   3.5255986
  13.2862496   0.7792718  34.0951800  12.3344719   0.8730951  34.1345382
  13.4892249   0.7871889  33.1597805   1.6326693  51.1482286  60.0837755
   1.6390847  51.4307880  59.1692543   1.2901144  51.9015503  60.5648088
   8.8817883  58.2922173  55.8468485   9.0574050  58.8034153  56.6368246
   9.3343788  57.4616241  55.9935045  48.0605364  69.4574165  47.3594761
  48.4273005  68.6033916  47.1306658  47.4405766  69.2707348  48.0644846
  10.0519991  78.0390978   4.2596850   9.5276266  78.8388872   4.2997262
   9.4696516  77.3541832   4.5883155  75.7982111  12.8516388  58.4474087
  75.7001162  13.5912573  57.8477621  76.0278654  13.2519984  59.2859793
   1.9054939  51.3917923  12.0216787   1.3872840  51.9481850  12.6031590
   1.9931118  50.5652332  12.4963892  45.9769440  62.6177883  47.7807140
  46.7909193  62.6645803  47.2792244  45.8614731  63.5003614  48.1327963
  19.0984941  22.1981621   7.2226357  20.0529742  22.1555686   7.1644622
  18.8757777  23.0623984   6.8766254   9.1696763  26.5631700  15.3400517
   9.1043454  25.6105876  15.2726054   8.5350907  26.8924284  14.7035599
  69.6276855  45.1641417  55.7566071  69.8265028  44.6253633  56.5223885
  69.1682005  45.9250069  56.1118412  74.0811062   0.5428903  55.5202198
  73.1993484   0.3622359  55.1944923  74.6621180   0.2043685  54.8390007
  53.6342812  49.7833681  14.1704988  54.1755152  49.3065929  13.5412312
  52.8441000  50.0127554  13.6813879  46.2093973  63.9052105  55.5163288
  45.4858351  64.1251087  54.9295282  46.7780352  64.6748829  55.4942799
  71.4183903  14.5845211  64.2601204  71.4297152  14.6094835  63.3033133
  72.1260262  13.9832568  64.4924212  60.1937199  60.0827169  48.7561655
  60.9649277  60.2679443  49.2920351  60.3487349  59.2043114  48.4088755
   1.2591521  36.9942737  20.6534338   1.0795823  36.0542750  20.6338120
   0.6694746  37.3367953  21.3251400  63.0476475  75.4750395  12.6144052
  63.1138659  76.4272547  12.6860344  62.4184561  75.3312016  11.9075394
  33.6045361  21.4957237   5.5353040  32.8782201  21.7271614   4.9563986
  34.2271996  21.0407996   4.9682367  73.3106518  73.9571905  61.8731880
  73.2954693  74.6166754  62.5667906  73.6700821  74.4162512  61.1140394
  76.8837738  21.6092324  44.5520592  76.7729235  21.1926436  45.4066896
  76.0656261  22.0852685  44.4097281  70.2489901  52.6957417  49.7150469
  70.9795189  52.2746658  49.2619991  70.4001570  53.6330986  49.5936298
  54.6528769  60.4161739  48.8029480  54.5037985  60.3924465  47.8577280
  54.3839121  59.5502520  49.1096544  80.5894947  31.7017508  19.8533440
  79.7170067  31.5638041  20.2220941  81.0007572  30.8378673  19.8815322
   7.4350309   7.2778124  46.7007017   7.1086103   6.5836203  46.1281824
   7.1614552   7.0125353  47.5787735   3.7995103  24.1451216  66.8871927
   3.8330588  25.1010990  66.8523407   4.6863785  23.8831925  67.1343565
   3.6305752  67.2845030  26.6637206   4.2584503  67.4714661  27.3616099
   2.8861061  67.8559828  26.8518972  40.2337646   1.4551841   7.1836984
  41.0390615   1.9671658   7.2585350  40.0927448   1.3669868   6.2410605
  27.8590727  12.1443379  10.8947003  28.2808876  12.4942112  11.6794884
  26.9362450  12.0621061  11.1352396  18.3059824  36.2631369  51.6632414
  18.8065231  36.0776091  52.4577665  18.5572803  35.5687404  51.0542297
   6.4135164  40.5208731  41.4616776   5.8817869  39.9290705  41.9939041
   7.2562289  40.0749016  41.3769579  45.3087807  41.0295343  64.9015236
  44.5074511  41.1057377  65.4195023  45.7668543  40.2781534  65.2781105
  54.9924660  29.4269371   4.9517721  54.4918108  30.2422833   4.9236748
  54.8728466  29.0423799   4.0834183  52.9117441  22.4679303   7.2668970
  53.2963562  22.7691221   8.0900544  51.9915724  22.7253008   7.3241532
  68.3041811  50.4229784  49.7035599  69.0639591  51.0047340  49.7264385
  67.9532385  50.4522276  50.5936241  65.0758171  14.7688746  46.6691494
  65.5724669  14.5859230  47.4667072  65.5073452  15.5337763  46.2884426
   9.1424137  46.2522268  26.9379878   9.9917448  45.8274937  27.0582891
   8.6428750  45.6400490  26.3976836  11.0094357  13.2827568  50.7865667
  11.9364285  13.1749725  50.9994030  10.5504286  12.7593255  51.4435053
  55.4495239  67.7440882  14.6918309  54.9773836  66.9378853  14.4836104
  56.0677433  67.8530407  13.9692211   2.3433340  21.3267779  52.5454378
   2.3953626  20.5406284  52.0018482   2.8821453  21.1250877  53.3104467
  68.2415152  64.8688316  50.3875971  68.8428879  65.2703285  49.7603989
  67.3717117  65.0281763  50.0211430   8.9374864  15.3418505  63.9650106
   9.3601924  15.6261075  63.1546116   8.3361626  16.0536861  64.1839409
  49.5572329  10.3097975  50.6533003  49.6734905   9.3684006  50.5248880
  49.3622351  10.6484389  49.7794962  64.9797964  26.1807179  13.7866056
  64.2998123  26.5974426  14.3159354  64.5733356  26.0567999  12.9288971
  74.9746656  18.7690520  40.7227707  75.4584312  19.0669084  41.4931536
  74.2650127  18.2337129  41.0777903  12.3719418  26.8483043   1.7093100
  13.1088066  27.4592543   1.7091398  11.6303623  27.3673797   1.3981006
  28.4622455  49.9118567   3.1731290  28.3918190  50.8655262   3.2153621
  28.4054470  49.7086096   2.2394821  72.3244095  20.3972936  53.4139538
  72.8436279  19.7638714  53.9093542  71.5965128  19.8860383  53.0603743
   5.9905094  63.8917303  54.0734053   6.1278158  62.9545116  53.9355755
   5.5010968  64.1780615  53.3022261  60.4539013  54.8890638  38.5709524
  59.7139978  55.4843616  38.6909056  61.2037230  55.3635788  38.9298916
  42.8225565  73.9240885   3.5398513  42.7373552  73.0695105   3.1171602
  41.9480944  74.1105032   3.8816115   3.9798325  35.0205135  60.2995062
   3.5946977  34.6108460  61.0741520   3.2290748  35.3423691  59.8005009
  48.3570719  51.5525770  37.3527765  47.8380299  52.2041464  36.8813086
  49.1171122  51.3998842  36.7912984   9.5599324  43.7440062  13.7296033
   9.8301429  43.8282108  14.6440029   9.1153860  44.5689058  13.5342824
  12.9658043   3.8982821  48.2966805  13.0740392   4.2968005  49.1602182
  13.8007796   3.4617063  48.1280088   2.8037709  50.3162718  52.1519136
   3.6662972  50.4159451  51.7489910   2.4401216  49.5285463  51.7475843
  32.8188276  27.9283047  18.4570980  31.9965577  28.3300829  18.7375975
  32.8861976  28.1448126  17.5271428  69.7478628   3.0937433   1.8951067
  69.3831778   3.6163402   1.1808752  70.6951284   3.2043853   1.8133764
  44.9325180  56.3026476  22.9768324  44.2188454  56.4650393  23.5937071
  44.9132395  57.0546436  22.3849201  32.3318863  27.0393729   2.3069525
  33.1810927  27.0398116   1.8652770  31.8365502  26.3447380   1.8729538
   2.4225901   4.9461105  61.0918951   3.1680363   4.5922434  60.6067991
   1.6550007   4.6330649  60.6133127  57.5330162  20.0416851   8.7267715
  57.0335484  19.5496643   8.0750984  57.9229784  19.3702996   9.2865962
   1.3361485  53.1757927  35.3671741   1.0713533  52.3999643  34.8730063
   0.5123530  53.6032152  35.6014895  80.6336117  66.4839888  66.3969517
  80.9514904  66.1680889  67.2427607  79.8645878  67.0117855  66.6120529
  66.0928917  55.5139256  60.3418636  65.8265209  56.2257624  60.9237337
  66.5983963  55.9445477  59.6524715  46.4798164  64.9068689  62.0919228
  47.1419430  64.3448019  61.6895533  46.2724590  65.5534554  61.4172649
   8.0892920  21.4701438  47.2822618   7.3777562  20.9180903  46.9579411
   8.0849147  22.2317219  46.7024231  13.1301558  42.9707336  30.8499265
  13.2627594  42.2346306  30.2525997  13.8669097  43.5564089  30.6755447
  21.4822364  22.8995490  43.0417967  20.6328487  23.2940245  42.8439093
  22.0863605  23.6407733  43.0848503  56.4080095  16.6206551  66.1030149
  56.7448235  16.3540947  66.9584274  56.7654896  15.9752882  65.4931402
  14.3380713  55.9296751  42.1557617  13.5479343  55.9046745  42.6954746
  15.0149608  55.5321836  42.7035332  19.5980680  67.6297617  66.1468697
  18.7521541  67.1830654  66.1133480  19.8859966  67.5296497  67.0542336
  15.2579057  19.3833470  45.6638193  15.2010775  20.3150892  45.8756161
  14.3542588  19.1226411  45.4858112  21.2020373   7.1614510  35.0897956
  21.7163706   7.9483247  35.2701402  20.2985835   7.4183714  35.2741766
  59.7928286   5.8160436  45.1922941  60.0191021   5.0337416  44.6892691
  60.6120920   6.0746568  45.6143856  72.7254486   3.5579380  58.2358551
  71.9707775   2.9750985  58.1521845  72.6008272   3.9914453  59.0801144
  24.7047281  13.6087513  33.3394361  24.3749833  14.4391870  33.6827683
  25.4560518  13.4012973  33.8950491   2.1886650  27.6373506  50.8193684
   2.4643870  27.8236938  49.9218798   1.2967543  27.3013091  50.7310343
  41.5006638  72.4297714  65.8469820  42.4083948  72.3577499  66.1420584
  40.9805441  72.1627808  66.6048861  57.6815224  71.6278553  68.9447927
  57.9288912  72.5479937  68.8532352  57.0748281  71.4698267  68.2214832
  56.5023470  70.1454020  36.3260984  55.6660223  69.7659922  36.5959954
  56.2888002  71.0455179  36.0802913  61.0388041   9.1374135  47.8165054
  60.3589773   9.7728813  47.5923395  61.8613195   9.5989811  47.6532507
  42.7157450  49.4409752  18.0705690  42.4143839  50.0431871  17.3903048
  43.1467676  48.7338018  17.5906122  83.1082726  53.7162876  11.6414106
  83.1582832  53.1330204  10.8840919  82.3566723  54.2805481  11.4599204
  69.9590731   5.3103840  35.0701094  70.5605745   5.0174308  35.7546568
  70.5236292   5.7192343  34.4141006  75.7623672  22.0951986  32.8449154
  75.1446772  21.4184999  33.1219792  75.6091881  22.1888566  31.9047046
  36.4794850  31.3640070   3.6757728  36.4610314  30.4085779   3.7309524
  36.1888337  31.6594076   4.5386124  48.4995270  61.9341707  19.1995454
  48.6637020  62.2466803  20.0892711  48.2924843  61.0057306  19.3061817
  44.9052429  27.7988768  20.6507659  45.6410456  27.9854369  20.0676537
  44.7222042  28.6344743  21.0803080  40.7394075  56.6051912  27.1389627
  39.8407078  56.2937641  27.2465873  41.2803555  55.9093475  27.5123358
  58.9893913  65.1404905  53.1462193  59.0671682  64.6112394  52.3524475
  58.5045862  65.9179449  52.8691626  18.3786809  37.4477839   8.9778942
  18.5355735  38.1790924   8.3805615  18.4441078  36.6689205   8.4253335
  41.7800665  79.2108679  59.2551041  40.8315659  79.2346573  59.1285419
  41.8927193  79.0334320  60.1889420   5.6378210  66.6563892  57.1672249
   5.8864099  66.9134760  58.0551100   5.9697294  67.3618031  56.6118336
  66.4834738  32.8465986   1.5147373  66.9167328  32.9025102   2.3664364
  65.8054113  33.5214877   1.5461823  38.8544631  26.9801092   4.1577142
  39.7443104  27.2681928   4.3612114  38.9478397  26.0542274   3.9335313
   5.3807694  50.2786207  35.5497217   5.9098154  50.8140087  34.9583626
   4.5176834  50.2474022  35.1370001  73.9291859  33.5061908  52.7010918
  73.5459757  33.1144333  53.4858894  73.2128429  33.5205770  52.0663643
  18.6441565  58.2585382  53.1485701  18.0742061  58.4339237  53.8973236
  18.4678614  57.3453808  52.9220819  35.9914613  43.6438799   2.0092906
  36.6136527  44.0693569   2.5992709  35.7127690  42.8588390   2.4807546
  36.6000485  68.6971951  16.1494660  37.3496699  69.1560936  15.7703662
  36.4398837  69.1453362  16.9799769   4.4562638   4.3434852  59.5437241
   4.6870020   3.4236813  59.6739244   5.2979410   4.7942537  59.4757557
  10.3631437  43.6301279  31.0662937  10.1142824  42.7462959  30.7958508
  11.3188767  43.6059809  31.1134672  10.7739532  67.4047327  24.1975951
  11.5974486  67.5715637  24.6561289  10.8671582  67.8641796  23.3630562
  21.8581915  38.4649372  35.2927828  21.1502504  38.0171442  35.7559586
  22.6548243  38.0261016  35.5911636  70.1489496  20.1639795  43.9558458
  70.5746365  20.5526900  43.1916952  69.2146397  20.1920605  43.7496758
  43.0491352   9.6880639  32.5729299  43.8315201   9.3717891  32.1211863
  42.5393343   8.8976955  32.7508497  38.8869953  22.8532696  11.7490113
  38.2732153  22.4086118  12.3336375  39.6699023  22.9896832  12.2825646
  25.0231338  26.9551706  29.9301410  24.5526505  27.6457834  30.3969717
  25.3294253  27.3751736  29.1263914  82.0933533  54.6080685  63.5358858
  81.4072800  54.7451544  62.8826284  82.4164486  55.4874754  63.7320566
  40.9144926  71.4197302  53.3952141  40.2713156  70.8275175  53.0055380
  40.5538607  72.2943544  53.2495689  30.5963421  10.8436131  54.0214586
  30.4440069  11.2938428  54.8523140  31.5493894  10.7974219  53.9452934
  72.3826313  69.0287256  48.1131458  71.4362383  69.0271711  48.2565498
  72.6770544  68.1818438  48.4483147  67.5698233  75.7815552  35.2309680
  67.6745462  75.3925848  36.0992813  66.6768932  76.1263800  35.2290988
  34.1180634  10.2119672  49.7723150  33.9231157   9.3905681  50.2234602
  35.0701380  10.2107775  49.6733856  40.1932192  39.4426966   4.5320138
  40.5721903  40.2408457   4.1638151  40.0760603  38.8636518   3.7788790
   9.6012175   3.1097734  38.9057255   8.7253714   3.0369630  39.2849660
   9.5150375   3.7838146  38.2315803  17.4873495  72.4844170  56.8939877
  17.6871729  71.5492153  56.8527412  17.4895978  72.6887941  57.8291130
  80.1097679  11.6843927  46.1193371  80.6744576  11.0880518  46.6109991
  79.2821074  11.6815281  46.6001701  83.0249119  61.9851398  65.4968882
  82.5259399  61.8920469  66.3084221  82.5818348  61.4072227  64.8756647
  53.9059305   3.2340589  57.3928404  53.8384676   2.8175873  56.5336370
  54.0585852   4.1589865  57.1993542  71.9647837   7.2118622  33.5403728
  71.5173817   7.5389093  32.7599216  72.6752853   6.6686970  33.1992102
  47.8600883  60.3958464  64.3679571  47.1988344  60.8665323  63.8605785
  48.2418060  61.0616589  64.9399853  10.5789971   3.0730632  51.1491728
  10.1936078   3.8932356  50.8409119  11.0548663   3.3156788  51.9434786
  73.2512999  22.4896598  23.7978721  73.2934523  21.6772914  24.3023658
  74.1658020  22.7478528  23.6827779   0.5727407  31.5253448  12.4511516
  -0.2958735  31.6696477  12.0757616   0.6207328  30.5790591  12.5870645
  50.9976721  69.8808241   8.8100815  50.8732796  69.7010660   9.7419858
  51.9463253  69.8534155   8.6854088  77.3682117  78.1230545  61.8697882
  76.6978121  77.9786158  61.2020016  77.8440142  77.2937059  61.9148207
  77.8864765  14.4695628  47.9035282  78.4070539  15.0821996  47.3839998
  76.9796944  14.6669793  47.6690006  31.8749475  18.6794770  29.0311098
  32.7712202  18.5005999  28.7466288  31.8219495  18.3003402  29.9084234
  81.1815166  68.6215687  55.9023666  81.2232208  67.7879620  56.3709784
  80.2861404  68.9300346  56.0415506  12.2610855  32.1229434  50.7145452
  13.0207026  31.6200495  50.4207611  11.9214845  31.6296506  51.4612484
  47.4983311  72.4569082  44.2614317  48.0308342  72.1965265  45.0130129
  47.8457308  71.9432068  43.5322857  77.1624613  71.6650438  57.6181173
  77.7317286  72.4340630  57.6459265  76.2826014  72.0130014  57.7630424
  71.0631084  27.8346753  29.1221786  71.9600773  27.6349235  29.3901014
  70.5368853  27.1325612  29.5047402  11.4469683  34.1713858  53.5319805
  11.1664581  34.1871476  54.4470215  12.3987293  34.2652607  53.5715818
  78.8164473  51.5735483  48.8293552  77.9444361  51.9644642  48.8842678
  79.0073586  51.5446329  47.8918314   1.1087525  48.2024384  43.8238096
   1.1418922  47.2606850  43.9918518   1.5373802  48.3094454  42.9746580
  27.5837946  15.0391650  50.8883667  27.5529695  14.2484438  51.4269209
  28.3578563  14.9235845  50.3372717  19.5107830  33.5995960  57.0253611
  18.6015654  33.8940215  56.9717932  19.4490349  32.6708722  57.2487164
  72.3979712   5.6915176  51.3778448  71.7684746   5.1752716  51.8812943
  72.1782780   5.5119723  50.4636621  11.2142158  63.2253981  28.6878061
  10.9914470  63.0131674  27.7814031  12.0890939  62.8574038  28.8118863
   9.8719960  39.4922924  20.7773709   9.8752570  40.4477835  20.7202673
   9.2113471  39.2166305  20.1419282  24.8916173  43.9707470  29.6279240
  25.8398318  43.8485527  29.6746850  24.5681334  43.6603975  30.4736638
  81.3633156  16.5120602  40.9871626  82.2011375  16.5461326  40.5255079
  80.9122181  15.7570601  40.6093836  82.4740314  74.2442179  61.0788822
  81.8373108  73.5313511  61.1302996  83.3249855  73.8059282  61.0810947
  53.4755278   3.9607292  33.4559727  52.7604055   3.4296706  33.8064122
  53.5830784   4.6675748  34.0923953  21.8978310  46.9388437   3.1505349
  21.8748784  46.8650866   4.1046131  21.0243011  47.2501183   2.9132885
  56.4220810  55.5106974   5.1239157  57.1472740  55.3755856   4.5139429
  55.9431362  54.6819973   5.1139146  23.1595683  29.1760039   4.8950991
  23.6040139  29.4986868   4.1111505  22.8815866  28.2894254   4.6650195
  38.6753464   2.4077991  22.8774333  38.1923676   3.1188583  22.4562955
  39.1306186   2.8270793  23.6076140   4.8643023  25.8298421   0.9563810
   4.0090197  26.2391019   0.8251207   5.4869622  26.5551853   0.9073623
  46.8802691  68.7403345  35.7267761  47.5866938  68.7265205  36.3725328
  46.1304712  68.3593845  36.1838436  64.9122620  18.1130993  35.1513958
  65.4021978  18.9267159  35.0321364  64.0603971  18.3933461  35.4860854
  59.2634439  68.4912968  63.4602499  59.5166636  69.2306995  64.0128803
  60.0496817  68.2917929  62.9520607  58.2458496  28.8318014  64.6231270
  57.5042868  28.2413793  64.4900131  58.6775970  28.5003209  65.4104948
  49.6641445  70.6335783  67.7109861  49.8623466  69.7015715  67.8021336
  49.0353537  70.6753874  66.9904995   6.2342733  22.1101451  42.8335094
   5.6146646  22.0663190  43.5617924   5.7295966  22.4854517  42.1119308
   2.7623743  40.2727318  51.7316151   2.8688917  40.9389877  52.4105740
   1.8290535  40.0609112  51.7482281  30.2750182  11.2977290  37.7978039
  30.0510311  12.1866381  37.5222993  31.2009215  11.3468134  38.0355549
  12.8128195  19.2662096  48.7433290  12.7279925  18.7318838  47.9536915
  13.2252669  18.6852014  49.3825102  71.8224812  60.9811306  54.0015173
  72.1492863  61.6335058  53.3819723  72.4223518  61.0356760  54.7454357
  42.3000431  12.3060179   7.0358658  41.9710064  12.0820928   7.9063982
  42.9464245  12.9941142   7.1938181  23.4840512  70.5926371  55.0472593
  23.3387899  69.6506357  55.1353693  22.7077699  70.9127378  54.5877504
   6.8320721  74.5338058  39.2260814   7.3959690  74.0351343  39.8173332
   6.1122942  74.8362350  39.7798753   1.8307306  30.7776022  37.7798223
   0.9974770  30.4737449  37.4198365   2.1147001  30.0690985  38.3574176
  36.6459370  77.9772186  29.5248890  36.5847564  77.5571251  28.6669779
  35.9459186  78.6300564  29.5223665  68.5518837  24.2242527  38.2176280
  68.4313917  24.8938680  37.5443316  68.0179882  23.4873223  37.9207778
  29.2231274  20.6427908  36.4231110  28.7331033  20.0362182  36.9782495
  29.1436505  21.4886022  36.8641543   7.9332685  59.6351004  53.7193871
   8.0637616  59.1442394  54.5307207   8.4325290  60.4421043  53.8447618
  15.7613897  43.1198549  13.3768404  15.6731188  42.8835964  12.4534643
  14.8624730  43.2561207  13.6761928  34.0231419  18.1541514  56.8360901
  33.3595014  17.8049338  57.4309540  33.6551309  18.0217981  55.9624290
  70.0934601  20.9574938  33.9608574  70.6889009  21.7025232  34.0421796
  70.5371046  20.3610277  33.3578324  29.5127797  59.8408175  41.8758154
  30.2397156  59.3584108  41.4820147  28.7297273  59.4627142  41.4756918
  35.5280042  58.1975555  35.3343964  34.8315787  57.9618692  34.7214723
  35.5496454  59.1543341  35.3159428  15.8120191  55.8321428  52.0233059
  15.2772033  55.1071358  52.3466635  16.0597825  56.3167763  52.8106928
  15.0321901  65.0052547  53.9071655  15.8521616  64.8774242  53.4301567
  14.7548437  65.8911276  53.6736393  37.9189467  76.8182278  17.8146613
  38.1633019  77.7365446  17.6997197  37.4255562  76.8025064  18.6347544
  68.1264973  36.2406206   9.5040852  68.0164719  36.2454677  10.4549289
  67.9480839  35.3360343   9.2469388  -0.0747394  73.5759830  54.7090578
   0.3673763  73.2886267  53.9101887   0.3162905  73.0455065  55.4032660
  10.7596660  34.6308327  24.0619636  11.5060329  35.2173972  23.9390469
  10.0030470  35.1428819  23.7763667  55.8919668   0.9715773  65.0179100
  55.6385469   0.7888387  64.1131353  55.5514908   1.8496013  65.1893282
  79.7394848  45.5254173   4.1961783  78.8765907  45.1733732   3.9777440
  80.3045750  45.2360296   3.4798288   2.7534351  77.4356890  42.1308470
   2.2582248  76.9468689  41.4735365   3.0381024  78.2282257  41.6757822
  10.8361399  42.2519541   0.7252508  11.7258406  42.3029041   0.3758665
  10.8100021  42.9181957   1.4120322  25.1497424  79.0819855  48.5457563
  26.0003102  78.8297339  48.9051104  25.3102744  79.9232955  48.1183720
  40.6646252  30.0795889  60.2368259  40.1034498  30.5949306  59.6574020
  40.0747871  29.7601938  60.9196901  29.4145131  17.8345156  24.2271209
  29.3619776  18.6670840  24.6964836  28.6695433  17.8508520  23.6263037
  30.2782726  43.1504726  13.7833834  30.5408621  42.4709606  14.4043028
  30.8535147  43.8898420  13.9800179  59.0328932  63.4073973  24.1027141
  58.8870907  63.4595156  25.0473070  59.7167349  62.7452326  24.0020943
  33.9883542  44.0278149  21.6377473  33.3081412  44.4391489  21.1045074
  34.4541264  43.4531546  21.0302472  23.0112243  22.0349002  25.4199219
  23.0829692  21.1107779  25.6588387  22.5228453  22.4315667  26.1412907
  64.7290659  77.7959347  32.3662543  64.8061466  77.0498610  31.7715597
  63.8719845  77.6863766  32.7781248  47.3352480  35.5052519  44.7183847
  46.5762997  35.4834294  45.3012657  47.6078272  36.4228129  44.7143269
  22.1972919  12.0055068  27.2379398  22.1452403  11.2838340  27.8646064
  21.6263199  11.7387521  26.5174794  13.0333996   0.5271613  40.8523893
  13.5842049   0.7391201  40.0987864  13.4694660  -0.2179608  41.2657547
  10.6485653  62.6374006  11.3325357  10.6367147  62.7139521  12.2865963
  11.5033329  62.2553062  11.1335111  33.1822181   7.4972934  46.8845606
  33.3895755   6.6058886  46.6041470  33.6251760   7.5922728  47.7277708
  13.9234948  59.0557098  56.6262484  14.1898930  59.4374657  55.7898712
  12.9986751  59.2873716  56.7115307  82.4504757  54.3887424  20.0895143
  81.5259361  54.1411924  20.1028180  82.5826454  54.7747087  19.2236066
  76.3310957   5.0246406   2.4414133  76.4428949   5.3310764   3.3413187
  76.8235970   5.6517792   1.9119135  42.0444012  68.5525370  20.3856587
  42.8257895  68.1389904  20.7525992  42.3833036  69.1861725  19.7532952
  20.4895401  25.4387736  56.6319084  21.1899185  26.0622811  56.8241072
  19.6916080  25.9674859  56.6315985   6.4833307  72.8449726  36.6772294
   5.8230960  73.1844473  36.0730124   7.2789401  73.3309793  36.4603519
  17.2327077   5.5962181  34.1426039  16.7514312   5.8338207  33.3500433
  17.8362155   6.3256013  34.2840576  29.0947986  63.0441141  68.4584761
  28.2223439  63.0556726  68.8520718  29.3445230  62.1200657  68.4566784
   8.8737100   1.9457597   3.4825683   9.2593086   2.2606835   2.6650304
   7.9960662   1.6535102   3.2364714  80.4095078  36.7276764  37.2251534
  81.3466835  36.5393376  37.2746825  80.2680302  37.0027494  36.3193107
   4.6788430  74.6758270  28.1008077   4.7313830  74.0579462  27.3716354
   3.7447315  74.7289276  28.3029175  22.0643139  76.3183117  60.5496836
  22.2828317  76.2101460  59.6240568  21.1427569  76.0664845  60.6092358
   6.4823627  54.8535395  40.3896666   7.2073722  54.2592287  40.1962948
   6.2796479  55.2653122  39.5496798  14.9084640  23.7638783  54.0662146
  14.3542206  24.3572521  53.5593081  14.5268953  23.7710118  54.9440432
   2.6608399  16.3123620  34.1709709   2.1641594  15.5824780  33.8010931
   2.0707589  17.0628941  34.1021419  65.5642462  66.6587973   7.1472794
  65.2695227  65.7574606   7.2775269  65.8065557  66.9604397   8.0227965
  79.1988945  16.2410200  16.0454988  79.3406010  16.0417390  16.9709384
  78.2597637  16.1111450  15.9136021  17.2514629  40.1482534   6.7691302
  18.0386639  40.1613998   6.2247282  16.8953681  41.0337973   6.6967279
  75.2636766  59.3176746  54.9667025  74.9347019  60.1200676  55.3718901
  76.1222124  59.5593929  54.6192646  21.2384844  17.8887165  36.7039323
  22.1573162  18.0139852  36.4666843  21.1484623  16.9431448  36.8223476
  45.8998680  68.2791519   3.6300135  45.9336615  67.3379183   3.8008049
  46.6645575  68.6326456   4.0844572  37.2977853  15.8422577  44.2143393
  37.9268479  15.7796049  44.9330807  36.4419055  15.7952344  44.6403551
  17.9190397  51.8257809  35.3444982  18.4586191  51.6756582  36.1207390
  18.5479164  51.9038868  34.6271110  62.1935940  15.4312849   8.6594802
  61.4430428  14.8742914   8.4529370  62.2220898  15.4497707   9.6160775
  32.8813577   6.9179231  41.6013241  32.6873565   6.0021240  41.8010950
  32.2003293   7.4120736  42.0576668  27.4843478  19.4254470  38.3360124
  26.7027473  19.8993993  38.6200953  28.1416821  19.6264696  39.0021467
  23.4615088  34.8458838  11.6938043  22.5099754  34.8748446  11.7936933
  23.7960315  34.8280334  12.5904679   9.2726600  75.4921103  47.1746731
   9.8286450  76.2275362  46.9172716   9.0739596  75.0430202  46.3530445
  64.9379969  30.3777623   9.3189311  65.7528543  30.2375674   9.8012036
  65.1525736  30.1491332   8.4145433  53.0339670  37.3965669   0.5385732
  52.8760862  37.5322056  -0.3957219  52.6319456  36.5489745   0.7288411
  33.3686924  20.9909296  44.6802187  33.6341548  21.5478516  45.4120636
  34.1897106  20.6364059  44.3389320  17.8501105  24.8180103  64.5926237
  17.1667659  24.2973733  65.0147724  18.1171048  24.2950010  63.8367081
  34.5496464  18.2621515   7.1014786  34.8666739  19.1376543   7.3233372
  35.3408909  17.7682710   6.8864232  26.9565940  52.0612621  24.8831916
  27.0436549  51.5808678  25.7065248  26.7620945  51.3871956  24.2320061
   8.4560245  74.6310377  36.6785526   9.2471641  74.1945601  36.9944882
   7.9565662  74.8251152  37.4717164  34.9112248  28.1131005  62.6474667
  34.5214558  27.2968936  62.9607058  35.6968808  27.8375578  62.1751833
   0.6681462  68.2084608  35.4510307   0.6968819  68.5501814  36.3446927
   0.5905472  68.9868355  34.8993516  40.7298708  16.2312329   0.8337399
  40.9961033  15.9558797   1.7109704  41.0123444  17.1437931   0.7731099
  77.8429794  52.4287319  51.8645048  78.3060598  53.2522964  52.0179081
  78.5354376  51.7973423  51.6693640  76.2781286  77.1175718  15.7307446
  76.1111736  78.0202579  15.4596055  75.5108643  76.6311264  15.4292428
  28.9915681  60.3036022  20.5570936  29.1389656  59.9483633  21.4336252
  29.5330834  59.7604895  19.9843645   7.5347018  65.5251932  40.0194597
   7.8838295  65.5095911  40.9105825   7.7444637  64.6611881  39.6648788
  75.5193567  49.5531368  57.1329308  76.2997913  49.7769260  56.6259098
  75.3337002  48.6439705  56.8980408  20.8237290  72.9424334  64.0531445
  20.0072432  73.0706644  63.5702991  21.4969110  72.8870726  63.3749151
  65.1555347   6.8641621  51.5593243  65.1603270   6.2106800  52.2587299
  64.4071531   6.6245294  51.0127592  44.6940994  14.1853523  58.4511089
  45.1382542  15.0119030  58.6402512  43.7633038  14.4086087  58.4491110
  41.9577885   2.3132516  34.5958400  42.4254799   2.2994590  33.7607932
  41.0370493   2.2075740  34.3564463  60.8804941  22.6907206  47.0267296
  61.1995506  23.2260370  46.3001871  60.0382471  23.0811214  47.2600651
  25.1263666  65.4790401  40.7206726  25.5907822  65.6010294  39.8926210
  24.3154097  65.9766674  40.6160212  30.3086734  13.0698383  65.8769608
  29.8268867  13.0476844  66.7037773  29.7480011  12.5990117  65.2603579
  58.4012079  78.0788183  36.1909938  58.1528997  78.1957912  37.1079946
  58.8884211  77.2549963  36.1779976  80.7432461  41.8060875  58.1127119
  80.0733566  42.3133850  57.6543188  80.9238148  42.3097706  58.9063931
  71.2729979   6.9741678  39.6853423  72.1038628   6.5071207  39.5972466
  71.2248659   7.2044015  40.6131935  77.6866102  78.8870621  31.4133382
  77.8976107  79.0144300  32.3382640  77.4907780  79.7661209  31.0890913
  56.2709093  78.8837528  34.7578502  56.3551140  79.6725273  34.2221498
  57.1653461  78.6863852  35.0358081  13.6405349  15.3018785  36.3884211
  12.7987742  14.8493338  36.3348103  14.1398692  14.8030877  37.0350313
   2.2602673  25.5981970   6.0968077   1.7178988  26.3680649   5.9254283
   2.4915023  25.6694674   7.0229197  28.8412094  69.5017862   5.7747507
  29.7957802  69.5451117   5.7186162  28.5861540  68.9112568   5.0659126
  57.6062679  65.0537348  39.3746734  57.5788450  65.7923412  38.7664461
  58.3240223  64.5069170  39.0552163  23.9861298  16.2893665  33.7273908
  23.0960774  16.4213550  33.4008646  24.0604520  16.8893969  34.4694638
  14.0853262  45.1601505  48.8089323  14.4212568  45.4050875  47.9467344
  13.8121653  45.9882832  49.2036629  24.8757076  59.5627928  37.3711205
  23.9579892  59.3390989  37.2162414  24.9063492  60.5162811  37.2926903
  49.1451311  52.0365906  68.1431818  48.9224815  51.8019485  69.0440750
  49.6423864  51.2868404  67.8163147  79.6130848   4.2203951  51.8789101
  78.9468479   4.3282953  52.5576735  79.2743826   3.5211313  51.3198566
  43.8932133  31.5663075  16.9000721  43.3088684  31.5784287  16.1420333
  43.3143902  31.4098573  17.6462066   0.4206226  75.5012083  64.1297626
  -0.3101552  75.4175472  64.7422981   0.8351198  76.3317633  64.3634319
  26.5113616  69.5539808  52.5140476  25.6482553  69.9474859  52.3858690
  26.7929482  69.3024826  51.6344500  56.5442324  22.8211474  56.0726261
  57.3531199  23.1599474  55.6890202  56.5946579  21.8744564  55.9404802
  73.2675982  54.9619007  12.1350312  73.2895327  54.3846846  12.8982949
  74.1642523  55.2872038  12.0549047  59.6102142  20.2306437  56.7760038
  58.9571953  19.5528054  56.6018248  59.9583387  20.4552269  55.9131002
  46.7091131  34.0068054   9.0553403  47.0692778  34.8644590   8.8296330
  46.8863201  33.9113522   9.9911386  37.0052505  19.1846979  33.2407618
  37.7056456  19.1546869  33.8925099  37.0145655  20.0866914  32.9205227
  33.1958795   5.4306281  31.7415643  32.3664403   5.8851618  31.8887448
  33.4465337   5.6723469  30.8499503  38.4385848  52.8090000   8.8882065
  39.3713522  52.7317429   8.6876905  38.0925536  53.3796453   8.2020128
  78.4247398  54.1116667   7.8986633  78.5559607  53.2205486   8.2225877
  79.0062952  54.1793060   7.1413970  17.4431539  24.3262267  47.8972960
  18.0202579  24.1695094  47.1498823  17.0018208  25.1500607  47.6905251
  22.7360106  44.6844864   7.5362176  21.8546820  44.4201183   7.8000379
  22.9767799  45.3704309   8.1589067  40.2414417   4.1224977  24.7261548
  41.1647797   3.8973984  24.6120954  40.0765514   4.7979611  24.0682840
   3.8389954   8.4204173  58.4243822   3.1562969   9.0286869  58.1412554
   4.5887986   8.6249918  57.8656578   2.3663887  46.6917706   3.0213466
   2.0313135  46.8753719   2.1437098   3.3181593  46.7309904   2.9273972
  74.0385389  67.9886150  40.7353783  74.1446638  68.8657618  41.1035872
  73.7041712  68.1388712  39.8511553  81.5535069  76.4996624  62.7940464
  81.5058231  75.7240057  62.2351980  82.4458122  76.8254089  62.6760244
   1.0636344  74.1569138  61.5167475   1.9879168  73.9292336  61.6172218
   0.8448630  74.6300220  62.3195839  45.7909489  43.1878424  15.6514513
  45.0345278  42.9336882  16.1800981  45.4256201  43.3815765  14.7881818
  28.8126588  15.8731091  38.3272934  29.3011999  16.4056396  38.9549637
  28.2092118  16.4879417  37.9100847  43.7578058  36.0879350  60.3821802
  44.5296383  36.4553618  59.9514866  43.2277441  35.7380199  59.6660614
  15.4863775  23.8015127  37.1896720  15.8904481  24.2821646  36.4672232
  16.0435951  23.9907932  37.9445982   0.6528024  25.2330494  18.2885885
  -0.0572507  24.9057651  17.7363729   0.8570717  26.0964561  17.9293787
  22.0645022  23.5281968  58.4369373  22.8337264  23.4772873  59.0043306
  22.4111104  23.4108663  57.5524473  42.8545189  39.4613004   8.4505719
  41.9484615  39.5660019   8.7409550  42.9830503  38.5139275   8.4037012
  22.8696585  36.1513162  68.2837057  23.3975434  36.2109876  69.0799522
  22.5897789  35.2365732  68.2498837  73.4816837  27.3180819  29.7185111
  73.4988451  26.9305396  30.5935812  74.3988276  27.5110865  29.5240092
  49.0494394   7.4625993  31.1773324  49.7520447   7.8946280  31.6630602
  48.4628916   7.1248609  31.8541789  39.0571046   4.3304670  34.4068503
  38.2654762   4.1299778  34.9062133  39.6613574   4.6965992  35.0526500
  16.6997623  22.2212052  17.1387553  17.4475276  22.7145910  16.8016374
  16.1401236  22.0826292  16.3746655  37.0815873  78.5183239  13.0088341
  37.7460480  77.8438997  13.1498218  36.5329766  78.1707525  12.3056602
  13.7563431  19.7850323  51.6416264  14.4990945  20.0940776  52.1603203
  13.7433767  20.3593779  50.8759928  12.6644981  26.1078763  37.6685095
  12.7497113  25.6417775  38.5002089  12.7058506  25.4206586  37.0034885
  35.1771069   7.3492795  40.2018547  34.3495417   7.2218615  40.6656790
  35.8296323   6.9174647  40.7531977  33.1870413  12.5212216  32.3471212
  33.6092567  13.2996535  31.9837904  33.3745074  12.5627160  33.2848668
   9.3721658  37.1586895  53.7608433   8.8007385  37.8327656  54.1287088
   9.7522008  36.7240810  54.5243359  43.2852030   9.0872544  46.6547775
  43.4415817   9.6159613  45.8723164  42.6714659   9.6055239  47.1753120
  75.6583405  65.4652452  49.2557526  75.7964182  64.5595551  48.9784622
  76.4091825  65.9414148  48.9011717  45.0784588  16.4161849  46.8394852
  44.3602085  15.9911776  47.3082256  44.7450495  16.5387547  45.9506369
  27.9143882  75.5398083  18.0346179  28.8109422  75.3390789  17.7660429
  27.6224351  76.2078524  17.4143648  24.2782283  32.0888925  30.4625773
  23.9541554  32.9242921  30.7991982  25.1248670  32.3012018  30.0696945
  12.3006880  78.5528612  64.1179800  11.8937838  78.6519003  63.2572508
  12.8128922  79.3530846  64.2342710  11.7013633  30.4206681   1.2627293
  11.1311936  30.7286859   1.9671887  12.5769341  30.7099795   1.5194510
  77.3488760  76.7701912  29.0599656  77.5294161  77.5422716  28.5237551
  76.9178724  77.1166515  29.8412704   2.5211185  51.4605284  28.9856243
   1.5914625  51.6235781  29.1449547   2.9730409  52.1326733  29.4957423
  11.4866841  27.4321222  62.2879839  11.9744039  27.9130411  62.9566193
  10.5717683  27.5056934  62.5595522  33.5885739  71.1066771  40.0690269
  33.5735345  71.0416126  39.1141605  34.0850115  70.3393364  40.3535891
  77.0705080   2.0837636  65.9069729  77.1875238   1.1387482  65.8095837
  77.9609156   2.4343809  65.9286785   9.5049155  68.8834143  50.4986191
  10.2741504  68.3192921  50.4194260   9.4715953  69.3607616  49.6696091
  63.4612989  62.5081348   0.0496333  64.0547132  63.0597305  -0.4601004
  63.6621857  62.7190018   0.9614508  80.0416183   3.2155561   0.9098965
  80.8954144   3.3968440   0.5169547  79.6120358   2.6275602   0.2886494
  24.5674539   2.5314936  51.1073208  24.6791720   3.4644651  50.9247971
  25.1317382   2.0935340  50.4701328  23.8091803  28.6742353  26.1065722
  23.4062624  27.8540969  25.8215022  24.1118217  29.0863562  25.2973771
  67.7903461  61.7047882  12.7761817  67.3544645  61.2351084  13.4872651
  67.0834970  61.9373608  12.1741021  70.7752657  70.1078033  56.5187836
  69.8506451  70.3547478  56.5368557  71.0518074  70.2807093  55.6188631
  13.2764280  45.9397173  42.4257565  13.7755013  46.7540741  42.3627043
  12.9582882  45.9230423  43.3283854  67.9526663  25.4688025  17.7243245
  68.5859108  24.9074769  17.2769535  67.6585245  24.9491572  18.4724426
   8.5800928  46.4751959  33.7810779   8.5930043  45.5184174  33.8063812
   7.7358854  46.6929674  33.3859587  16.0254395  74.9711037  23.7414861
  15.6451523  75.7213640  24.1983414  16.8535197  75.2988815  23.3906651
  30.2020955  20.8203936  30.5676818  30.5718374  20.9841108  29.7000861
  30.7688904  20.1485944  30.9467077  54.1764736  17.7058291  49.3326521
  54.3100500  18.5264122  48.8582754  53.8923502  17.9772699  50.2054787
  72.3305845  55.0308704  46.4107800  72.3084784  55.5142689  45.5849028
  73.1857395  55.2388287  46.7872047   3.0556437  70.2204132  52.1610785
   3.9113045  70.1043892  51.7480230   3.2228750  70.1012945  53.0959988
  59.4575596   6.0503948  49.6805239  59.2328787   6.1948115  48.7613440
  59.4873190   5.0981426  49.7730541  33.6284757  12.9720151  53.1537771
  33.6432195  13.5050344  53.9487028  33.5583639  12.0714641  53.4705210
  17.5206804  79.2801762  57.4699259  16.9535220  79.6785212  58.1301451
  18.2577050  78.9275265  57.9685879   7.7827334  11.4164710  34.2149687
   8.6707526  11.1330438  33.9974332   7.5660694  12.0624948  33.5427022
  22.5713587   8.6275345  49.8974037  21.8794918   8.5478836  49.2407417
  22.6081038   7.7657330  50.3123474  31.7041922   3.0871415  65.3324938
  31.0770297   2.3670276  65.3983355  31.1899161   3.8230512  65.0005436
  21.4838171  39.5095420  61.7059851  21.6462731  39.8806477  60.8387375
  20.6013441  39.1432810  61.6483068  34.0481567  66.7591619  58.3351946
  34.8769927  66.4779758  57.9476404  33.4021640  66.1407471  57.9938841
  83.9958286  22.7387142  38.7984753  83.1650352  23.1850147  38.6346507
  83.7611294  21.8132591  38.8669038  18.3097303  62.2985840   6.8967795
  18.9600706  62.8413200   7.3425639  17.5592458  62.8791523   6.7705119
  16.3167489  73.4645700  13.1086850  17.0973480  73.0467224  13.4724176
  15.7611394  72.7354431  12.8331697  33.9782023  78.0037165  50.7858086
  33.6700821  78.8592052  51.0848618  33.4272432  77.3745251  51.2514210
   1.0427021   2.0045927  54.1021729   0.7927698   2.8131396  53.6549425
   0.7607140   2.1346976  55.0075960  38.2223392   6.8724924  62.3515129
  38.3272481   7.8073043  62.1744442  37.9785156   6.8297482  63.2761478
  42.1076441  27.0086741  57.8649044  42.2602844  26.1371779  57.4996328
  41.5313816  26.8568492  58.6139727  11.0617697  29.5672655  16.6070855
  11.0823834  30.5181527  16.7148721  11.9480586  29.3387055  16.3269377
  78.4726477  75.0510550  22.8445077  77.7466345  75.6512403  23.0145383
  78.9271975  74.9811029  23.6839843  55.6443501  59.2187548  56.0012722
  55.7647228  58.2703590  56.0490561  55.7249355  59.4237852  55.0697660
  25.4281425  74.6758938   7.0939112  24.9213719  75.4630232   7.2935098
  26.2374353  74.7787046   7.5946182  80.7416153  54.9855042  40.4720640
  81.1373043  54.8859310  39.6061873  81.4707565  55.2301741  41.0419083
  53.1374311   5.9237331  60.7949352  52.7296019   5.2423638  61.3293934
  52.5771475   6.6903549  60.9157944  23.1329107  32.6813149  23.8128424
  23.6042142  32.9170251  24.6119308  22.2259426  32.9332399  23.9865589
  30.8424044  25.5086160  39.4626260  30.8344126  26.2146950  38.8163900
  31.7357779  25.5085802  39.8063040  66.1130905  54.5202780  13.3735085
  66.1418343  54.5017815  12.4169195  66.8306255  55.1024246  13.6234772
  57.4666882  12.6636684   6.7969871  57.3572111  11.9298613   6.1921954
  57.2150803  12.3103654   7.6502764  49.2141628   5.1788038  47.1407890
  49.1366148   5.0764656  48.0893373  49.5918322   6.0505629  47.0240211
  38.8221288   7.0553523  51.8611860  38.9530969   7.5112242  52.6926041
  38.5951233   6.1599636  52.1121454  69.4844341  32.5350642  16.7968380
  69.6182346  31.6357756  16.4974916  68.8292837  32.4615216  17.4908090
  71.8413973  71.5178251  46.5728569  71.9746208  70.6469154  46.9470215
  71.9807196  71.3987494  45.6333685  14.8862231  47.1776152   2.2733079
  15.4210424  47.2205639   1.4806190  13.9890075  47.0871639   1.9522844
  44.4597244  18.6513805  43.0413437  44.2238569  18.1297147  42.2742271
  44.2643118  19.5532405  42.7869892  76.5087414  46.5855980  68.3387518
  75.9225082  46.2617874  67.6548576  77.3570061  46.1928320  68.1328154
   8.8043153  40.5281210  31.4993787   8.9605844  41.2652349  30.9090614
   9.5000982  40.5934286  32.1534824  25.6394005  28.9877605  49.0141106
  26.2873864  29.4701076  48.5006094  25.4379869  29.5661592  49.7497177
  19.2515767  29.6647000  34.7019219  19.4845366  29.6743035  33.7735534
  18.6135566  28.9555883  34.7814369  16.3382554  51.5906620  59.3773890
  16.4760315  51.2930870  60.2766657  16.7952418  52.4304104  59.3303108
  72.8192282  46.4927912   0.7362117  73.5447311  46.8011808   1.2791458
  72.7170467  45.5712271   0.9739400  50.8177090   1.2962718  21.0527468
  50.4456758   0.4540972  21.3145924  51.6307545   1.3649361  21.5532207
   0.7715692  48.4031105  57.8552961   0.6942740  48.0642843  58.7471771
   0.1397877  49.1211319  57.8162670  15.7021189  16.0459352  40.4855537
  14.9354827  16.1369598  41.0514307  15.7790744  16.8939245  40.0482655
  19.7771108  14.3916428  22.4743104  20.3456259  13.7490511  22.0499325
  20.2625442  14.6634960  23.2532072  12.3052180  57.1524048  32.1893477
  12.8000331  56.4285755  31.8053436  11.7386973  57.4577570  31.4807963
  17.9337621   5.3521150  54.1035175  18.4095132   4.6280149  54.5104218
  18.4000015   5.5142009  53.2834053  30.6127143  30.3047085  45.5843925
  31.5340066  30.1823092  45.3553295  30.5745387  31.1833692  45.9621954
  19.9985325   7.3045027  66.5672493  19.8101485   7.0224899  65.6721449
  20.8950853   7.6376963  66.5297079  50.8447552  26.6079187   0.0535451
  50.8628130  26.0932946   0.8604340  50.6774235  27.5042391   0.3448215
  11.1057997   7.0601249   6.8393844  10.1512051   7.1263576   6.8150026
  11.4071894   7.9663342   6.9040453  39.6099401  11.6827571  50.1596260
  39.4656372  12.5914764  50.4235125  40.1969671  11.3295591  50.8281183
  35.5156851  29.6181703  43.1673098  35.2412176  30.0294352  42.3477030
  36.3778353  29.9933839  43.3465910  76.8146372  28.4878111   7.2422308
  75.9416342  28.7948012   7.4868703  77.0240641  28.9727116   6.4439559
  44.4984198  10.1558697  38.8398957  44.2342043   9.2572939  38.6424470
  44.9431992  10.4545248  38.0466700  37.4201107  28.3859491   1.8127514
  38.3693814  28.3305669   1.7029706  37.2735405  28.1822634   2.7364725
  30.1527119  71.5496492  36.6801643  29.3110609  71.3165712  37.0719957
  30.0120950  72.4218988  36.3118696  46.3646221  27.9576254  52.9725885
  46.5489531  27.0708847  53.2823324  45.4530764  27.9252744  52.6822901
  24.1812921  15.3103471  15.8669579  24.6271443  15.8932722  16.4814878
  23.8205791  14.6141517  16.4159846  70.8242226  18.2971120  46.2027884
  70.9205914  17.6831150  45.4748058  70.4823923  19.0950537  45.7994604
   1.7282280  10.3621113  34.0528703   1.6911684   9.4595927  34.3696022
   2.1126246  10.8548069  34.7779369  77.7625465  78.7439394  39.6748853
  76.9181156  79.1457415  39.4706178  78.0504131  79.1847515  40.4742908
  37.4672437  74.9376249  36.1340880  36.7628193  74.4435930  36.5535545
  37.4128270  74.6945524  35.2098656  48.4800529   9.3764687  55.5899477
  49.0611887   9.1449887  54.8654270  48.7303591  10.2709043  55.8213806
  27.5373387   0.9770498  27.0549726  28.0873203   1.4240424  27.6983619
  27.9555750   1.1604159  26.2137318  48.2836485   4.9209189  33.1871986
  48.9072561   4.5774707  32.5473619  48.5265732   4.4965339  34.0100694
  26.8479419   9.2596734  39.2035675  25.9782362   9.4773453  39.5389175
  27.4356294   9.8714542  39.6469402  64.9381828  12.1256351  20.0528812
  64.0507603  12.3930061  19.8136532  64.8444080  11.7338240  20.9211683
  74.3796873  58.9362097  46.7599869  74.3874502  58.0158663  47.0229340
  74.1508770  58.9178848  45.8307171  14.0469205   6.4162993  60.7620335
  14.8683488   6.7166835  60.3731155  13.7557912   7.1500796  61.3033676
   7.4764383  31.4061475  47.4587679   7.7558392  31.0781407  48.3135080
   8.2706553  31.3900113  46.9247341  28.4706354  68.0285406  43.8578176
  27.7110124  68.2764912  44.3848181  28.1164718  67.8837490  42.9804182
  33.0924201  21.2906814  19.5976698  33.4628916  21.8190789  18.8907182
  32.1818185  21.1490226  19.3388915   1.9786969   9.9386644  56.5999365
   1.4457461   9.5588732  55.9014034   1.4168543   9.9065936  57.3742342
  18.5577798   5.0508434  39.8532891  18.2267821   5.2622831  40.7261992
  19.3097472   4.4807646  40.0138760  15.6812537  60.4605103  49.2245293
  16.2399459  60.7425165  48.5002613  15.8977628  59.5363617  49.3482494
  39.6013427  54.1367340  22.6530957  39.1687965  54.2454958  23.5000348
  40.5043745  54.4138002  22.8080153  50.1177120  64.1214991   1.7348777
  50.6933784  64.4860649   1.0626213  50.0222301  64.8257589   2.3760724
  45.0271654   3.9717346  25.5934358  45.0631762   4.8965377  25.3491545
  45.9278536   3.7515527  25.8311534  62.4752903  64.0421009   8.2710117
  62.4566031  63.0853558   8.2483298  63.3378601  64.2730570   7.9262453
  73.5183430  52.8805780  14.1810465  73.1252480  52.7795601  15.0479388
  74.4613934  52.8370142  14.3391371  40.5440760  16.8089771  22.8611231
  40.8192873  16.3861024  22.0476937  40.8112144  16.2002301  23.5498166
  14.0209675  29.2748213  37.5817728  14.3235290  29.1219926  38.4769440
  13.1635356  28.8510895  37.5431275  47.2904968  15.6944680  67.9252052
  46.6850185  15.2283585  68.5017204  48.0745363  15.1456535  67.9072523
  21.4031029  56.7813158  56.5690470  20.9611964  57.0251513  57.3823690
  21.1554885  57.4657917  55.9474230  43.4751320  14.8365772  61.7505693
  42.9753208  15.6244040  61.9644547  42.8802204  14.3142188  61.2125540
  37.8345037   6.5621966  42.5273180  37.3331523   5.7862943  42.7780247
  38.1439281   6.3716066  41.6417837  17.9580939   9.2267954  18.3187366
  18.4661174  10.0173724  18.1367159  17.4703407   9.4337732  19.1159117
  56.5731192  12.9386461  47.2902966  56.9672918  12.3497903  47.9338121
  55.8966160  13.4082878  47.7781630  34.6824360   2.1796550  52.7088833
  33.7330675   2.2339003  52.8183746  34.9912214   3.0747944  52.8489161
  78.9248037  12.0930684  43.7726402  79.5131493  12.1824980  44.5223618
  78.3901739  11.3260782  43.9778852   2.2040287  79.0099335  37.6914287
   3.1492162  79.0831995  37.8236580   2.0252745  79.5614529  36.9297814
   4.8471549  16.6237259  52.3752689   5.5929041  16.2236857  52.8225470
   4.4525361  15.9065068  51.8791819  22.0887375   3.9357951  37.8515267
  21.6804242   4.0538764  38.7091804  22.6826835   3.1944138  37.9690552
  23.1859708  34.2897010  31.6900277  22.5543475  34.0326834  32.3617625
  23.7968636  34.8694253  32.1449590  39.5460868  28.4319019  19.2146134
  40.1626205  28.6245370  18.5082054  39.4335341  27.4819064  19.1818666
  22.8409672  32.1118927  37.8382874  22.6360917  32.7593088  38.5129070
  21.9965339  31.9110012  37.4347925   1.4169115  68.7677526  46.7425251
   1.6851147  68.8827324  47.6541615   0.4936066  69.0199518  46.7308712
  23.3685541   3.7565225  42.0084620  23.7953949   3.6344764  42.8564835
  23.7462687   4.5659965  41.6644955  36.5661049  19.5244908  56.1462927
  35.7855940  19.1390502  56.5443754  36.9600749  20.0447369  56.8465519
  55.7309818  10.3759336  33.3766580  56.3847113  10.7250893  33.9824319
  56.1739302  10.3619933  32.5282264  37.6905560  13.4459949  42.8839350
  38.3368373  14.0300834  43.2806635  37.7222180  12.6539791  43.4205341
  13.6372769   2.7907079  44.5782709  13.8152361   2.9642650  43.6539078
  14.0210319   3.5361254  45.0401306  16.7610824  21.9985938  26.8152738
  16.5382540  21.9476891  27.7447820  16.8763626  21.0872102  26.5463471
  31.8027282  13.9551842   2.1327728  32.5251269  13.5973251   2.6488253
  31.7798948  13.4128320   1.3443798  15.5758941  65.5020142  62.1553516
  15.3702557  64.5672464  62.1678495  16.3875961  65.5754185  62.6573324
  60.3334570   5.9200090  12.8601909  60.0351954   6.7844892  13.1429398
  59.5684624   5.3551364  12.9694510  25.7235360  16.8250072  45.8553553
  26.3681149  16.3650954  45.3175545  26.0538912  16.7406094  46.7497683
  25.1789808  30.0444055  59.0719032  24.7821689  29.8797846  59.9272823
  25.9699154  30.5468035  59.2674875  33.8357306  27.3577428  44.1373158
  34.0086079  28.2439280  43.8194799  33.0462503  27.0853090  43.6696243
  29.0539932  13.2749546  22.4009776  28.3546925  12.6737690  22.1444917
  29.8595977  12.7745235  22.2713494  13.9807284  70.2641153  53.4102392
  13.2286119  70.8371592  53.5591412  14.4926107  70.7110500  52.7361059
  63.7216425  17.0973110   7.3731446  64.1702890  17.5576162   8.0824167
  63.3570957  16.3154531   7.7879155  11.8057239  59.3415356  27.8874278
  11.0737169  59.8416948  28.2483125  12.4872017  59.9947929  27.7290726
  63.2403517  48.3348322   0.3028599  63.7847710  48.9741516  -0.1566068
  62.6989079  48.8604975   0.8917078  26.0935736  75.6261873  25.9528494
  25.2689886  75.7131338  26.4311099  26.6763568  75.1714277  26.5609527
  32.3580766  23.4746814  43.1643200  32.8547597  23.8544393  43.8891077
  32.7449894  22.6085162  43.0366993  15.2898633  78.8749933  51.4305925
  16.1047530  78.8521576  51.9322586  14.6594834  78.4046602  51.9761562
  19.6531856  38.4450364  21.9201469  19.0995157  37.7728271  22.3174095
  19.1295958  38.7898970  21.1968517  37.3008418  20.1536417  41.7807817
  38.1045008  20.3553939  41.3015509  37.5942373  19.6463919  42.5376511
  26.3164139  54.7334862  63.3131456  25.6639075  54.2782307  62.7809668
  26.2886548  55.6387997  63.0035210  21.9313931   1.1828362  37.0303106
  21.9926548   0.3761093  37.5418472  22.8244114   1.3405645  36.7239261
  20.4750133   9.9141026   4.7477263  20.8890033  10.7564545   4.9355757
  21.2065172   9.3193042   4.5823482  39.7611856  17.9437077  34.0421319
  39.7058916  17.0032406  34.2115331  40.3421021  18.0169308  33.2848954
  37.1740818  24.8003507  43.8878345  37.1246099  25.5623937  44.4649601
  37.8275371  24.2325687  44.2963123  34.3290257  76.8831491  47.7953339
  34.0852284  77.6812601  47.3264980  33.9830089  77.0092058  48.6788559
  37.1372366   4.2549935  25.8797050  36.9709349   4.9005881  25.1928401
  38.0030894   3.9030871  25.6730795  30.7578444  77.3738384  28.4985518
  30.3478646  76.5898895  28.8640356  30.2991390  78.1017399  28.9180446
  66.6304588  49.9395657   3.6922368  67.1752930  50.7224417   3.6116490
  66.4476395  49.8704100   4.6292675  53.3720922   3.4884551  54.5855141
  52.7246094   2.7954644  54.4560432  52.9206800   4.1410318  55.1208687
  59.1393328  60.0118828  27.6772547  58.7765265  60.7512283  27.1894288
  58.9319038  59.2463923  27.1413207   5.4556286  45.7606840   5.2428663
   5.4796892  46.7173386   5.2212501   5.8699113  45.4920864   4.4228315
  60.8867025  18.3486784  52.3562431  61.1721706  18.6736476  51.5023518
  60.1146889  17.8164220  52.1640778  48.4678936  18.5183787  51.5676832
  49.3304873  18.1671000  51.3468361  48.4455442  18.5145211  52.5246143
  58.1916666   3.8068649  13.3676934  57.3425484   4.2487121  13.3682418
  57.9767990   2.8750196  13.4092581  68.9439774  35.0256824   1.7524643
  68.3101940  35.6552935   1.4087519  68.6213446  34.8151350   2.6287127
  65.6859636   1.7410836  30.8481908  65.6768847   1.0914113  31.5510964
  66.5331697   2.1777362  30.9365582  10.5127549  11.8345869  27.4725437
  10.5347013  11.3434744  26.6512299  10.9423172  11.2603390  28.1065369
  59.5152473  40.6939745   5.1463038  58.8716602  40.4131794   4.4957793
  59.6907425  39.9083543   5.6642157   9.9245536   4.8962045  55.5910587
  10.1810825   4.0034008  55.8219862   9.6898139   5.3014666  56.4258623
  33.0654311   5.2556622  49.3681049  32.6980281   5.0915885  50.2366257
  32.9438257   4.4313562  48.8969755  12.2185564  73.2115459  60.4256487
  12.2106695  72.3074389  60.1113892  12.1231592  73.7411213  59.6340179
  45.3452778  25.4570413  12.3487830  46.0562277  26.0825610  12.4884284
  45.0006437  25.2865386  13.2253599  12.6874542  19.7421026  41.6036224
  12.9410660  19.2963588  40.7954025  13.5175097  19.9852824  42.0136309
  47.4677610  25.7274556  67.2194862  47.5659275  25.1383376  67.9675055
  46.8609238  26.4021707  67.5240183  52.2921562  15.9902894  27.8726411
  52.6819229  16.0381985  26.9997025  51.5075970  15.4545689  27.7555656
  42.3433065  20.5439258  53.1223536  42.7916670  19.6996880  53.0727196
  41.4332914  20.3451538  52.9019022  35.7156277   1.9414355  42.5383091
  36.3990188   1.5730838  41.9783783  35.3095675   1.1802244  42.9529238
  31.4748287  27.2737765  42.2553205  32.1233344  26.9370079  41.6370487
  31.5563440  28.2254767  42.1932411  28.6946678   3.2867655  37.0451260
  28.4698272   3.2791272  36.1147380  27.9486227   3.7116587  37.4683452
  13.2751334  41.6647720  41.8120432  12.6191497  42.0957851  42.3599005
  14.0676665  41.6568565  42.3487568  14.7361648  55.7493639  14.0298295
  14.6623242  54.8902035  14.4453120  14.0926111  55.7289982  13.3215535
  79.8530626  54.6611118  61.7775059  79.1032171  54.2799187  61.3207197
  80.1636887  55.3523064  61.1926985  39.0955448  25.5719543  41.8530130
  39.3324995  26.4826655  42.0281935  38.3711457  25.3933477  42.4526596
  46.2660646   2.9956973  54.5121050  45.4942608   2.4583113  54.6903372
  46.5561295   3.2918805  55.3748703  39.9007487  13.6989915  30.6399298
  39.3451834  13.4889162  29.8892999  40.7042170  14.0470719  30.2532649
   3.6088812  54.7378731  19.9419427   2.8124881  54.7911501  20.4702902
   3.9876848  53.8875198  20.1647472  53.4640837  11.2733912  14.0804279
  53.1218243  10.5810690  13.5149372  53.6578751  10.8328903  14.9078548
  72.1242619  29.3158102  31.9399333  71.9647598  29.5070744  31.0156989
  71.7359543  28.4515810  32.0761538   1.9093306  74.2976475  35.2573514
   1.9315881  75.2323103  35.0520587   2.1169251  74.2524147  36.1906743
  50.9271097  20.9524512  49.5580578  51.0421467  20.0871086  49.1654015
  50.6566000  21.5118217  48.8299370  17.2423553  70.9894896  10.4937494
  16.4301777  71.3711834  10.8267784  16.9592738  70.2274799   9.9883354
  10.6486750  11.5243220  38.1627393   9.7804075  11.6587305  37.7828979
  10.5322659  11.7034566  39.0957928  48.3542585  17.7283502  30.7321763
  49.0146399  17.5094295  31.3895965  48.2983303  16.9485140  30.1799440
  65.3279352  52.1143532  40.4109669  66.2726307  51.9942141  40.5076599
  64.9527121  51.2680960  40.6544590  30.9991741  68.2272911  63.5855103
  31.5325570  67.9610252  62.8366184  30.8058858  67.4099064  64.0445900
  73.6546659  36.6947937  55.7975960  73.0863953  37.2281551  56.3533163
  73.0824518  36.3881874  55.0941801  13.1042981  67.7743053  14.8152184
  13.6348391  68.2859468  14.2044973  12.2562313  67.6863098  14.3801665
  70.5071878  31.8976355   3.0452776  69.7282934  32.4381423   3.1772143
  70.1799250  30.9982395   3.0601788  11.1853504  62.2117662   3.1427798
  10.8032310  61.7073202   3.8609380  12.0877194  62.3741341   3.4177297
  58.1615210  34.9624825  40.9598780  58.9654255  34.5644975  41.2939167
  57.7744055  34.2880917  40.4016924  55.6592417  69.2657042   0.5476409
  56.4109898  68.9685011   1.0602607  55.9433794  69.1853237  -0.3628742
  40.3364611  10.5111837  19.4043648  39.6913123  10.5916953  18.7018466
  40.7290125   9.6483755  19.2713320  25.3027153   8.8574481  31.4558506
  25.3883839   9.4436115  30.7039833  25.8256507   9.2709434  32.1427226
  73.5161066  18.1114244  54.4230747  73.1544304  18.1373096  55.3089380
  74.4137287  18.4289515  54.5214701  36.3876104  20.5980659  46.8374729
  35.6993866  21.2578630  46.7523575  35.9693885  19.7797966  46.5695953
  48.5759449  62.3177242   0.6835967  48.2147598  62.7406883  -0.0954299
  49.1022730  62.9981995   1.1033174  47.7763987  63.0704594  60.7413340
  48.7183332  63.2316875  60.6866026  47.5686598  62.5900984  59.9398804
  43.6898994  51.0271788   6.3624239  44.4102287  51.4915562   5.9361482
  44.0450001  50.1593828   6.5549451  50.4435778  31.2825584  50.9955406
  49.8868990  30.5993009  51.3690424  49.9376822  32.0882082  51.1015320
  75.0589609  48.7609243  64.2099857  75.9315491  49.1541052  64.2250109
  74.7531509  48.8908243  63.3122969  24.0730619  59.9208641  68.6707497
  24.8602676  60.4592657  68.7523651  23.3519602  60.5503130  68.6645794
  20.0998616  67.8606987  42.9813862  20.3429151  68.7829161  42.8996849
  19.1916990  67.8248405  42.6810789  53.8218260   7.1365982  46.7794609
  54.4097710   6.9725490  47.5167799  52.9824018   7.3521155  47.1858406
  62.0357227  32.0447516  35.7147837  62.4180412  32.3940659  34.9097729
  61.7844439  31.1485529  35.4913521  52.2138119  39.9606848  52.2138786
  52.8453588  39.8308015  51.5064096  52.7046347  40.4271173  52.8904581
  14.7241127  32.2229671  61.7077780  15.3605211  32.1267128  62.4162626
  14.7896624  33.1425357  61.4502335  13.7455463  77.2073317  52.9524469
  13.0916381  76.5100145  52.9036093  13.7207568  77.4954462  53.8649178
  59.9009895  16.0133111  40.4850388  59.6453142  15.8586955  41.3944101
  59.0809774  15.9630477  39.9938297  53.2047558  33.2104802  44.7854662
  52.9293251  34.1027832  44.9956226  53.1136560  33.1493878  43.8345718
   9.2970198  67.6801682   0.3811991   9.4364327  68.1422758   1.2077912
  10.1477230  67.7104187  -0.0565470  33.8362098  61.1725712   6.1330223
  33.3842182  60.9245014   6.9394946  33.1323862  61.3649130   5.5134499
  33.3927631  45.0053072  64.9755430  32.6616693  44.6409655  65.4745293
  33.7083220  45.7337713  65.5103302  46.4963436  21.9274521  53.2271957
  47.3059130  22.4358964  53.1790876  45.9443808  22.2898364  52.5341988
  45.2209282  38.3406734  45.2117157  44.5149946  37.7072430  45.0826597
  45.9116030  37.8435850  45.6500149  65.7160568  63.1067801  62.0833302
  65.1423883  63.8556814  61.9212198  65.2244759  62.5559711  62.6925850
  64.1988611  12.0266318  42.0113564  64.1740799  12.0732486  41.0556126
  64.0768385  12.9315460  42.2985363  13.5245585  32.3007655  45.8972168
  14.3067205  31.8265963  46.1793852  12.9151165  31.6156030  45.6226921
   8.2685190  26.4887381  44.2932653   8.3809668  27.3916483  44.5904875
   7.4714017  26.1900091  44.7309828  67.6539183  49.7189808  34.2789936
  67.2323608  49.4375563  35.0909805  67.8525114  50.6445885  34.4205546
   5.5619073  25.9050965  25.1677012   4.8367989  25.3589082  24.8641777
   5.6589419  25.6816149  26.0933757  76.4011955   0.7927028  40.8743191
  76.8366718   0.1583130  41.4436531  77.0727968   1.0472333  40.2415466
  64.8888826   3.4151691  38.6361861  65.5258369   2.8946739  39.1256881
  64.5794535   2.8281790  37.9463124  38.5735703   9.7325742  53.9752865
  39.1540003   9.1585314  54.4750929  39.1386366  10.4468262  53.6807108
  24.5499444  29.9498129  45.4547596  24.8413396  30.6512570  46.0372496
  24.6587539  30.3090000  44.5742035  61.7053366  40.8412266  37.2426200
  62.2056055  40.1997185  36.7382073  61.2805033  40.3273106  37.9293823
  56.1325216  28.9639640  24.5635867  56.2428522  29.2349172  25.4749823
  55.1931238  28.8038778  24.4733500   6.2128055  60.0484467   0.2625825
   7.0307207  59.6311903   0.5330322   5.5459881  59.3737650   0.3906036
  81.7776489  20.7465434   9.2080414  82.6945686  20.5313468   9.3788511
  81.7724609  21.6964841   9.0904868  45.3567839  12.9860520  28.9154625
  45.7590914  13.2675803  29.7371221  44.9186325  13.7692904  28.5826087
  52.2028399  17.5689423  43.8426971  52.1870327  18.0809474  43.0341005
  52.1961689  16.6578019  43.5494232  63.0919266  48.8155937   5.2169377
  63.7519884  48.7514830   5.9071833  62.4686623  48.1168938   5.4159093
   8.8614821  70.0064898   8.4964174   8.6476767  69.5653439   9.3185532
   9.1283774  70.8872557   8.7595743  28.5090232  29.3299079  34.4995308
  28.6075354  28.6177778  35.1315093  29.0083313  30.0547600  34.8757124
  59.3356609  62.0269537   6.0177666  60.2406263  62.0854330   5.7114172
  58.9645195  61.2920618   5.5294812  43.8692379  21.3141251  42.5722742
  44.5685148  21.9401026  42.7604246  43.7710571  21.3436079  41.6205788
   4.7878605  45.6212234  54.1607285   4.0804738  46.1689711  54.5010376
   5.3547025  46.2294292  53.6863756  14.6517801   9.9204499  10.8557105
  14.9875200  10.7125962  10.4361701  15.1291275   9.8672307  11.6836834
  39.4412041  24.7132230  35.1598167  40.1609564  24.1125417  35.3531289
  39.0074062  24.3297911  34.3975639  20.3687859  62.4589443  14.4193935
  20.7825851  62.9887533  15.1007926  19.8849952  61.7867756  14.8993635
  36.8411303  23.6016583  60.5217981  37.2226691  24.1762733  61.1854839
  36.9379783  22.7207017  60.8834171   5.8610868  76.2053728  60.3657293
   6.2186968  75.3382397  60.5565739   6.2143075  76.4257336  59.5038080
  22.3056746  76.8294191  15.5676007  21.5492702  77.2900438  15.9307945
  22.7843165  77.5009155  15.0815701  57.3446226  53.4668207  41.7334652
  58.2506418  53.7328911  41.8901968  56.8223810  54.2185116  42.0135498
  53.6585855   2.7619439  68.3484268  54.0277767   2.1766755  69.0097857
  53.4864712   2.1953079  67.5964117  80.1259232  51.6793156  54.2672348
  80.1252460  50.9000111  53.7114286  80.7128429  52.2905111  53.8220406
  47.5024986  76.9526386  51.7071772  47.0145988  76.1383820  51.5840101
  46.9754696  77.6171160  51.2633944  66.9192791  46.8279457  64.9557304
  67.4277449  46.4420700  64.2424297  67.0843601  46.2551737  65.7046700
  60.0316620  66.3708258  34.8878288  59.3894815  67.0754862  34.9732208
  60.2610493  66.1452770  35.7893491  19.1387224  28.2964134  47.3177052
  19.3095922  27.3549533  47.3439026  19.9262118  28.6718965  46.9238710
  63.0491877  44.2503500  59.7115612  63.6337900  44.9942255  59.8568773
  63.1314707  44.0600395  58.7770844   0.4253783  48.7055159  54.1563845
   0.8006189  48.7633801  53.2777023   1.0134935  48.1170225  54.6296978
  10.3320348  34.4199729  41.0020876  10.3834629  33.4936237  40.7665825
   9.6456897  34.7732520  40.4360867  56.5724993   5.1754850  28.1128955
  56.5917587   4.5756981  27.3671627  55.6411171   5.3138983  28.2849479
  51.2294245  23.7183070  61.7686033  51.3230515  23.4237218  60.8626842
  50.3881168  24.1745043  61.7863750  56.5445709  61.6939831  28.7137651
  55.8905697  62.3883677  28.7934303  56.7373514  61.6528559  27.7770829
  17.4030793  11.4829719  42.2781420  16.6501069  11.0199296  41.9109106
  18.1623387  10.9896457  41.9676781  41.4876890  49.4571543  33.8359547
  41.2479162  48.6717081  34.3277025  42.0762253  49.9351692  34.4202161
  82.2882271  70.7658434   2.4750246  81.4220619  70.8500814   2.0764044
  82.7014160  70.0448513   1.9999705  23.8866639  18.0009103  36.2190104
  24.6408224  17.4380088  36.3939881  24.2686749  18.8398480  35.9611654
  37.4542356  16.1110497  58.6473846  38.3456612  16.4558482  58.6993933
  37.3288441  15.6455779  59.4743347  57.4022102  34.6391821  61.8051052
  56.5460777  34.8560429  61.4359951  57.8872919  34.2544818  61.0750771
  35.7405472  15.9454393  41.6628456  36.2518120  15.3456390  42.2060585
  36.3959479  16.4745867  41.2082195   0.8358289  64.1283131  32.1884918
   1.4786670  64.8266554  32.3122048  -0.0076604  64.5453644  32.3640656
  42.4197388  22.7635884  51.7068720  43.0577469  22.6260996  51.0066748
  42.3237419  21.9034362  52.1157217  49.8239517  22.9437637  68.2764292
  49.1002607  23.2597017  68.8174391  49.6331072  23.2802391  67.4008751
  40.8017254  18.2279611  43.2474518  39.9706221  18.3183491  43.7136412
  41.1658001  19.1131020  43.2331228  54.2548275  25.4688239  37.6656032
  54.9917078  24.9056196  37.9023194  54.6489811  26.1783028  37.1581483
  74.7650242  20.0667477  48.8788366  75.0003433  19.4869065  49.6031570
  73.8977814  19.7681558  48.6050367  50.9003973  36.2516141  52.4292469
  50.7662725  36.7904091  53.2089520  51.6162539  36.6815019  51.9612932
  47.4818087  69.3718481   8.4223372  47.5882959  69.8894358   9.2204571
  48.1959629  69.6592140   7.8534436  33.3450890  14.1586649  59.8299599
  33.0145669  14.8372984  60.4185534  33.7357402  14.6423352  59.1021633
  73.7923241  77.1782970  19.2395735  73.2021093  77.9187012  19.0992844
  73.3052778  76.5896702  19.8162353  62.5642729  71.8470430  60.6863689
  62.7198267  72.6698256  61.1501169  62.9186726  71.9955301  59.8096800
  61.4190054  41.9699383  51.1585236  61.6994810  42.7110243  50.6215382
  61.1194324  42.3666620  51.9765091  83.3038139   2.6646832  50.2516174
  83.7072372   1.8448900  49.9662685  82.7985477   2.4252692  51.0285473
  57.5128269  25.5045033  20.2092624  57.8595924  24.9317098  20.8932924
  56.8721199  24.9644065  19.7466385  55.1831579  30.5904222  63.0702877
  55.8188057  30.9032702  62.4266195  55.4944801  29.7174788  63.3096218
  65.9563446  38.7367845  39.3302059  65.3754091  39.4591451  39.5688248
  66.2669230  38.9591074  38.4525132  66.2701225   1.0555116  40.7396698
  66.0464859   0.9513418  39.8148108  67.1924591   0.8050908  40.7927370
  58.3709908  70.9257364  58.9380264  58.7881136  71.7703581  59.1079092
  58.9652252  70.2829504  59.3252468  44.7696972  13.1205380  39.7439694
  45.6089497  13.3011496  39.3205714  44.6341848  12.1816158  39.6163154
  19.5564485  54.2233467  10.0101471  19.6005130  54.2912436   9.0563756
  18.8832223  54.8545218  10.2643478  74.3915081  25.3253627  60.7264996
  74.0048027  24.7814107  61.4126539  75.3329420  25.1678729  60.7980967
  45.4433966   1.8644965   7.3134160  45.9838104   1.7497851   6.5317333
  45.1653147   0.9782148   7.5445199  69.1123772  62.5185633  41.3440418
  69.3789959  61.8123674  40.7554579  69.0910149  63.2979488  40.7887602
  82.6409149  50.3994370  56.2174559  83.5660267  50.1705647  56.1279440
  82.6047134  51.3341713  56.0144901  43.6632824  13.1833875  21.4430404
  44.5151138  13.6199749  21.4455700  43.4011221  13.1750953  20.5224776
  69.2080927  65.8080673  65.4719830  69.2613363  66.4182568  64.7364092
  68.8871431  64.9936199  65.0848103  74.8770237  54.8660946  22.9580927
  75.5057096  55.2834940  22.3692250  75.3670073  54.1506577  23.3634233
  56.1538315  63.5426188  63.4818983  55.5462217  63.9806843  62.8859615
  55.8459806  62.6368666  63.5146713  70.5111456  61.9988632   9.4175148
  69.8529291  61.4660120   9.8636746  70.0536871  62.3573971   8.6569774
  22.8734088  75.9978390  58.0063629  23.8255668  76.0952950  57.9950094
  22.6431537  75.7895184  57.1009254  -0.0532744  54.4750786  53.9966297
   0.2209738  54.9321175  54.7916985   0.2646071  53.5797691  54.1132879
  59.6718121  24.1496730  41.6217566  59.2878723  25.0098038  41.7920446
  59.3552256  23.9144874  40.7495832  79.3684769  23.6178327  42.0475483
  79.4036913  23.0794501  42.8382015  79.6995163  23.0470037  41.3541460
  51.5533257  21.7069268   0.9024975  50.7294178  22.1889305   0.9737380
  51.8680811  21.6361165   1.8036893  13.6792421   0.5802950   6.4187562
  14.4184983   0.9326099   6.9143420  13.2258260   1.3534759   6.0828441
  83.6041260  21.9454980  34.5493102  83.2357407  21.2066984  34.0648532
  82.8452492  22.3761845  34.9428082  65.1890421  15.8149076  28.6851048
  64.8184347  16.6747439  28.8840103  65.9630299  16.0045528  28.1548119
  83.4327888  45.3519487   6.6015530  84.3058300  44.9897003   6.4505696
  83.5740948  46.2960386   6.6719973  52.2983646  60.6164408  53.1512117
  52.7508163  61.1487722  53.8055372  52.8329659  59.8261976  53.0740786
  15.9139144  51.9053841  30.0238705  15.5207276  51.1514378  30.4634142
  16.6804504  52.1196985  30.5555868  64.4412327  69.5817232  15.5162382
  63.5630083  69.4061089  15.8540380  64.3914318  70.4733467  15.1716149
  59.9205494  53.5983896  59.2130041  59.9694443  53.2687998  60.1103401
  60.7805777  53.4053516  58.8397503  69.8608875  72.1208239  26.5718913
  69.9771357  71.4231396  25.9269524  68.9257050  72.1054745  26.7754149
   9.2157054  11.2583840   0.0762886   9.5914227  11.9263422   0.6497868
   9.1390461  10.4820478   0.6309572  59.9986839  68.3738947  19.4218838
  60.8038998  68.8558912  19.2333758  59.3865681  69.0417242  19.7309864
  56.5679884  76.7818785  40.7980967  57.5047398  76.9565010  40.8888578
  56.4261293  75.9737587  41.2911034  60.6446075  11.0838103  39.0768147
  60.5931282  10.8456910  40.0024939  60.3086567  10.3167510  38.6131477
  52.9484272  44.6793222  52.2021866  52.5127554  45.3595781  51.6886950
  53.8360786  45.0116730  52.3358202  67.0043516  14.5718408  39.3793964
  67.4150419  15.1738036  38.7587452  66.0693645  14.6246409  39.1813040
  13.7301385   9.3062389  65.7176447  13.1261003   9.0031648  66.3955212
  14.2561495   8.5356873  65.5036449  76.2113857  33.4573340  64.7615767
  76.2859249  33.8662529  65.6238174  75.3687859  33.7614655  64.4242954
   7.5523770  64.0501404  13.0533099   8.2578760  63.6143446  13.5314178
   6.7572296  63.5974979  13.3345389  70.2763271  39.6359229  24.5562553
  69.4288921  39.1916776  24.5833516  70.0635004  40.5451488  24.3458986
  69.3972301  54.6300173  25.6953740  69.4209146  53.7041903  25.9372711
  69.3031073  55.0927734  26.5279770  46.0472059  65.4976511  46.2940550
  45.9979010  65.4120350  47.2461414  46.6950464  66.1871672  46.1488104
  67.7676153  54.9527502  41.3844347  67.3963785  54.6192312  40.5676222
  67.4020720  55.8330774  41.4717960  72.3763808  56.3645399  68.9344727
  72.4656590  56.3954842  67.9819479  72.1437033  55.4555631  69.1238221
  66.8307257  41.6700554  44.9293900  67.4918413  41.4970684  44.2591381
  66.9285059  40.9509134  45.5534935  71.2205744  13.6281931  54.8109341
  71.4821768  14.3568754  55.3737974  70.2789927  13.5381973  54.9577475
   8.3694035  16.4926839   2.5446346   8.3682507  15.9113216   3.3050609
   9.1281080  17.0607173   2.6785696   5.1981819  63.7993145   7.9651511
   4.7889727  64.6256685   7.7084059   4.7222832  63.5303450   8.7509036
  57.6101398  71.4225769  63.0131102  58.3462381  71.5858459  62.4234200
  56.9593811  70.9811258  62.4673367  50.3845930  69.5768404  56.5232468
  49.4820833  69.4635916  56.2251091  50.3018427  69.9465799  57.4022675
  74.9634981  60.6726694  48.6701584  74.7853518  60.0229168  47.9902172
  74.1435528  60.7380390  49.1596985  12.1463418   2.9894716  28.9504862
  11.3969147   2.3978940  29.0185046  12.2522974   3.1346858  28.0103159
  62.0861769  45.5127525  45.3259516  61.4203405  45.9334326  45.8699369
  62.7506351  46.1891460  45.1947212  58.2429218  60.5354023  45.9750175
  59.0141392  60.3925276  46.5236855  57.5021076  60.3267479  46.5441322
  10.4626310  49.7893000  17.7659595  10.7263052  50.7001352  17.6352322
   9.8128796  49.6275187  17.0819402  17.9188991   8.9808035  27.7191234
  17.9517317   9.8518312  28.1146789  18.2525396   9.1083115  26.8310595
  82.4930763  51.4701986  36.4622879  82.0701694  50.6285238  36.6324854
  82.2335529  51.6921616  35.5680776  58.9121246  50.4117060  54.5242739
  57.9575253  50.3413153  54.5282698  59.1076708  50.9743023  53.7749529
  63.8531876  19.8044682  55.8043861  63.8085079  20.4108644  56.5436554
  64.6788263  20.0174832  55.3694391  52.7543974  69.8720217  66.8531275
  53.3079481  70.4668140  67.3591232  52.2534943  69.3918324  67.5124788
  56.6417694  52.8936100  33.2876539  56.9596767  53.4720230  33.9809132
  56.8151474  53.3729887  32.4774885  72.7821541  77.9783630  49.3505383
  73.6579466  78.1440306  49.0015793  72.3832560  78.8458490  49.4182253
  82.2031021  49.1938496   1.6026840  81.8981171  50.0787830   1.8029529
  82.8486729  49.0032530   2.2832379  55.4801035  40.7848120  48.0696297
  55.5808783  41.7261028  47.9280663  54.6388912  40.6987715  48.5181713
  65.4753256  29.0476751  45.1254654  65.7024479  29.5042443  45.9355259
  66.2550592  29.1314387  44.5766163   0.5731340  34.8309207  15.2514160
   0.9024258  35.6865358  14.9762452  -0.3014923  35.0105238  15.5963838
  82.8046131  35.6784916  36.5938258  83.4324360  35.7294011  37.3145723
  82.9555130  34.8168731  36.2051487  69.7858810  42.4004841  44.6777582
  70.1578808  42.5999403  45.5368662  69.7374630  41.4448118  44.6537447
  77.4165201  13.2048047  37.0227170  77.8680134  12.5089157  36.5450954
  76.5297651  12.8690314  37.1536899  61.6589260  29.2614961  38.0397201
  62.6057005  29.1278791  38.0843115  61.4366007  29.0962219  37.1234846
  57.7671909  53.6105919  52.8135347  57.1026373  54.1474342  53.2452774
  57.2904682  52.8385448  52.5087214  67.2476721  68.3871746  19.3847108
  67.4831009  68.8368082  18.5731471  67.6207447  68.9323044  20.0774479
  81.5362549  42.6874924  54.7423792  81.1145496  42.5606251  53.8924980
  80.9520054  43.2816887  55.2133417  80.6067657  36.5331674  45.9804535
  81.0951138  35.7141447  46.0637856  81.0980988  37.0403028  45.3342104
  75.9611845  17.8327298  33.9950204  76.7155933  18.3402538  33.6958361
  75.2492571  18.4703827  34.0478301  10.1016176  72.5335693  21.8179941
   9.7821176  73.4356785  21.7993641   9.3104535  71.9980097  21.7591214
  45.6885529  35.0466490  46.8890142  45.7924938  34.1230536  46.6601133
  45.4222822  35.0370550  47.8083849  60.8633757  28.8583922  43.2233477
  60.7712889  28.5893512  42.3093605  60.8292246  29.8145962  43.1961584
  79.1334152  34.8313117  48.0905390  78.8818645  34.3037367  47.3325014
  79.6601534  35.5414987  47.7239132  33.4717560  13.8690937  43.5102320
  33.2566285  14.0868664  42.6032972  34.1080213  13.1573141  43.4411812
  70.0609970  30.4235172  29.7635412  70.3792095  29.5358992  29.5988870
  70.4850817  30.9583259  29.0924501  80.7906723   5.6873471  42.4515676
  80.1458645   5.2730399  43.0249929  81.4596462   5.0157344  42.3187590
  19.4745040  72.4859333  10.3864765  18.7729073  71.8882608  10.6448996
  19.9584830  72.0096779   9.7118115   2.3993739  31.5337968  35.2303505
   2.2229758  31.4726472  36.1691666   1.5847099  31.2513566  34.8146820
   7.0238113  59.2022276  20.4751611   6.6525012  59.9638128  20.0297952
   6.3096952  58.5651731  20.4959297  48.7075996  52.7872467  65.0654650
  48.0482960  52.2320127  65.4817104  48.7508154  53.5654306  65.6211615
  66.7825603  60.0756311  29.0624070  66.8810844  60.9016800  28.5889411
  65.8372641  59.9282360  29.0927553  57.4730778  67.1924162  28.3044410
  58.1118202  67.5479984  28.9223385  57.9478264  67.1358347  27.4751973
  74.0824652  45.5535793  42.1356392  74.7770119  45.3289604  42.7548170
  73.2798624  45.2386427  42.5514269  66.4884186  50.7212830  54.5056486
  65.5613756  50.8823538  54.6813726  66.8962622  50.7008123  55.3713703
  -0.3069101  59.3732357  15.9945583   0.5356038  59.2672205  15.5527866
  -0.1394997  60.0234938  16.6767406  47.4407434  58.8743114  13.0499709
  46.8381596  58.4929371  13.6884665  48.1044531  59.3150330  13.5805285
  51.5801811  75.7938147  33.7787485  51.0390711  76.0641479  34.5206022
  52.4662399  76.0669851  34.0164638  69.5142841  62.3912716  28.5213399
  70.2740955  62.8008366  28.1076002  69.0462208  61.9710064  27.7998638
  81.2152004  42.3241234  61.1133528  82.1668720  42.2713757  61.0251808
  80.9513092  41.4466619  61.3902330   4.8378605   4.0962526  27.3049998
   5.4116541   3.8713828  28.0374122   4.0652630   3.5446933  27.4279118
   3.4880623  43.0656338  25.4399729   3.5201499  42.2217178  24.9894142
   2.6512954  43.0573606  25.9047127  35.7465029  77.8547335  10.7849813
  36.3662195  77.2141504  10.4359341  35.6526685  78.5024500  10.0864899
  15.8464730  50.3399181  33.9216018  15.1911902  51.0328913  34.0030217
  16.6599989  50.7426929  34.2252159  49.2339754  53.9191484  38.6808038
  48.4284544  54.1672564  38.2271433  49.3566990  52.9951859  38.4629345
  59.0069962  63.9163542  55.6692553  59.5815039  63.2136059  55.3654194
  58.6426210  64.2913580  54.8674870  80.2689362  58.2413197  32.0967102
  80.8829212  58.2440042  31.3623786  79.4057131  58.3007336  31.6873765
  12.0676303  55.3991032  12.4795091  12.0897710  55.7756662  11.5997696
  11.6397440  54.5504141  12.3660684  82.1037197  53.1899261  52.2052097
  81.6682148  52.4181795  51.8433046  82.9899025  52.8911877  52.4093342
  16.5856659  52.4637222  50.6523991  15.6810713  52.7456808  50.5166006
  16.8537414  52.1035242  49.8070431  73.1708479  29.2028594  52.9647017
  73.0954981  29.3516207  52.0221376  72.4428320  28.6176062  53.1737614
  65.8163929  73.8030720   6.8635046  65.3941202  74.3433189   6.1956340
  66.6970921  73.6461163   6.5229738  73.2437181  52.2883081  62.5542402
  73.8381147  53.0194759  62.7225399  72.6797915  52.2553253  63.3269787
  76.4087725  45.5107164  26.6662693  76.6424513  44.6054411  26.4610767
  77.2190571  45.8980799  26.9973612  11.0178947  25.9553218  43.7247229
  11.2359703  25.8135700  42.8035402  10.3436744  26.6346073  43.7094593
  73.6763048  38.5017800  27.7398133  73.6406946  38.5875201  26.7871261
  74.0399742  39.3341231  28.0417752  52.8644562  74.6815300  23.7630892
  52.1955013  75.3181505  23.5112023  53.2088184  75.0116110  24.5929646
   1.0606742  63.0147314  57.8047371   0.5052130  63.3661270  57.1088839
   1.9206207  62.9136133  57.3966932  46.5574169  22.0426559  41.2568855
  45.9586239  22.1355033  40.5158997  47.0294428  21.2283349  41.0828018
   2.4638209  32.1188450  28.1976509   3.0729079  32.8380418  28.0303168
   2.9979098  31.4459777  28.6198235   0.6123307  66.7908096  63.0371523
   0.1719501  66.7847633  63.8870096   1.1858377  67.5564718  63.0700111
  21.0509372  55.1879787  20.8140039  21.9159555  55.5823612  20.9255290
  20.7076621  55.1079321  21.7039394  56.1319876  58.8558149  65.9708071
  56.2698841  59.0579844  66.8961954  56.6225243  58.0465794  65.8267593
  21.9168234  33.6927629  39.6903253  21.2182975  34.2616010  39.3667245
  22.6351476  34.2902064  39.8984194  54.7699165  36.2420464  56.9206715
  55.1332521  35.7361484  57.6475048  53.9641619  35.7810926  56.6871977
   0.5187522  57.4152994  41.6388845   1.1778500  57.0938349  41.0236740
   0.3900501  58.3318472  41.3947344  54.2099476  23.3102846  68.1451988
  54.5445395  23.7630296  67.3710537  53.7109709  23.9777780  68.6160517
  68.4202337  69.6391153  21.8304563  69.3469524  69.7077131  22.0600677
  67.9659939  69.6145248  22.6726532  41.2222576   6.6383135   6.1236900
  41.2554359   6.0074866   5.4045320  41.3530254   7.4881423   5.7030666
  70.8991623  52.7179861  27.4178696  71.5041637  53.3537292  27.8000236
  71.4310503  51.9342566  27.2796965  10.6724143  56.6583872  41.8293667
  11.0105336  55.7634974  41.7965412   9.9588144  56.6215897  42.4662733
  43.5163689  70.9009361  36.0724783  42.8512764  70.5936193  35.4564929
  43.2302666  70.5641842  36.9215822  16.7158806  51.9021940  68.5402489
  17.5681162  52.3188114  68.6681461  16.2019086  52.5509119  68.0593872
  65.2171850  62.8704023  28.1549859  65.9731436  63.0922604  28.6986208
  65.5928040  62.4423075  27.3856497  65.8735657  51.4134026  30.3430319
  65.4760933  50.7345629  29.7976637  66.7862701  51.1408567  30.4374623
  28.3893800  42.2962570  25.8407545  27.5054979  42.0494080  26.1128736
  28.3000946  42.5247669  24.9155283   5.4912961  42.9248428  32.1528363
   5.0728732  43.7431908  31.8855095   5.8555198  42.5665092  31.3434100
  53.7274504  55.6222630  41.6327238  52.8946161  55.6247759  42.1045351
  53.7513638  56.4677000  41.1845064  44.0551758  35.5866528  11.6726387
  43.6733389  34.7624969  11.3706481  43.3119965  36.1868286  11.7335498
   9.9575484  52.4189329  51.0769796   9.1203022  52.3281050  51.5319538
   9.8676777  53.2249784  50.5686092  70.0538635  33.8811707  27.2692442
  70.7120037  33.3278370  27.6898503  69.9636650  34.6331477  27.8545833
  62.7535343  75.5648136  26.2537503  61.9552612  75.8577251  26.6932869
  62.8640890  74.6573925  26.5376544  69.0344858  76.3885975  20.5870581
  68.9454842  76.6309261  21.5087891  68.1688690  76.5508795  20.2120829
  59.5123148  63.1047726  64.7215748  58.8171673  62.6354837  65.1828480
  59.1120338  63.3734035  63.8946247  70.0698948  36.4313126   7.7290887
  69.9616718  37.0764709   7.0303118  69.3625164  36.6238785   8.3445263
   5.1846409  69.4425869   6.6716182   5.6732047  68.8404894   7.2328818
   5.2666968  70.2927494   7.1037322  42.6888514  77.1569347  45.5178404
  42.7349997  77.0291710  46.4653540  42.3499298  76.3277102  45.1805735
  62.1679258  29.1371870   8.6940086  63.0372620  29.4789815   8.9029568
  61.7968512  29.7798419   8.0894172  69.2364025  39.3961310  61.0972214
  70.1112080  39.3470335  60.7118130  68.7211561  38.7578964  60.6038570
  54.0875006  58.7419271  52.2559595  54.8689461  59.1695070  51.9056129
  54.2310047  57.8097248  52.0927334   8.0399805  35.9244394  32.5282979
   7.3234642  36.5511608  32.4280214   8.8037008  36.4643502  32.7319098
  64.5895481  32.3512483  43.9398718  65.0441456  31.8960500  43.2310915
  65.2240992  32.3732781  44.6561718   6.8244779  59.7849607  23.3020186
   6.2654161  60.5510569  23.1724954   7.1989703  59.6129227  22.4380803
  35.4027319  12.3515940  41.8724012  36.3167691  12.4695349  42.1309710
  35.3353548  12.7897847  41.0240602  41.4700699  69.5504856  34.7033143
  40.6151199  69.1207647  34.7285771  41.9314241  69.1236639  33.9813685
  68.1035805  76.0152864  62.4645042  69.0205908  75.9511948  62.1976423
  67.9535723  76.9532204  62.5828695  53.6605597  55.9235811  30.9982872
  53.5284376  56.2166739  30.0966930  54.5963430  56.0486412  31.1560941
   0.4882914  42.1900654  24.3464088   0.3660444  41.4257908  23.7832284
   0.9969585  42.8012943  23.8135958  75.6657982  37.1176052  12.0195448
  76.4253569  37.2774887  11.4594221  75.6895685  36.1764479  12.1924376
  59.8153353  27.7384996  67.2384834  59.7088671  28.1727242  68.0848551
  60.1160336  26.8566346  67.4578667  70.3140259  22.8961372  23.7452292
  71.2294483  22.6166987  23.7572789  70.2846241  23.5919333  23.0885434
  21.2770700  -0.0179363  33.9602661  20.5802131   0.5849377  33.7011027
  21.1497211  -0.1410392  34.9009371  78.0525923  72.0034075  41.3138819
  78.0109644  71.0512638  41.4029026  78.5220003  72.1468306  40.4921055
  66.5551710  59.1063166  21.4329410  67.4579239  58.8197660  21.2945461
  66.1802292  58.4445095  22.0140290  61.6824627   1.6748580  51.5832424
  60.8123064   1.6007976  51.1913586  62.0666552   2.4476135  51.1691475
  61.3194227  58.2991838  45.4371452  60.9361649  57.6329470  46.0076475
  60.7821321  58.2743692  44.6453524  58.8681555  54.9474049  26.8425536
  59.3946886  54.7085762  26.0796952  58.6352539  55.8640909  26.6953444
  79.0812349  24.0568852  52.0143652  79.7556639  23.5061955  51.6167307
  78.2860851  23.8556886  51.5209198  11.6852736  10.1006806  42.6366234
  11.4154303  10.5720127  43.4248257  11.1389256  10.4655874  41.9405079
  61.9891310  66.4864874  50.6508112  61.2119246  67.0205545  50.4866314
  62.0313501  65.8891010  49.9041033  72.3481417  70.1672173  32.1614790
  72.0144081  70.9529686  32.5944304  72.0249510  70.2332878  31.2629175
   4.8209482  62.7605009  13.3761692   4.1713306  62.0639181  13.4710276
   4.7609288  63.2567596  14.1924763  71.8197584  65.8943033  38.0553651
  72.0477390  64.9917841  37.8323889  71.9385338  66.3799858  37.2391319
  73.5806417  34.6122503  64.6959162  73.1304502  35.3666830  64.3159294
  72.9485226  33.8967228  64.6275425  77.4892092  29.0238667  52.1589470
  77.3230314  29.9275351  51.8906164  77.9399157  28.6310768  51.4114094
  57.7471113  44.3482733  55.7663584  57.3803759  45.1950693  55.5120468
  57.4999237  44.2465067  56.6854715  15.6354129  14.3064630  38.3464336
  15.5213356  14.9861610  39.0106821  15.8045673  13.5083306  38.8470340
  72.5878763  52.2079372  38.8148475  72.4150991  51.5647650  39.5023870
  72.5204754  51.7109632  37.9995537  58.1544542  60.9136915  19.7974741
  57.5669718  60.8435059  19.0450323  57.8006935  61.6401815  20.3106022
  44.7528505  61.5918016  33.9727783  44.3681192  62.3890257  34.3369937
  44.1105700  60.9077883  34.1620708  16.5449262   2.7945825  29.0142798
  16.6461968   1.8429664  28.9942098  17.0650542   3.1064704  28.2737207
  48.5994005  44.6613598  45.0258207  48.3197594  44.0895414  45.7406998
  49.3844795  44.2404318  44.6755314  39.3710947  61.6534662  20.1990843
  39.9556899  61.3394642  19.5092416  39.7106695  62.5194168  20.4250240
  35.5891252  17.9554510  46.8387079  35.4871678  17.2854245  46.1627674
  36.2543416  17.6011205  47.4287701  64.1669893  37.1019673  46.6377163
  64.6892738  37.5574803  45.9774446  64.7673273  36.9752622  47.3724079
  68.1428242  23.7484431   4.7972104  68.6699009  24.1702175   4.1185886
  67.8138113  22.9504204   4.3835193  21.1784625  15.9585166  49.6358252
  21.5535498  16.0193920  48.7572861  20.4806995  15.3084111  49.5538282
  67.4494696  63.9491177  38.3376050  68.0499029  64.4576359  38.8826942
  66.5920496  64.0749741  38.7440777  32.4456644   9.6329701  68.3476019
  32.6672435  10.5499709  68.5096073  32.8982162   9.4176841  67.5320768
   5.1144367  76.3492632  50.4116392   5.6852186  75.9420013  49.7600412
   5.2218634  77.2897720  50.2697563  46.1139774  55.9375286  34.9122357
  46.0393476  56.6109371  35.5883908  46.8166399  56.2482214  34.3412995
  66.9674730  34.3970060  65.4195118  66.1574316  34.4988084  64.9198103
  67.6269102  34.8612523  64.9039078  69.9084044  56.8172836  32.5425625
  69.8331642  57.1162128  31.6363549  69.0863132  56.3572073  32.7120423
  79.5646286  51.4353991  46.1131287  80.4108429  51.0747433  45.8483934
  78.9229059  50.9363031  45.6078291  11.1888111  60.3400469  24.9640274
  11.4038551  59.4249249  25.1444173  10.2456057  60.3367853  24.8009753
  21.0910654   6.4856791  27.1684337  20.8986330   6.4450228  26.2316585
  22.0103335   6.7487389  27.2129130  44.0717316  63.7656021  41.3034821
  44.9341536  63.8171673  40.8914185  44.1515207  63.0530977  41.9376802
  75.7540655  44.7327423  33.3659959  75.0367069  45.1830959  32.9201150
  76.3677168  44.5085239  32.6664305  72.5687933   4.3960169  49.0464735
  72.0024300   3.6247367  49.0707684  73.0905485   4.2850938  48.2516766
  60.8706427  62.3942423  58.0835104  61.2907028  61.8951750  58.7840176
  59.9340439  62.3249102  58.2684708  -0.2991708  74.0662479  12.3379934
  -0.2482255  74.6264887  13.1124389   0.6129424  73.9236355  12.0851243
  75.1475477  33.5754204  25.5125356  74.2660475  33.3161211  25.2442956
  75.4825306  32.8204060  25.9962392  65.2779055  19.0765834  30.4593539
  65.4088497  19.9694192  30.1400900  64.8770618  18.6151779  29.7226954
  78.1807566  78.3391094  12.1984017  78.8885975  77.7494192  11.9386554
  77.5293732  77.7671719  12.6043785  31.7354584  64.7204399  38.8608003
  30.9435439  64.3570089  38.4645414  31.4271116  65.4733706  39.3650293
   2.8635070  40.6471205  44.8929453   1.9659770  40.9508848  44.7573042
   3.2287240  41.2575102  45.5334711  74.8907661  15.2654684  22.6871443
  74.3401146  15.6513429  23.3684087  74.2866898  15.0775337  21.9688106
  80.4760456  69.6139812   0.4221978  79.5877409  69.3074799   0.6043977
  80.9676456  68.8176680   0.2210646   1.5913546  70.0664854   4.6217427
   0.6759489  70.1495266   4.8888910   1.7550726  69.1233969   4.6177113
  63.9579487  62.2157717  63.8884687  64.0011692  61.9347382  64.8024607
  63.1160545  61.8847227  63.5756493   9.4340044   3.2098711   0.9175909
   9.9805117   3.4632683   1.6614670  10.0268197   2.7338815   0.3360102
  30.9336042  66.7990017  44.3771648  30.9804654  66.7661667  45.3326511
  30.0362206  67.0749903  44.1907215  62.4670601  61.2467861  56.3256168
  62.1903324  60.7640028  57.1044445  62.3163700  62.1656847  56.5473175
  51.3978910  52.3753309  56.5214300  51.3752842  52.7627563  57.3964310
  51.0442162  51.4938784  56.6405630  81.2129879  75.9069395  26.2365699
  81.4064789  75.6215048  27.1294999  81.7237091  76.7088509  26.1254930
  58.7994289  45.6990623  60.3610134  59.1606092  44.8182249  60.4605770
  57.9593897  45.5652714  59.9220753  82.0345974  53.6927223  43.7373734
  82.3984432  52.8100491  43.8061190  82.7088737  54.1947508  43.2796049
  50.0259495  36.1506176  55.5348635  49.0800571  36.0039473  55.5364609
  50.1457644  36.9351983  54.9997854  41.6150665  11.8961978  25.2496481
  40.7979202  12.1843636  25.6564236  41.3587332  11.6123915  24.3721628
  27.7738094  38.5434389  34.0134096  27.3811221  38.9623857  33.2475686
  27.0907974  38.5800767  34.6830249  82.4958706  39.9641347  32.8174114
  82.6925468  39.2553210  33.4298921  82.7600956  39.6226954  31.9631076
  14.3086982  75.2069616   0.4603167  14.8502171  74.5108366   0.0882987
  14.0278220  75.7220078  -0.2960349  51.1599302  65.2452755   6.6998965
  50.5205441  64.9035835   7.3249257  51.7383528  65.7970190   7.2264326
  -0.1040686   7.7696961   3.1384668   0.3548912   6.9991237   2.8040928
  -0.1201156   8.3782059   2.3997585  64.6986532  73.9388847  33.4538913
  64.1264963  73.9797211  32.6876020  64.2130995  74.3968201  34.1400170
  31.9805694  51.7888021  28.5802150  32.9252887  51.7758036  28.7337375
  31.5954542  51.6438532  29.4444537  68.6320829  59.3577719  33.3184958
  68.2527494  58.9476395  32.5412393  69.0375662  60.1609325  32.9917622
  70.6113195  65.3710794  52.1304178  70.2638006  65.8331776  51.3675737
  69.8586845  65.2712393  52.7133417  69.8362684  51.1265516  23.5035014
  70.6915188  51.0447884  23.0814958  69.9408865  50.6822777  24.3448710
  57.3521948  37.3781776  42.1379185  57.1205997  37.1290350  43.0326366
  57.4835443  36.5458035  41.6839027  74.5107317  42.4556255  41.9098949
  75.0026274  43.1321669  42.3752499  74.0816879  42.9221058  41.1925745
  67.5945568  52.8179884  43.2217693  68.0755472  53.3737087  43.8350058
  67.6215267  53.2964611  42.3931742  14.8113036  52.6523876  36.3284469
  14.1141963  52.2761965  35.7910872  14.5690012  53.5733986  36.4246535
  72.1121693  37.9794097  30.0101304  72.7698040  37.9537463  30.7051778
  72.5934029  37.7459002  29.2163301  39.1081452  76.6621208  30.3495622
  38.1653643  76.8267584  30.3666449  39.4849944  77.4649668  29.9894834
  76.3655281  54.9896479  65.5632353  76.6387749  55.2698421  64.6897030
  75.4242134  55.1617479  65.5864334  55.6780195  34.2900515   8.8248110
  56.2088537  33.5293531   8.5886359  54.8773098  34.1926885   8.3094281
  49.8059273  63.3579159  36.2169409  49.9229288  64.2530584  35.8987212
  48.9453554  63.0975389  35.8885431  62.1338749  23.9425492  38.1858063
  62.3489857  24.3633461  37.3534060  61.6048002  24.5899796  38.6517930
  67.1299505  45.5271387  30.8541822  67.1378469  46.0494041  31.6563082
  67.3800993  44.6479797  31.1383271   0.9904546  55.4824543  11.5105939
   1.3541941  55.5646706  10.6290233   0.3491383  54.7753668  11.4400983
  17.5309885  15.3349864  31.0085034  16.8365693  15.8855665  31.3702703
  18.2909966  15.9141636  30.9521675   6.2548810  58.8718081  49.3314219
   5.3948146  58.6985016  49.7141504   6.8563128  58.8539743  50.0758648
  67.4106884  39.4651866  36.9344759  67.6899672  40.1988554  36.3867831
  68.2271957  39.0699553  37.2399879  40.1834393  58.0732346  32.7180171
  39.5813823  58.7765217  32.4748135  40.7107592  57.9270840  31.9326472
  66.0871029  11.5093625  17.1131516  66.3507318  12.0564651  16.3732803
  66.8104219  11.5836227  17.7356637  58.3098269  48.3950233  47.9989576
  59.1760445  48.6785316  48.2914114  58.0304003  47.7599192  48.6583424
  81.2783432  67.6813984  13.8733828  81.5677261  66.9247627  13.3634925
  81.2497520  68.3995199  13.2411492  69.3056107  67.5214767  63.0641460
  68.3951473  67.8083229  62.9934120  69.7501040  67.9531574  62.3345470
  69.1797256  35.7235432  46.2723684  69.9705315  35.4630995  45.8001089
  69.1587353  36.6775084  46.1965752  17.6088870  47.0815468  16.9983649
  17.2361708  46.2080574  17.1180606  18.4913540  47.0175123  17.3635805
  16.8559134  45.9123564  50.0079441  16.5278018  45.0212002  50.1280022
  16.3657188  46.4355421  50.6421518  35.2152276  50.7388306  22.5959635
  35.2842236  50.6513691  21.6452694  36.0037661  50.3139114  22.9334331
  62.3718500  47.5723934  54.7833538  61.6456032  48.0192995  55.2181816
  63.0572462  47.5247335  55.4498339  72.2463131  57.1397448  39.8777938
  72.8404379  57.2226572  40.6236982  72.5078583  56.3228607  39.4529128
  64.9801826  46.7011118  33.0566120  64.0498972  46.8212795  32.8659368
  65.3710508  47.5593948  32.8928924  78.8725853  64.3796110  36.8466854
  78.6577415  64.9410152  37.5916028  79.1206503  64.9888420  36.1513209
  63.3004570  33.8723874  16.5923762  63.8594675  34.5774889  16.9188321
  63.6820269  33.6361814  15.7468927  70.9600735  50.0534391   4.9419188
  71.4141321  50.7614374   5.3988719  70.8205175  50.3903341   4.0568995
  68.0945969  42.7426720   1.3308020  67.6391172  42.1139479   0.7709156
  69.0123653  42.6775312   1.0668007   4.0685588   0.4793826  57.6324511
   3.6380297   1.3212037  57.7814913   3.7892380  -0.0660032  58.3678198
  43.5278177  19.6089745  66.0811090  43.7403440  19.1559887  65.2651024
  43.6726141  18.9536142  66.7635822  61.9287395  69.9967575  18.8875282
  62.5970030  70.6800175  18.8345003  62.0571804  69.4741583  18.0959332
  54.9173164  52.6799583  47.8545237  54.9123621  53.3990765  47.2228003
  55.6995869  52.1738338  47.6351547   4.3143767  30.4256511  55.9498167
   3.3709374  30.4923153  56.0971594   4.5230055  31.1742663  55.3909969
  82.1800518  69.8930073  37.2003675  83.0940056  69.9848413  37.4695802
  81.8755436  70.7919073  37.0759249  52.2491837  65.6051397  29.3633294
  52.8532791  66.3210773  29.5601487  52.3829556  65.4280186  28.4322190
  77.0230150  44.0973520  50.1598310  77.2137070  44.4821501  51.0152864
  76.6296768  44.8114777  49.6582890  62.7245855  64.3390226  27.8719401
  63.3846903  63.6632729  27.7174830  61.9147205  63.9669847  27.5227427
  32.8926039  22.7109051  68.8360786  32.5489450  22.5536776  67.9566431
  33.8156867  22.9232907  68.6980820  75.9590483  32.4311614  46.0274315
  76.2136126  31.6238117  46.4742136  75.2621317  32.7968669  46.5722275
  12.6253569  47.2637367  32.3019958  12.5461471  46.8872166  33.1784606
  11.7359900  47.5374460  32.0776296  79.9916124  64.9173594   0.3774551
  79.6210718  64.0812111   0.6599258  80.0587463  65.4332352   1.1809450
   3.0578116  59.1796064  46.7600155   2.9785269  58.3746958  47.2719431
   2.2980186  59.1690588  46.1779213  73.8159752  10.3125393  15.0710583
  74.5989132  10.1697028  14.5392287  73.9265108  11.1937082  15.4282057
  81.1673641  46.3124514  41.5764427  80.7630157  45.4496670  41.6677809
  80.9066677  46.6080046  40.7041359  54.7518015  64.8980236  48.8841724
  54.0037012  65.1396894  49.4302273  55.1190901  64.1235685  49.3102551
  64.1323185  27.5274611  28.5937357  64.9629593  27.4475241  28.1248260
  64.1557360  26.8252921  29.2438436  10.0956559  70.3225231  39.0000629
  11.0144567  70.0541735  38.9949846  10.0476110  71.0246325  38.3512402
  71.2117338  56.1247110  56.8054533  71.6304827  56.0466957  55.9482527
  71.9374895  56.1048365  57.4292517  79.5396566  46.1655283  11.1573505
  80.3963470  45.7468462  11.0735846  79.6976328  46.9238472  11.7196894
  64.5242214  56.5203190  19.4757545  63.9487839  57.2848177  19.4503510
  64.2043543  55.9562778  18.7716424  11.1552966  44.9521923  52.4929714
  11.2388527  45.8767700  52.2597170  12.0440960  44.6821833  52.7239799
  43.2966328  53.7419558  43.4960985  42.5241232  53.2535458  43.7805510
  43.8450575  53.0898809  43.0599117  46.5120220  68.6356688  49.7008991
  46.0183525  69.3308401  49.2658615  45.8801556  68.2276726  50.2929449
  53.9846659  51.4438152  58.2679319  54.3009949  50.6053448  57.9315758
  54.0028715  51.3423538  59.2195654  68.1419802  44.4345140  44.7322273
  68.6384916  43.6296844  44.5840549  67.2271252  44.1531420  44.7422075
  26.1019254  34.6277213  23.8409138  26.8605399  34.4402981  23.2880950
  25.8369470  33.7733722  24.1816568  38.7610674  44.1794252  35.5239582
  39.4821739  43.5530710  35.5865264  38.8772178  44.5937586  34.6689343
  67.7012300  37.1227813  56.7468548  66.7498970  37.0750284  56.6524267
  67.9334307  37.9840946  56.3997936  59.4667482  58.9427185  10.6204748
  58.9294767  58.3041954  11.0893643  58.8589525  59.3699837  10.0169325
  63.1075573  52.1664333  44.0254068  62.5127983  51.8613005  44.7105217
  62.5890970  52.1241951  43.2218838  20.7964945  50.2193117  13.7119114
  21.3529873  50.1401377  12.9371345  20.4071546  51.0907173  13.6391199
  47.0040607  56.0531807  38.1471467  47.6041222  56.3434505  37.4601960
  47.2489214  56.5714264  38.9137602  40.8446550  19.9054170  62.3523808
  40.1829290  19.6528292  62.9962349  41.6292048  20.0814962  62.8717136
  12.8966904  28.9370227  42.6152515  13.4164560  28.6531830  43.3672571
  11.9894719  28.8757539  42.9143047  70.6677771  27.5424910  37.4159408
  70.9306812  28.1755614  36.7478585  69.7550392  27.3413634  37.2093368
   3.6542118  65.1506901  53.2358742   3.7107396  65.6106329  52.3983240
   4.3362367  65.5507660  53.7753344   7.7253056  69.2739153  46.3381100
   6.9017714  69.4411182  46.7964411   8.1698132  68.6184597  46.8757200
   1.4763959  23.9971042  20.5694485   1.1810251  24.4781113  19.7963881
   1.1340559  24.4990277  21.3091159  43.3702612  58.3948994  33.0236650
  42.8208923  58.9770269  32.4987316  43.3241415  58.7558842  33.9089870
   3.7250268  64.5147705  27.7529740   2.8018209  64.4523764  27.5079656
   4.0576026  65.2559853  27.2467923  52.0277357  49.4570160  50.1503801
  52.5646305  50.1276112  50.5726004  51.7578220  49.8529577  49.3217611
  33.1385779   9.6439004  65.0672245  33.2846713   9.2958069  64.1876125
  33.3691001  10.5704546  64.9994802  78.2595348  60.9902811  29.6979570
  78.0093002  61.7902422  29.2357087  78.5333538  61.2902021  30.5647349
  72.1494198  62.2917652  34.2437315  72.7975416  61.6980314  34.6227407
  72.5822973  62.6582146  33.4726572  73.7899256  66.3719940  45.7848072
  73.4537268  66.6659975  46.6314268  73.2153797  66.7872763  45.1416397
  29.3676209   1.5109493  43.6661720  29.3096185   2.4499413  43.8426971
  28.4612489   1.2372745  43.5253763  13.5527301   7.4444765  39.5543385
  14.3001938   8.0395222  39.6130776  12.9506469   7.8753853  38.9476705
   6.4289427  29.5922470  35.9264493   6.4771944  29.0520787  35.1377010
   5.9110737  30.3533435  35.6642008  26.1665702  59.2816162   0.9161738
  25.5779123  59.9930668   1.1682793  26.0191011  59.1701603  -0.0230080
  60.4246140  60.3076267  38.5270381  59.5831251  59.9118757  38.7539816
  60.5065203  60.1714802  37.5831175  14.5955300   1.9451083  39.0563416
  14.8446107   2.8151855  39.3680406  14.6083128   2.0197897  38.1021452
  77.4703884  51.4894533   1.2431243  77.5266504  50.7524347   1.8512958
  77.8909683  52.2143030   1.7056608  68.7865400  79.5491552  55.8905315
  69.3229294  78.9278555  56.3829756  68.0073261  79.0505552  55.6446552
  40.8803272  26.3657355  12.9829049  41.6348457  26.6668510  12.4766827
  40.1806259  26.2711143  12.3366094  50.8610821  39.7144651  58.8418674
  51.5527058  39.8621893  59.4868994  50.7384634  38.7651730  58.8353205
   8.9681399  37.2513056  42.8134012   9.7637212  37.0487571  42.3212099
   9.1944009  37.0600986  43.7236118  49.6480513  18.8568127  15.6966162
  48.9030123  18.8375533  16.2972665  49.3481112  18.3725417  14.9273634
  71.3589478  24.5029449  12.9404366  71.4990997  23.6901236  13.4261417
  70.6167650  24.3139267  12.3662639   1.0231037  11.4548981  51.7724323
   1.2268804  11.2219417  50.8666515   1.8640202  11.7165649  52.1474266
  56.0471535  64.6369505  54.5897722  55.4024744  65.2477264  54.9469519
  56.5646887  65.1639128  53.9809227  50.6963110  65.1030922  47.4417305
  50.7234573  64.1874743  47.7194691  51.4253283  65.1887417  46.8273783
  73.8475800  60.4132128  62.4197388  74.1167450  60.0560379  61.5734529
  74.1983271  61.3038111  62.4263191  58.0158138  24.2474890   7.3690653
  57.8894854  24.7762322   8.1569123  57.5356007  24.7162223   6.6864872
  48.3864546  31.0008883  67.5035667  47.7895117  30.9152460  66.7602253
  49.2588902  30.8993006  67.1230793   2.5175586  73.2762575  68.3418560
   2.9298532  74.1294575  68.2066154   1.5812543  73.4682465  68.3938694
  26.2248230  28.0241394   4.6114588  27.1425033  27.8209639   4.4303131
  25.8394718  27.1855593   4.8654658  56.2519646  17.3397720   9.7921556
  56.8524933  16.7117286   9.3907124  56.4912987  17.3412573  10.7189500
  16.5525007   5.2627206  68.5963154  16.2478447   4.4075245  68.2929039
  16.6812027   5.7694227  67.7944899  22.5398183  66.6750956  23.0037069
  22.8408599  65.7810545  22.8415632  22.2830486  66.6778326  23.9258218
  29.3744230  61.2230682  30.6546092  29.5514202  62.1003389  30.3150582
  30.0829363  60.6831741  30.3042459   1.3257621   7.6782316  35.5753160
   1.0942357   6.8162495  35.9211707   1.2985463   8.2571650  36.3371086
   5.6742513  69.7404003  48.2395077   5.7528728  69.9234962  49.1757345
   5.2570510  68.8799047  48.1979513  52.9334068  76.2555742  47.8136158
  53.7783051  75.8174133  47.9155302  52.8142214  76.7391205  48.6310530
  24.2044044  10.6789815  36.5998459  23.8215637  10.6552029  37.4768305
  25.0523043  10.2455127  36.6968203  77.7919197  53.6140871  46.0630989
  78.6621189  53.2386351  46.1973572  77.5217056  53.2910538  45.2035284
  81.8615150   7.9992324  54.7829676  81.6569710   8.8812256  55.0935841
  82.1230698   7.5225258  55.5707359  30.9506822   0.7635729  41.3865900
  30.3115630   1.2958878  40.9128809  30.7825518   0.9525608  42.3097610
  66.8788385  73.2646942  45.7340622  66.9863081  72.3212004  45.6136417
  67.7353716  73.5666656  46.0363865  11.3823855  28.3897090  36.4947486
  11.5584588  27.6369286  37.0591545  10.5816472  28.7743068  36.8513107
  74.6308279  53.4125662  31.8682885  74.7726297  53.0961275  32.7604723
  74.7216511  52.6329660  31.3203788  72.9556894  20.4430032  26.5908241
  72.4300432  19.6758401  26.3641405  73.8441324  20.1023293  26.6949677
  71.4127207  59.1196203  27.4088383  72.2196865  59.2228413  26.9044733
  71.6351891  59.4365978  28.2842040  63.9849806   8.4003723  59.2982197
  63.7787151   8.8241518  58.4650946  63.5892725   8.9676464  59.9599218
  65.9337425  63.7726164  34.5943236  65.7148790  64.4916344  35.1870680
  66.0187292  64.1873550  33.7358356   6.8952781  40.7887268  61.3538647
   6.8906945  40.0099850  60.7972956   5.9872705  41.0916042  61.3494825
   9.9263215   2.7140367   7.9248041   9.4457811   3.4768546   8.2463956
  10.3337657   2.3406745   8.7063545  70.2268696  48.3541870  59.6093893
  71.0322571  48.8482857  59.7625208  69.8778963  48.1876469  60.4850101
  69.1114044  10.8932626  48.2314348  69.7317076  11.0206294  47.5136328
  68.2611942  11.1239004  47.8570271  11.1728776  14.2618155  40.4983950
  11.5374696  15.0669062  40.8660030  11.9148147  13.6581993  40.4608583
  36.1439300  72.3658609  27.8137660  35.7048082  72.6429129  27.0096231
  36.2918115  71.4276600  27.6948714   6.9255912  48.8897562  56.6799116
   6.6953790  47.9617357  56.6350555   6.1517256  49.3106699  57.0543385
  64.1020727  53.4259224  56.0127020  64.5868111  53.6089563  55.2078629
  63.6722708  54.2539167  56.2269926  71.2458754  74.5251894  31.8022537
  70.5052328  75.0935841  32.0134497  71.3831377  74.6496344  30.8631563
  11.1867487  22.8291440  32.2500324  11.2514114  21.8902707  32.0751953
  11.9647050  23.2038307  31.8369651  22.3894644  70.3407049  59.0537167
  21.8755770  69.5698452  58.8130379  22.7284908  70.6717682  58.2220411
   1.6752473  36.2494326  64.8961449   1.9097249  37.0911503  64.5053005
   0.9944182  35.8997893  64.3212938  44.0325117  72.5936842  66.7395735
  44.2003679  72.8423548  65.8306074  44.8963356  72.3818588  67.0933676
   3.7854511  53.4970903  30.9258270   4.6767524  53.1687498  30.8074832
   3.8840404  54.2554712  31.5014720  51.9996929  51.5877247  40.6737280
  51.8006706  50.6594419  40.7958698  51.8531466  51.7433453  39.7407007
   6.4822817  23.5600352  67.1684504   6.6601348  24.1968107  66.4762640
   7.1550471  22.8886747  67.0549059  66.2364197  65.5695820  27.2508049
  65.4431391  65.8543968  27.7044773  66.7705202  65.1641655  27.9338932
   7.3317653   9.0942866  20.9883833   8.1006306   8.7991691  21.4762187
   7.2185922   8.4386849  20.3001904  53.8681221   8.3192778  14.3271518
  53.2684183   7.7873969  13.8040018  53.6002588   8.1618345  15.2325189
  74.3326616  60.4963732  34.8746657  74.7443104  59.6520424  35.0587368
  74.8677063  60.8769131  34.1781402   5.0962597  75.8646870  54.4336987
   5.2500486  76.8093109  54.4501448   4.3876895  75.7264042  55.0622177
  23.0551815   1.0325682  41.5065289  23.0003500   1.9720413  41.6814995
  23.8733053   0.7590262  41.9213486   9.6084797  59.9615097  37.6586747
  10.1664281  60.6263161  38.0623531   9.6860391  59.2014313  38.2352996
  38.7248325  17.4923646  15.1320696  37.9110050  17.4798095  15.6358159
  38.9319539  16.5689266  14.9885571  70.4114962  50.7365417   8.5798311
  70.9735775  50.6568098   7.8091550  70.7426596  50.0750494   9.1872758
   1.8606164   6.1229354  16.9166052   2.1500118   5.2866280  16.5518153
   1.3192163   5.8818549  17.6682687  31.4654613  76.9029093  55.6192589
  32.2405005  76.5953922  56.0893440  30.7348704  76.4486742  56.0389471
  27.4046731  65.4259443  47.7765179  27.1417904  65.2829075  48.6857271
  26.8839741  66.1770344  47.4919748  71.6842890  74.4067097  40.5005074
  72.2758532  75.0030994  40.9594202  71.0751867  74.9823332  40.0380373
  75.5329418  25.7624435  21.0721207  75.7050943  26.3486052  20.3352284
  74.8257208  25.1945305  20.7662702  77.7602148  68.4650326  47.1543360
  77.3671103  67.6961327  46.7414284  78.2990122  68.1084728  47.8605890
  63.9393568  44.2866278  36.3202763  63.0557203  43.9574623  36.4847851
  63.9140511  45.1975155  36.6133213  18.2482684  21.2876177  39.2620802
  18.3513355  21.1827564  38.3162403  18.2715523  20.3946424  39.6060061
  58.8428688  11.6175985  26.4517188  57.9532290  11.9089711  26.2520194
  58.7737322  10.6652117  26.5181422  83.5934734  61.0816860  46.5346146
  82.6705265  61.0122061  46.7786646  83.7334061  62.0176268  46.3908625
  71.0063219  60.8345890  30.2389002  70.6567907  61.2971258  31.0005546
  70.7978821  61.4026833  29.4972467  71.7499971  43.5699892  52.7821207
  72.6415634  43.3647108  53.0635500  71.1898565  43.1391001  53.4277248
  32.1533751  61.1689138  41.4859915  31.2368989  61.0730362  41.7450428
  32.3980570  62.0429134  41.7901039  27.7995396   3.4275898  50.8341885
  28.4012842   3.7937132  51.4823294  27.1465230   4.1142395  50.6988621
   0.7918166  63.2963800  36.7422247   0.3670796  64.1303444  36.5413952
   1.3129701  63.4753799  37.5249052  81.7395401   4.9544671  16.7585075
  81.6943169   5.6241560  17.4409318  81.9917583   5.4335427  15.9691358
  80.0030041   3.4424296  35.4957581  80.0332451   4.2868689  35.0460482
  80.6961536   2.9266760  35.0837135   0.4071376  70.3458691  33.8146353
   0.6854258  71.2604809  33.7669587  -0.0237696  70.1825809  32.9756546
   0.2530541  74.9767399  67.9668903  -0.6660096  75.2141094  68.0902100
   0.6223221  75.7022333  67.4633741  40.7598305   1.4920434  37.0581365
  40.4028893   1.2220013  36.2120247  41.6950035   1.6151719  36.8952823
  59.8125648  71.8145847  61.3930130  60.1118135  72.1708727  62.2295189
  60.6177473  71.5919161  60.9257460   8.8004506  26.3844967  37.0412803
   8.1288910  27.0114946  37.3098207   8.5698694  26.1577368  36.1403680
   9.5323515  66.6856050  52.8250742   9.0577000  67.4942255  52.6325417
  10.1194036  66.5688229  52.0781040  76.3722992  79.1151905  44.7011185
  75.9682369  78.3784056  44.2427397  76.8292856  78.7153816  45.4410839
  29.1501307   1.6382265  54.8487139  29.2696428   0.8293406  54.3510628
  28.2346249   1.6150692  55.1271772   8.1749469  34.5380831  39.1339946
   8.6724490  34.9796462  38.4457016   7.6810831  33.8589978  38.6744571
   9.6721369  18.5239887  38.5391808   8.9576620  17.9135799  38.7212706
   9.2406964  19.3709993  38.4266448  76.9513369  62.7972364  52.0792103
  76.7056894  61.9044447  51.8367004  76.1259937  63.2136869  52.3274326
  76.9571161  16.9800091  26.0075831  77.0063400  16.5249586  25.1669073
  77.3094463  17.8519011  25.8289766  78.7675285  53.8774443  31.3890195
  78.7739992  54.3361330  30.5489063  78.2029819  54.4106388  31.9486809
   3.8221404   2.3663752  32.7398729   4.3835595   3.1011996  32.4927425
   4.0557235   2.1818773  33.6496139  52.9942369  56.7315197  62.9429150
  53.5545921  56.2996244  62.2981691  53.6036205  57.1933603  63.5187483
  24.6079063  27.7743721  34.4738221  24.9605131  28.4172797  33.8585401
  25.2510405  27.7428555  35.1820707   0.7185248  23.3171082  13.8561130
   1.3196619  23.8552046  14.3712032   0.0173298  23.0898380  14.4667733
  79.7667503  73.1981993  39.3482971  80.7126045  73.0520296  39.3330574
  79.6396017  73.9972305  38.8368154   6.5780681   4.3492222  35.7504749
   6.9056314   5.1578152  35.3566337   7.3143423   3.7401310  35.6944394
  71.4428139  39.4587374  40.5982828  70.8880424  38.9387321  41.1797094
  72.2835684  39.0011835  40.5969620  70.5275154  44.3178129  59.1171598
  69.6276045  44.4567585  58.8220453  70.9827900  43.9791584  58.3462715
   8.9511609   8.7267208  67.3785162   9.9005932   8.6791468  67.4905300
   8.6409742   7.8454167  67.5866508   7.9489845  56.5467167  19.7492170
   7.3058283  56.9085836  20.3588367   8.4288299  57.3095322  19.4265842
  67.8544664  44.1261816  28.3102131  67.9034519  43.5884857  29.1006041
  66.9361544  44.3910027  28.2572222  69.7539425  65.9273624  45.4566717
  70.1184082  65.3171539  44.8155451  69.0877485  66.4145565  44.9718428
  41.2748814   6.5934402  50.7179070  40.8553553   6.0842615  51.4114237
  41.0650969   7.5033247  50.9284592   7.5532186  20.6700110  29.3736196
   8.4412754  20.8893180  29.0916800   7.2071952  20.1211143  28.6699080
  52.7963352  31.1084914   1.3522854  51.9151497  30.7760119   1.5231884
  52.8479576  31.9204378   1.8565749   3.6729062   0.4718221  38.0630612
   4.2835304   1.2069943  38.0092859   2.8795779   0.8468725  38.4454226
  47.8459692  18.8043010  12.9469490  47.2657919  18.1355786  13.3108711
  47.2732496  19.5526576  12.7790666  71.7043924  27.0830202  12.1724451
  72.2704840  27.0575118  11.4010036  71.5663385  26.1632562  12.3987377
  48.0362463  30.6650805  64.7618675  48.7458563  30.6787610  64.1196108
  47.7744627  29.7456336  64.8100090  40.9272671   2.0613341  51.2633038
  40.4148912   2.2956061  50.4894686  41.8315601   2.0293280  50.9511185
  77.9005575  48.3951998  62.8258657  78.3916759  48.8993454  62.1771193
  78.5646534  48.0870199  63.4424973  81.7389774  72.3801231  58.1119585
  81.5389824  72.1631193  59.0225363  82.4235630  71.7593241  57.8625965
  64.7989273  11.0965812  13.5617256  63.9758492  11.1783051  13.0799675
  65.3891850  10.6515145  12.9536593  11.5911019  68.5889912  46.8230057
  11.4862561  68.6460638  45.8732796  12.5370002  68.6337328  46.9626665
  46.9538450  13.6562550  50.8933973  46.7426491  14.5580578  50.6517792
  46.2171030  13.3748233  51.4358330  24.6319675  20.2802277  42.8699684
  23.7082148  20.1516795  42.6545954  25.0641298  20.3794503  42.0216608
  79.5869017  67.8494978  24.5549464  79.9776173  68.1957722  23.7526560
  79.1810560  67.0249796  24.2871904   7.5219107  69.4054985  18.9392245
   7.4105185  68.7586737  19.6359611   8.4640330  69.4157457  18.7703085
  49.4760370  31.4156461  12.0937788  49.5705032  30.7128239  12.7366996
  49.5390368  30.9750915  11.2463272   3.1292289  45.6604767   7.0224726
   3.9494848  45.4849005   6.5614039   3.2797426  45.3369570   7.9106796
  56.1378050  22.3992729  59.0148020  56.6502190  21.5941048  59.0880632
  56.0844135  22.5643802  58.0734634  78.4493685  49.0408850  45.0397396
  77.7705193  48.4567213  45.3776026  79.2633724  48.5484695  45.1453304
   6.4167637   6.1103767  56.5509272   6.6451585   5.1898950  56.4213848
   6.5075880   6.2493074  57.4936247  12.1278012  67.1384668  17.6214433
  12.5605094  67.0122576  16.7770112  12.0396268  68.0878496  17.7058637
  59.9360323   8.3388025  32.9041100  59.7042274   7.4352467  33.1187892
  59.9744606   8.7838191  33.7507010  30.4028583  74.7433567  17.4087703
  31.0353613  75.4436398  17.5693226  30.9082842  74.0606165  16.9675910
  20.7008624  21.7058969  51.1473083  21.3882875  21.0901308  50.8933210
  21.1684370  22.5154734  51.3527203  15.1564062  10.0021708  46.5324306
  16.0726130  10.2742600  46.5850019  14.8193657  10.1229656  47.4201488
  44.4381380  10.7661247   6.3532144  43.8154221  11.4760661   6.1968935
  45.0089884  10.7747376   5.5849111   7.0221895  60.5459118  66.8177271
   6.9931006  61.1764145  67.5373459   6.1918771  60.6690645  66.3576746
  49.8415136  66.7419291  38.6787724  48.9034271  66.8389368  38.8425255
  50.0923252  65.9637642  39.1765523  38.0029655   2.9175478  41.4001942
  38.2675409   3.5587847  40.7406139  37.4749184   3.4178564  42.0223618
  36.3519478  20.3333235  30.5610037  36.8262267  19.6671331  30.0635290
  36.6321492  21.1639714  30.1766276  28.4210873  74.5255089  20.4862189
  27.7393436  73.9152527  20.7673645  27.9878187  75.0904560  19.8464203
  39.4591761  28.5678411  45.1922512  39.1765189  29.4802117  45.2548122
  39.1143084  28.2673764  44.3514061  36.6147947  63.8615513   3.5025188
  35.7418156  64.1645479   3.2528517  36.4532685  63.1504440   4.1225696
   3.1042746  47.1839571  47.3489428   3.6175519  47.3670197  46.5620089
   2.9205120  46.2457275  47.3021650  19.4978809  76.6981506  51.7437553
  20.2252436  76.7398739  51.1229181  18.7455249  76.4346790  51.2138748
  17.2441483  24.5837736  35.2087021  16.5842962  24.5469308  34.5162654
  17.8776765  23.9063478  34.9721241  63.5504723  16.0094035  20.3790069
  62.7119446  16.1740756  19.9477470  63.3332443  15.4360318  21.1140490
  80.5340385   4.5620629  12.8903031  80.3579712   4.8782632  12.0041597
  80.0233650   3.7557140  12.9627585  19.2533767  62.3214960  52.1901512
  18.9491594  61.5416431  51.7259216  20.0128651  62.0218039  52.6897478
  16.7417502  19.0575969  11.4861047  17.3995876  19.6261585  11.0858309
  16.9193184  19.1100693  12.4252260   9.6522206  17.4011946  28.0830812
  10.0176573  16.5250540  27.9603386   8.7373030  17.3189485  27.8140211
  52.3569202   6.8414295  33.8999009  53.2118320   7.1131802  33.5659766
  51.7998075   7.6115453  33.7868667  80.5320549  44.2025375   6.4184499
  81.4296913  44.5330381   6.3830721  80.0344086  44.8007965   5.8610725
   3.1954873   1.6434272  18.0233955   2.7701616   1.2960756  18.8074088
   3.6243966   2.4463350  18.3193815  29.0427971  69.4541693  46.2090063
  28.5921025  70.2919912  46.1033583  28.8782072  68.9885950  45.3890181
  45.9249592  10.8545339   8.6781913  45.3202105  10.6971884   7.9531044
  45.9854269  10.0112104   9.1269445   4.3801472  42.1981144  46.8491459
   5.2841222  42.0275259  47.1136475   4.4357350  42.9759359  46.2940502
  19.4627547   8.4501678  39.0423608  20.1250458   8.8995260  38.5173106
  19.3723953   7.5911546  38.6298513  42.6489687  75.2708006  34.4659519
  42.2750664  75.4857779  35.3204775  43.1401682  74.4630241  34.6158075
  27.9590487  77.5288582  35.6269574  27.8541946  78.4502077  35.3895593
  28.2542706  77.5481844  36.5372896  12.7537787  60.5764675  15.3839397
  11.9435287  60.3443909  15.8376658  13.3727801  59.8901463  15.6329978
  20.9058666  58.8399553  30.3478789  19.9489439  58.8621092  30.3417802
  21.1641431  59.7215176  30.6169152  48.4115982   1.7339799  27.6766777
  48.1260300   2.3155199  26.9720554  49.2537260   2.0926112  27.9567361
  23.9463949  12.6222396  17.8085876  23.1621218  13.1069183  18.0659425
  24.1062689  12.0214558  18.5364139  48.2875490   9.5078439  68.0104303
  48.9532232   9.2202091  67.3856306  48.7691498  10.0353646  68.6476231
  71.3174248  26.8507051  24.1739106  71.8503475  27.2400141  24.8672080
  71.1184835  27.5799417  23.5866570  78.5822058  26.0112643  67.0737600
  78.0939960  26.7139888  66.6447353  78.0288029  25.7498717  67.8097296
  13.8642645  63.0798531  68.0834198  13.4959960  63.9415932  68.2783937
  13.1438434  62.4699688  68.2423687  15.1020384  21.3143373  32.3042178
  15.2641332  21.4301801  33.2404518  14.3227720  20.7600236  32.2628450
  41.5099239  11.6703069  33.5891223  41.7595243  12.5935268  33.6290884
  42.0356894  11.3107657  32.8746080  29.8254347  10.7892764  33.6702752
  30.7339787  10.5231357  33.8115191  29.3560982  10.4538822  34.4341254
  56.0334826  18.0203319   6.6819704  55.2063894  17.5840902   6.4774007
  56.6861916  17.5527287   6.1608690  70.2191210   4.3018335  41.9037962
  70.7354069   3.5034475  42.0145130  69.3663979   3.9948517  41.5958071
  60.2191591  20.3981662  54.1061354  60.7662868  19.9433661  53.4657907
  59.4196653  20.6154490  53.6267281  19.8452497  19.3317366  44.1209936
  19.9842370  18.4176767  44.3688011  19.2859268  19.6850502  44.8127699
  27.7277255   6.2185866  33.0743289  28.1023169   5.6640774  33.7587523
  26.8691230   6.4710873  33.4138513  63.5307455  10.4911959  47.6983833
  64.2663002   9.8835099  47.7752972  63.3723688  10.7900918  48.5938215
  15.6687284  60.5040979  41.1239338  15.3644550  59.7599363  41.6434240
  14.9029028  60.7700205  40.6149864  59.7084665  16.3237619  43.2008505
  59.2823172  16.1194694  44.0332508  59.5652485  17.2627664  43.0825663
  33.5252619  23.0230975  30.4946303  33.4769011  23.2814479  31.4150381
  34.3155408  23.4521770  30.1666307  29.8512888   3.7324646  17.9845381
  30.3440666   2.9129103  18.0261648  29.6338081   3.9277318  18.8960218
  30.0227785  45.5835915   5.3409773  29.9226522  45.1280117   4.5051244
  29.3697715  45.1805735   5.9131539   6.8007499  62.3951387   2.5897679
   6.7881185  61.4380217   2.5904164   7.2014660  62.6288176   1.7524785
  40.2950764  25.6467175  18.5678482  40.3183126  25.6975341  19.5234168
  40.0000763  24.7551703  18.3825135  54.1402626  61.4609003  68.1162786
  53.4665585  61.5781689  68.7860584  54.4412136  60.5599594  68.2344389
  79.5606613  35.9499741  30.6409287  80.4771996  35.6753111  30.6135893
  79.5908213  36.8980718  30.5127406   8.3264315  44.1603279   6.3402373
   8.0909991  44.6817398   7.1076554   7.5211334  43.6974955   6.1089075
  40.1001930  77.1191263  35.6129074  40.5354977  76.7423010  36.3775921
  39.1682363  76.9651079  35.7677269  70.2814436  53.0651379  45.8091497
  70.9146118  53.7068796  46.1308432  69.4524574  53.5425329  45.7757664
  30.1345205  33.9967275   6.7255801  29.8325038  33.3028722   7.3117369
  29.3307137  34.3987226   6.3961470  21.8792653   8.9777744   1.4838204
  22.0065761   8.1655586   1.9740543  22.6134205   9.5332766   1.7458600
  80.1987553  54.8609161  13.9048374  80.1854706  53.9634037  13.5723758
  79.6964741  55.3618479  13.2621789  60.9627438  56.6016626  36.1510849
  61.4222336  56.0650015  36.7969155  61.3636208  57.4672699  36.2301850
  23.6834645  64.0772009  64.9614000  23.2591653  64.8683739  64.6293736
  24.6007752  64.3265057  65.0737238  68.8548136   4.9185514  13.6772752
  68.2246256   5.5781668  13.9671135  69.6730232   5.4023015  13.5643649
  31.0627484  10.3327346  18.2037842  31.2328172   9.9510932  17.3425889
  31.8366885  10.1104784  18.7213290  55.2090073  14.4714916  25.4719353
  55.0178194  15.4041147  25.5713987  54.3609858  14.0404773  25.5782962
  66.2700033  70.0515413   8.7629461  66.7146873  69.7411299   7.9741925
  66.8972254  70.6472349   9.1727924  77.9404116  30.1786017  26.6451740
  77.1550560  30.7258081  26.6413784  77.6091814  29.2848682  26.7332673
  34.1635633  69.4632626  57.6793671  33.9871645  68.5226727  57.6995850
  34.9914026  69.5618582  58.1496763  55.9502459   7.8627455  45.2160501
  56.2858772   6.9862705  45.0279570  55.1669121   7.7108902  45.7447815
  41.2619734   1.6778259  21.1537099  41.9512606   1.3623095  21.7381430
  41.3906527   2.6257876  21.1214352  13.2948709  58.2389736  66.3988400
  12.8528130  57.4125957  66.2041140  14.0939057  57.9807138  66.8582726
  46.3778114  10.9774840  37.1085310  46.5184069  11.5647924  37.8511834
  47.2152233  10.9729230  36.6448998   8.0724955  69.0733910  55.3681707
   8.0991036  69.5515871  54.5394039   7.1694183  69.1687298  55.6708145
  32.1168637  17.2292197  54.7768402  31.6045070  17.4511945  55.5543041
  31.5014505  16.7658651  54.2086840  32.5424480   6.9490969  11.1510575
  33.3720708   7.4260825  11.1721051  31.8725967   7.6321578  11.1820352
   7.9362971  18.3431280  14.5409989   7.1518075  18.8913548  14.5569932
   8.4559554  18.6468363  15.2852750  23.4848690  40.8673525  67.9479456
  23.2275367  41.4057446  67.1995163  23.6692810  40.0067139  67.5717497
  27.2155523  17.8818274  67.7005720  26.3858414  18.1527102  67.3075914
  27.8172398  18.6013567  67.5095749  66.6441107  21.1608028   8.4109557
  67.2962236  21.8611336   8.4335977  66.7857838  20.7287526   7.5686419
  34.0069938  75.7574415   7.0277858  34.4048238  76.3243341   6.3670278
  33.2846951  76.2748957   7.3838151  82.7542973  16.4908600  65.3205347
  83.0901146  17.3741806  65.1682186  82.8889942  16.3414764  66.2563610
  78.3021832  23.7275648  18.7866640  78.5265541  24.6086931  19.0858352
  77.5546694  23.4738994  19.3280578  28.4111714   9.7444224  22.5476742
  29.3395185   9.9124885  22.3859358  28.3876634   9.3485606  23.4188652
  19.9173367  72.6616716  22.9218888  20.0092030  73.1679106  23.7290525
  20.7851720  72.6932573  22.5192761  18.2615936  76.7051744  12.8734565
  18.5015631  76.9093609  13.7773120  18.7861192  75.9349918  12.6545405
  56.0762596  15.2907109  34.6585584  55.7799578  14.5086455  35.1241875
  56.3411522  14.9701810  33.7963963  38.3359337  60.1126766   9.0593898
  38.0972290  61.0013247   9.3231207  39.1319680  60.2228451   8.5393655
  81.9212055  71.9290543  11.3038445  82.5938892  72.1806383  10.6710446
  81.6045475  72.7593422  11.6596258  53.8039970  23.2914424   4.6894193
  54.7229433  23.0896401   4.5132118  53.7186956  23.2096601   5.6392962
  48.9355993   8.2352585  37.8328919  49.7675276   7.9926437  37.4263644
  48.7587261   7.5301993  38.4556580  55.5830860  74.9076033  26.1264420
  55.9766817  74.0730810  26.3811779  56.2025118  75.2835464  25.5009747
  55.5364561  25.4234529  23.0318213  55.8784389  25.4074812  23.9257026
  54.6693993  25.0236988  23.0999184  82.8307056  74.0366983  17.8068447
  82.0729542  73.7037373  18.2876670  83.1348324  74.7816944  18.3252239
  32.7306795  16.6252685  34.0325904  32.4343443  17.4434400  33.6338234
  33.3915639  16.2893224  33.4271121  23.6961460  17.9109752  25.1033211
  24.3516588  18.5827255  25.2911663  23.8032246  17.2689390  25.8051443
  24.3806386  65.7218695  35.6558943  24.2551088  66.6683483  35.7240915
  23.8534474  65.4642153  34.8996425  62.1582937   6.7332417  46.5113926
  62.0976353   7.5881827  46.9375706  62.8396702   6.8439704  45.8482933
  42.1487904   0.1583897  28.9099216  41.5057611   0.5188147  28.2993126
  41.7472649   0.2665615  29.7720766  52.1417522  76.4570427  59.3457317
  51.3243389  76.3539934  58.8584471  52.1523619  77.3788261  59.6034908
  39.2227459  10.9065843  27.8642368  39.1935420  10.6779969  28.7932849
  38.6786628  11.6909182  27.7933478  81.0045528  77.0384264  46.6254234
  81.0665417  76.4624596  45.8634138  80.2868843  76.6739273  47.1434116
  52.7210331  16.6293478  10.3048527  53.0452299  17.5168002  10.4583383
  52.5309801  16.6026270   9.3670917  69.1507626  53.9527273  30.8944821
  68.9864779  53.0295038  30.7023764  70.0098562  53.9603567  31.3165426
  70.0351095  78.3802414  58.5394096  69.8804760  77.4549866  58.7297344
  69.3273306  78.8393354  58.9916420  46.9509459  10.3610063  48.3095360
  47.8117609  10.6110156  47.9737997  46.3944769  11.1188471  48.1299591
  67.9897261  19.2966449  20.4419827  67.3709726  18.8366604  21.0092473
  67.6137114  19.2194891  19.5651186  49.4540167  76.1969948  58.3402729
  48.5387707  76.4602995  58.2442379  49.5797825  75.5206919  57.6746655
  77.8817654  13.9582419  29.4927168  77.4223089  14.6533632  29.0216136
  78.7317324  13.8949847  29.0570736  52.2362709  78.9183521  20.2099156
  51.6305923  78.2067823  20.0024319  53.0899763  78.5991621  19.9174356
   1.1449345  39.5750999  57.9325914   1.5134007  39.9192953  57.1189642
   1.6011158  40.0548840  58.6239243  48.5387421  22.3164392  59.9138546
  48.4753370  23.0945134  60.4677629  49.3291044  22.4572849  59.3925858
  55.1404095  23.3807611  16.9274116  54.6763706  22.6943016  16.4481640
  55.6211996  22.9130054  17.6102543  19.0770102   0.7971325  10.8732092
  18.9450347   1.5792972  11.4089632  19.8890853   0.9678391  10.3961110
  80.6088257  79.0637255  13.5453570  79.8328972  78.6808968  13.1359684
  80.3502750  79.9608374  13.7564838  68.7433529  37.5453043  59.0932751
  69.4026852  36.8548369  59.1623545  68.3631516  37.4271917  58.2227993
  68.8170290  11.4291298  13.0843735  69.2426872  10.7691264  12.5371635
  69.5367289  11.9670641  13.4143579  60.8775759  16.2903655  20.2037477
  61.0615921  17.2296655  20.1944375  60.4814816  16.1323822  21.0607100
  83.4673405  37.1264935  58.8012934  84.0933609  37.8382921  58.6683512
  82.9134083  37.1458268  58.0208969   0.9750806  49.5834303   6.7561722
   0.2947760  49.2196178   7.3227894   1.1940545  48.8702059   6.1565161
  23.1037784  29.7122431  10.4168332  23.7147355  29.2098093   9.8778307
  23.0753183  30.5758166  10.0049353  48.7374401  10.3666615  39.3718147
  49.0820694  11.0713053  38.8232327  48.7476254   9.5952266  38.8052320
  31.1367631  33.2531190  37.4491000  31.7461109  33.7661672  37.9798627
  30.4868126  33.8885665  37.1490955   8.8670748  77.2778988  43.4409094
   9.6418846  77.2825193  44.0029430   9.1833544  77.5934792  42.5943804
  12.1138978  65.1987219  45.9514046  11.7040741  65.3279257  45.0960779
  12.4713707  66.0573053  46.1778593  27.8800249   4.9381498  22.8163886
  27.1402073   5.3760779  22.3955345  28.6472130   5.4311293  22.5254798
  38.1044006  14.2169142  54.2397165  38.6346602  14.8220205  54.7582722
  37.3677993  13.9953208  54.8094082   4.4669658  49.4514799  27.3592114
   4.7675142  48.8401318  26.6867876   3.5697541  49.6661615  27.1039557
  66.7202806  42.7551031   9.4415671  67.0757866  43.4290314  10.0209343
  67.4910164  42.3001671   9.1021115  11.3216710  64.3190670   0.8858071
  11.1357284  63.5141277   1.3692674  10.8184183  64.9938345   1.3414991
  45.7278585  66.6930723  52.7233887  45.7181120  66.9921827  53.6326027
  45.2705097  67.3811054  52.2399902  50.9357405  24.2309165   8.8664675
  51.5013695  24.0681887   9.6213299  50.1209784  23.7737131   9.0747052
  16.8909526  26.4084578  37.2957182  17.3557806  25.8642507  36.6601014
  15.9834146  26.4099932  36.9914103  45.2937365   4.9697325  12.1143150
  45.2229118   4.1555569  11.6159832  44.4683743   5.4250228  11.9478214
  42.0224190   6.5633452  46.1727428  42.3259640   7.3155421  46.6809702
  41.4233589   6.9369984  45.5264139  13.0272377  66.5837383  22.7070999
  13.3708215  67.4715281  22.6070309  13.2613993  66.3356829  23.6014533
  73.7446690  35.1320815  67.5115681  74.3070936  34.5143223  67.9787731
  73.6540794  34.7579265  66.6351891  66.1535311  61.0695314  44.6780396
  65.2552652  60.9866047  44.3579292  66.2915564  60.2857828  45.2099419
  70.3283215  69.1032743  60.7393122  71.1356926  69.4008112  61.1586618
  69.6558809  69.7035789  61.0613203  20.6399250  54.8095989  23.3716726
  21.3838077  55.2070332  23.8243532  20.2971697  54.1669083  23.9927173
  52.1267843   8.5877401  44.7917080  52.6448584   9.0379375  44.1245079
  52.7585506   8.3646011  45.4753160   0.6798706  21.0017419  23.6710191
   0.0126676  20.7425022  23.0355144   0.5772275  20.3812861  24.3926358
  23.1848288  51.6448116  16.6076493  23.7961793  52.1502161  17.1434247
  22.7112055  52.3031282  16.0991859  29.5976233  13.6742461  36.9896555
  29.4355297  13.7432110  36.0488057  29.4354272  14.5556521  37.3258829
  13.7583292  51.3252783  43.8965750  12.8153682  51.4683247  43.8153791
  14.0958333  51.4434052  43.0086756  62.1687651  19.7801745  19.6391308
  62.2188234  19.0854967  18.9825118  61.5570879  19.4460022  20.2951884
  27.5370145   2.6384598  40.9917355  27.8213453   3.2737577  41.6488361
  28.2659912   2.5910971  40.3732014  17.6307917  64.2156601  26.8195486
  18.0635262  63.4074211  27.0947194  17.8289056  64.2874956  25.8858347
  67.7025509  18.5821950  63.7453556  67.4420691  19.3151629  64.3031549
  68.0490446  17.9295218  64.3537903  49.9759722   9.1998780  53.3941936
  50.9314919   9.2545044  53.4093857  49.7103167   9.8347902  52.7289534
  54.0963984  26.5174174   0.2729178  55.0523949  26.5647864   0.2805446
  53.8908815  25.7413721   0.7942129  51.0988426   6.4633667  52.5563908
  50.8776283   7.3438346  52.8598261  51.1884260   5.9490049  53.3586597
  57.7594709  33.8650918  47.7573013  56.9974422  33.2987595  47.8790045
  58.2585430  33.7727880  48.5688639  72.7195263  74.8564291   8.8201344
  72.6533222  75.4397869   9.5761371  73.0261326  75.4194117   8.1093097
   8.4098959  69.0970659  11.0153568   8.2947123  68.5208464  11.7709589
   7.5390810  69.4616270  10.8572066  75.7950640  22.2043729  36.7228055
  76.3390875  22.6970077  37.3372793  75.6775999  21.3501930  37.1385121
  17.3335636  45.2361679  11.0866380  18.2605815  45.1535177  11.3103306
  16.8985784  44.5693398  11.6180122  42.9542637   0.8574050   4.2180347
  42.0327139   1.0562462   4.3836766  43.1167364   0.0504506   4.7065628
  25.0466633  72.1597481   7.5011647  25.0926661  73.1120014   7.4155474
  24.1157961  71.9752169   7.6263243  77.4066305  50.8810091  55.4915285
  78.2438135  50.6781197  55.0741625  77.6460600  51.3207102  56.3073492
  68.0106163  21.1939812  23.8249016  68.8198185  21.5333223  24.2073584
  67.3889017  21.9180655  23.8984251  65.5830240   7.4228871  26.0194945
  66.3828850   6.9116271  25.8967495  65.8849430   8.2577258  26.3774323
   6.1263514  15.5564439  24.5593667   6.0917646  14.6811521  24.9452424
   7.0545518  15.7895839  24.5772719   9.0134037  56.4217329  22.9430842
   8.1479543  56.0325384  22.8175521   9.6031260  55.6724310  23.0267906
  46.8667603   3.7687746  37.4384785  46.2373161   3.5018733  38.1084013
  47.0990515   4.6673805  37.6725268   7.6653767  38.5111666   3.9057791
   8.3871567  39.0919256   4.1465765   8.0822659  37.8000021   3.4192812
   7.1356237  67.5820494  51.0416365   7.2902614  66.7210722  50.6530046
   7.9292524  68.0797005  50.8448410  59.4378805  27.9229355  40.8175564
  59.6704578  27.3640800  40.0760603  58.5769844  27.6085281  41.0936785
   5.4072791  29.6039701  22.8300524   5.0410563  29.0310836  22.1563220
   6.1003488  30.0885034  22.3815942  54.2318964  16.7538178  64.3001413
  54.2925978  17.6710176  64.0331364  54.7590828  16.7010438  65.0973368
  76.9009781  47.7136755  48.1163836  77.6719666  48.2004309  48.4077263
  76.2965775  47.7564812  48.8573980  81.7943478   6.2108099  37.3553061
  80.9479904   6.3223892  37.7882624  81.6129017   6.3723224  36.4294457
  21.4930034  33.4704256  14.5081973  21.2628675  33.7390924  15.3976274
  21.8458223  34.2623663  14.1025078  58.1317854  17.4330711  58.5956097
  57.9800701  17.8447175  57.7448654  58.2126474  16.4997613  58.3990717
  21.2868977   4.9372751  12.2512937  20.8044267   5.5656254  12.7885354
  22.0805097   5.4046673  11.9906068  52.7170992  34.9557757   9.8193383
  53.3567619  35.3052926  10.4397440  51.8707943  35.0933504  10.2448690
  70.1355124  20.8093548   5.3404945  69.9136400  20.8692932   4.4112957
  70.2075624  21.7192841   5.6287152  25.2829218  39.1041136  21.0323310
  25.1708388  39.5723653  21.8596220  26.1381006  38.6812568  21.1104107
  59.5378923   4.8326966  66.1632299  59.3800926   5.7744133  66.2303162
  59.7527027   4.6909225  65.2412796  32.1322417  76.5856409  18.1373119
  32.9565334  77.0065784  17.8932047  32.3758245  75.9592628  18.8188899
  54.1172504   6.4739692  21.7312193  54.7934008   5.9327263  21.3236499
  54.4268131   7.3721761  21.6144824  67.5965023  62.6427698  51.8298531
  67.8321409  63.4891033  51.4498138  68.2287645  62.0284081  51.4569807
  56.0120201  40.6699944   5.9975868  56.5186262  41.3874674   6.3781333
  56.4172411  40.5170774   5.1439822  82.2969913  40.7713127   9.5814663
  82.4556637  40.9200001   8.6492926  81.3436031  40.7372379   9.6596956
  80.9891033  34.1154313   9.9656576  81.1287308  35.0609136  10.0185680
  80.1826477  34.0204072   9.4588852  40.0851965  27.2720075  47.3424864
  39.5593715  27.5390697  46.5885496  40.5453157  28.0683494  47.6077461
  49.6944427  30.2100587  33.3423138  50.0370884  30.2634859  34.2344856
  50.3373146  30.6790638  32.8103566  46.4442873  73.0265427  47.7799034
  47.2612286  73.5246706  47.8063488  45.8263350  73.6035776  47.3311281
  12.6521182   5.5377889  32.3716044  13.4166598   5.8327234  32.8662968
  12.8369117   5.7960188  31.4686108  62.5056601  23.8102245  29.5107293
  62.4313545  23.7703466  28.5572505  62.1801567  22.9619884  29.8120189
  82.5939083   8.8631874  24.9434400  82.1940041   8.7639147  24.0794683
  82.7245045   7.9663384  25.2513981  77.5703382  76.9196844   1.3053569
  76.6704512  77.2371626   1.2302475  77.5706053  76.3863659   2.1002167
  78.5877228  34.5756125  50.7764626  77.6425171  34.4377589  50.7146931
  78.8739014  34.6829295  49.8693657  52.4483204  42.3259497   8.3236992
  53.3676386  42.4584913   8.0923593  52.4740839  41.7462873   9.0849847
  69.4283438  26.4583135  45.0613880  70.1229191  25.9874129  45.5218744
  69.5599079  26.2375546  44.1393328  49.2209196  29.9962139  28.8710332
  50.1219893  30.2371240  29.0861320  49.0077305  29.2936254  29.4851589
  68.7253046  30.2782989  37.2106886  67.9969263  30.7779908  36.8419027
  68.3186197  29.4865584  37.5628066  25.4368639  36.8867207  25.4021525
  25.9365869  36.2796235  24.8563147  24.9931931  36.3265514  26.0390210
  75.9520245  27.7610016  28.8439059  76.2117767  27.5512362  27.9468226
  76.4320326  28.5628462  29.0509582  47.9885864  20.8854032  20.0508499
  48.7844515  20.5526114  19.6360242  48.2135963  20.9560442  20.9785414
  61.2621307   3.3252361  35.3980565  61.3442659   2.6770335  36.0975695
  60.8662081   4.0865153  35.8222389  69.5786619  10.4855502  17.0760894
  69.1268301  10.1586986  16.2981129  68.9269257  11.0264826  17.5220299
  56.4575529   8.3560801   7.7804595  56.6333771   9.2101508   8.1752759
  55.5070877   8.2574880   7.8363341  57.0314455  37.5966620  56.1836767
  56.0877180  37.4771476  56.2901354  57.4215651  36.8793392  56.6831589
  69.8760700  32.4005079  38.5449958  69.6008730  31.5772748  38.1415248
  69.8217583  33.0436063  37.8380990  83.9964104   5.4404408  29.3959093
  83.3275986   5.9586102  29.8435974  84.6358395   6.0850841  29.0929389
  46.8022442  38.7635136  65.7930613  47.1861315  37.8974676  65.9302664
  46.7026520  39.1236973  66.6742992  61.9853210  21.3165045  21.9612622
  61.3099766  20.6855249  22.2102761  62.1934032  21.0985827  21.0527205
  15.3659487  71.5377951  60.8944273  15.2872241  70.9199905  61.6213036
  14.4953132  71.9278049  60.8162165  16.5151048  70.0974894   2.9790455
  17.4696803  70.1318312   2.9170841  16.3366902  69.3108892   3.4944725
  54.8554277  62.2381878  39.4500995  54.4207811  62.0500422  40.2819157
  55.7186127  61.8330669  39.5338941  47.7299118  72.4467373  55.3799725
  48.0736351  71.5568256  55.3015614  48.4427118  73.0067587  55.0725269
  56.5422392   5.0969356  16.3076901  56.0572720   5.4553235  15.5643225
  57.0581484   5.8338648  16.6348064  24.7899508  76.2772655  52.1848774
  24.8177385  77.0343637  52.7699089  24.3623376  76.6023540  51.3926077
  41.0949230  31.3801098  21.2702250  40.3798437  31.9682550  21.0273623
  41.6794205  31.9204664  21.8018341  58.4696102  19.0875292  47.3648882
  59.3466330  18.7956154  47.6135778  58.6045694  19.9566782  46.9872713
  77.4018192  73.5547304   6.6551787  77.0405483  73.3759308   7.5233638
  78.3487368  73.5859919   6.7915821  64.9207067  31.4091802  15.6740725
  65.4366589  32.1690416  15.4045558  64.3361759  31.7453361  16.3534474
  51.7636156  57.7694082  18.1110358  51.5122509  57.0274544  18.6610806
  50.9897852  57.9432821  17.5751400  24.3831897  14.7205949  29.3331027
  25.1027441  14.3331742  29.8314786  23.5982299  14.2899263  29.6716237
  34.9202132  13.0265665  15.2436340  35.6777310  13.5129595  15.5689347
  34.1826630  13.6252546  15.3612125  76.8547535  77.3082447  66.8596172
  76.6332388  76.4037037  66.6383314  76.1692858  77.8312635  66.4439106
  15.9836888  58.2194710  63.6244869  16.7063046  57.6859903  63.9553308
  15.8345902  58.8717556  64.3089771  55.7859612  27.1315098  27.9699039
  56.5303898  26.5495729  28.1228900  56.1797667  27.9494429  27.6663709
  14.0181172  51.1786222  26.9554019  14.1893864  52.1164417  26.8693805
  14.8635566  50.7639980  26.7835069  44.5878172  21.8243122  16.4338672
  44.0150309  21.0796499  16.2504947  44.1004848  22.3510408  17.0673490
  21.7088723  35.5368423  36.2780786  21.3110399  35.2145910  35.4693055
  22.6463604  35.3823805  36.1619425  47.5476646  38.1110740  54.6028185
  47.5666618  37.1548510  54.5639467  46.7413950  38.3533287  54.1473246
   7.3296118   0.5248524  30.2025700   6.9961083   0.6414694  31.0921812
   8.1695658   0.9838729  30.1995754  42.1040630  61.5726709  21.3105202
  42.5025415  62.0993233  20.6176400  42.6453400  61.7422104  22.0815611
  62.9850578  25.8011723  11.5549755  63.2652426  26.1104226  10.6935263
  62.0933056  26.1354923  11.6510892  11.7670202  67.9850340   6.4655799
  10.8549249  68.2519770   6.3513100  11.8761086  67.2438717   5.8697551
  69.6976662  15.1305783  29.2367887  69.5263052  14.6717942  30.0592160
  69.9226952  14.4362044  28.6175632  81.7069244   4.1680023  54.8286772
  81.4527035   4.8619121  55.4370260  82.2579193   4.6073684  54.1809177
  62.4831247  53.9496613   1.4451858  61.6292906  53.6204290   1.7259103
  62.2799397  54.5982552   0.7711839  70.3413153  17.7535725  34.9646425
  70.3189182  17.0027924  35.5579901  69.4372225  18.0670631  34.9408007
   3.3426607  14.9309814  36.6289854   2.4379489  14.8768640  36.9368815
   3.3019230  15.5075777  35.8660269  61.1107731  18.5441649  40.6933403
  60.8446312  17.6646733  40.9614706  60.7459736  18.6472714  39.8144078
  50.0517559  11.0359919  43.4586716  49.9924994  10.5372345  42.6438332
  50.9650993  10.9439957  43.7299204   6.7759037  28.0970407  24.5262551
   6.2910962  27.2855639  24.6769118   6.3206285  28.5159636  23.7958717
  15.7721376  62.4233627   2.2478582  16.3647342  62.8781271   2.8464001
  16.2322497  61.6144323   2.0238946  65.1470041  29.7841096   6.4790410
  66.0668993  29.7641015   6.2151742  64.7466040  30.4350352   5.9026653
  11.2757850  30.6658125  66.9716644  11.7246687  29.8640633  66.7034626
  11.9818497  31.2839746  67.1602964  67.8541088  27.3519444  10.6196296
  68.5661173  26.8939304  10.1729691  67.0658684  26.8686485  10.3719771
  40.8772182  35.4059863  24.2505002  40.2004433  34.7520161  24.0757871
  41.0661650  35.7897830  23.3942103  46.2558508  71.1720657  22.7841830
  46.0339260  72.0265484  23.1541085  45.6743336  70.5584049  23.2330561
  73.0261469  31.8371964  40.8495140  73.6890936  31.5855336  41.4924812
  73.5264778  32.0620108  40.0650692  72.6217079   9.9558622  21.2135482
  73.4179544  10.3272867  20.8337164  72.8470516   9.0440005  21.3978362
   5.1660496  74.2996979  15.9179533   4.4708961  73.8352251  15.4518437
   5.4494208  73.6876106  16.5971315  46.5193129  20.0288272   8.4207451
  45.7616711  19.6585608   8.8736451  47.2383738  19.9421680   9.0465820
  24.4556284   3.0354545  53.7305069  24.5284820   2.7569562  52.8176165
  23.8525605   3.7784079  53.7068605  57.1240520  52.8957939  10.3708339
  56.8876886  52.3721457  11.1364400  57.5659847  53.6637259  10.7330620
  72.4035120  41.0042048   4.8825794  72.7029848  41.8092299   4.4601104
  72.6516008  40.3079510   4.2743737  26.8623471  78.7814283  39.8230696
  27.7370119  78.9138651  40.1886559  26.8819690  79.2397976  38.9829826
  45.1977873  61.9387150  43.4046412  46.0902071  61.5925598  43.4031868
  44.7663927  61.4918995  42.6762962  72.9344225  67.5897789  67.6200199
  72.8427744  66.8040609  67.0810556  73.8358688  67.8766298  67.4739313
  56.2405062  34.2875075   3.1551960  56.1834669  33.9306879   4.0415698
  55.9832287  35.2046776   3.2492071   7.9810184  39.1385126  29.2734241
   8.7586486  38.9857936  28.7365794   8.3239555  39.4733882  30.1019669
  56.4866400  16.1825943  19.0114355  57.3989058  15.9758997  18.8082683
  56.0182095  16.0312057  18.1905293  81.1395359   8.4979874  28.3640170
  80.9077644   8.5858595  29.2885661  80.6473351   7.7332860  28.0653405
  12.6241863  22.6697493  51.2708616  12.9768467  23.4517598  51.6955042
  12.0119965  22.3054814  51.9102097  56.2940502   4.5343715  31.9054627
  55.9218931   5.2977353  31.4638662  55.7468987   3.8024712  31.6205382
  59.2701483  33.3559275  64.2526579  58.8028860  33.8860106  63.6069727
  60.0560904  33.0581903  63.7945366  35.2761221  72.3894072  18.2634449
  35.3862596  72.5559378  17.3272991  35.5255365  71.4719677  18.3744848
  71.3835716  36.0422421  21.8796706  70.9934425  35.9306073  22.7466011
  71.4473486  36.9905305  21.7660308  49.6144772  28.4461570  31.2137079
  50.5526972  28.3355641  31.3678002  49.3009615  28.9268422  31.9797897
  69.8281193  16.0000074  13.9037979  69.2772341  16.2055194  13.1484687
  70.1581478  16.8491030  14.1976464  67.1056318  26.4373589  24.6008110
  66.4548063  26.4393806  25.3027034  67.7113533  25.7351184  24.8378539
  71.6425657  39.3796992   9.5979166  72.1782351  39.7268701   8.8846403
  72.2650623  38.9255071  10.1657593  68.2367802  34.2904377  42.7176952
  69.0762949  34.2793536  42.2579956  67.6044559  33.9810514  42.0691013
  74.9067354  11.8849456  36.7533088  74.8334789  11.1889088  36.1003160
  74.8250055  11.4343584  37.5938582   1.7311090   0.1557262  22.7906609
   2.4604788   0.0034544  23.3915472   1.1706813   0.7824674  23.2482052
  75.6241655  22.7069211  30.2157950  75.8353519  22.1694136  29.4524360
  75.0878620  23.4187126  29.8665571  64.1803408  38.3279085  43.4165573
  63.6785126  39.1416574  43.4635735  65.0533772  38.5665607  43.7281561
  48.7698364  35.4697490  51.0397768  49.5755911  35.6666970  51.5174913
  48.5149860  34.6001816  51.3482189  59.4725704  26.8083429  59.7170019
  59.2113304  26.0765243  59.1580486  59.1081524  27.5812078  59.2855978
  82.5617218  10.2023673   9.5350873  83.5005665  10.0339019   9.4550204
  82.2546482   9.5518363  10.1665533  20.3286529  16.5799570  28.3883715
  21.2266326  16.9107151  28.3667731  19.9233389  17.0353949  29.1262913
  33.7446070  15.5757308   5.1242024  33.8414621  14.6505415   5.3497577
  32.8189993  15.7643306   5.2788359   8.0736738  42.1840954  52.1282482
   8.5027790  42.4116755  51.3034391   7.3235792  42.7765226  52.1794319
   7.3947716  13.9021850  55.5069256   8.0022132  14.3387353  56.1041451
   7.7756417  13.0348134  55.3696775  11.9275212  30.2278066  45.0179911
  12.1389163  29.4128227  45.4733372  11.4182532  29.9513459  44.2561197
  22.4162817  41.2848186   0.6124942  21.7019415  41.8966150   0.7904123
  22.7641511  41.5626812  -0.2348612  61.9635105  72.6200438  10.1724017
  61.8134642  73.5611343  10.0825834  62.3143101  72.3513269   9.3233061
  60.6648064  30.1187062  33.0572271  60.3645563  30.9539604  32.6988530
  61.1479330  29.7098017  32.3391604  59.5850420   6.4933032  40.1641607
  59.7750568   6.7907989  41.0538912  59.1488791   5.6494129  40.2818060
  21.2729955  10.8222485  51.1512184  21.7461967  10.3936052  50.4380703
  21.9518518  11.2769854  51.6498184  64.4524527  34.5449495  14.0275824
  65.3880548  34.5079064  14.2263639  64.3116140  33.8322353  13.4043372
   4.3661845  66.9246101  33.3737183   3.8936466  66.3832760  34.0060925
   3.9404812  67.7803612  33.4256268  29.3768239   1.9561431  48.9660072
  28.7366271   1.4372346  48.4790659  28.8632536   2.3955099  49.6438217
  10.2252626  63.4623814  47.3344564  10.7463634  64.1031694  46.8506432
  10.7786870  62.6822472  47.3711443  20.2355456  12.0573783  42.4965286
  20.5645061  12.6239753  43.1943703  20.4025769  11.1687815  42.8107357
  43.8979101   8.4258950  12.0904231  43.1270075   8.4412509  11.5232325
  43.6770868   7.7973551  12.7777421  27.7273607  20.9801388  10.9936714
  26.7922163  20.8264589  11.1282873  27.7635694  21.6913915  10.3541088
  30.8651948   7.4754554  21.1053300  31.4880991   7.0090055  20.5479741
  30.2671695   7.9018235  20.4914808  11.4954734  69.0025616  44.1437244
  11.2594199  69.9038935  43.9243889  11.4187658  68.5268497  43.3166552
  58.4620905   4.0645710  19.2966461  58.9925003   4.7045329  18.8219404
  58.3623934   3.3351660  18.6848772   1.0502921  35.0010204  41.6718531
   0.5423552  34.1954899  41.7685699   1.4587413  35.1308393  42.5277424
  61.3363504  14.2025399  42.4672222  60.4979801  14.6628940  42.4292660
  61.7851305  14.4553041  41.6604185  74.6298218  32.1521831   7.1531242
  73.9635801  32.7313113   7.5232083  75.4411316  32.6576567   7.2032005
  44.2447805   6.5041977   5.2839094  43.8168621   7.3203909   5.0251716
  43.6151218   6.0773706   5.8649254  75.7713795  51.2209845  53.1532764
  76.3890076  51.3112926  52.4275970  76.3241005  51.1669779  53.9329052
  45.0623894  10.3056598  19.0846252  45.1110077  10.3380239  20.0400400
  45.9683752  10.4128611  18.7949288  66.0059595  23.0295634  22.7929020
  65.6870127  23.3498073  23.6366725  65.2558899  22.5741315  22.4105215
  17.3740196  64.5717049  63.9816856  17.4886370  63.9356899  64.6877861
  17.8623819  64.2030048  63.2456207  56.3735056  28.2689834  57.9194117
  56.0756683  29.1742897  57.8302670  57.3151779  28.3408999  58.0753374
  37.3243165  20.6274486  19.1592419  37.4507451  20.2806020  20.0423861
  37.4817729  19.8793125  18.5832810  59.4421196   9.7398978  17.1543407
  59.5636749  10.5286050  17.6829219  60.2117491   9.2033708  17.3441863
  56.2582159  26.1531949  14.0804410  56.2206841  25.1973414  14.0462530
  56.0884571  26.3668966  14.9979079  66.5404797  77.9641008  55.5596828
  66.4450264  77.0406580  55.7928610  65.8408070  78.1248140  54.9265432
  46.8403578  16.1555219   2.3466995  46.1242819  15.9395909   1.7493412
  47.0490074  15.3277040   2.7796146  83.3567905  25.4167652   8.1138074
  83.5789394  26.0834241   8.7637657  82.6296806  25.7962751   7.6203340
  75.7179737  40.8972073  28.3985901  76.0551739  40.6496859  27.5376248
  75.0345612  41.5409613  28.2121372  70.4964256  26.9364905  33.3432221
  71.2099457  26.4689851  33.7774563  70.1707411  26.3203549  32.6870704
  58.3389950   0.0511437  65.4256439  58.2726145  -0.0641014  64.4777298
  57.5156546   0.4714174  65.6740618  80.7798958  22.7818060  11.8335688
  79.8285913  22.6863003  11.7873847  81.0943127  21.9193506  12.1047580
  54.1378784   8.8084710  67.2999287  54.0010262   9.2773294  68.1231403
  54.6751165   8.0537039  67.5406218  67.7999115  40.8375502  40.6468630
  67.0948076  40.2318811  40.4183340  67.6049185  41.6311407  40.1484442
  71.5307808  16.1346602  44.1193342  70.8512163  15.5750418  43.7434959
  72.0730400  16.3876176  43.3722067   4.4742748  61.5389109  66.0430622
   4.0851143  61.6860676  66.9051123   3.9034545  60.8909893  65.6300306
  71.5780258  18.5033047  41.1692858  71.7944336  17.5959182  40.9546995
  71.7639256  18.5789657  42.1052074  25.3137112   5.3270203  18.8736796
  26.0787344   5.2829480  18.3000696  25.6755209   5.5016440  19.7424901
  24.0580273  60.7509708  48.1273365  24.3766713  60.8635902  47.2317839
  23.7656426  61.6240263  48.3890915  70.0728178  37.8456068  43.0958748
  69.3648338  37.3448563  42.6906061  70.6301165  37.1839380  43.5055542
  65.9640074  58.5579634  45.9267187  66.5831041  57.9407024  46.3164997
  65.1895809  58.5064125  46.4869356  66.6240597  64.1029024  15.5710053
  66.5431404  64.5476818  14.7272885  66.2817049  64.7312307  16.2067974
  11.5129387  53.7194395  47.9184294  11.3057745  54.5108509  48.4154081
  12.3472857  53.9157391  47.4923229  63.8020325  23.0972266  63.2740116
  62.9683685  23.5092998  63.0472183  63.7837219  23.0292249  64.2286205
  16.8731225  60.7032633  46.8060684  17.0227599  59.7587490  46.7643738
  16.0505068  60.8364534  46.3351154  83.1897354  59.6198177  60.4781342
  83.7986755  60.3315639  60.6752110  83.6519814  59.0797138  59.8371601
  52.8040838  67.0924234   3.4821412  52.8613949  66.1682940   3.2393801
  52.8372240  67.5615692   2.6484510  35.8782196  72.8421688  11.4806247
  35.7886004  73.5944939  12.0656109  35.0961113  72.8727102  10.9296203
  61.5250635  30.0656652  24.5959687  60.7534504  29.8008084  24.0952754
  61.8821573  29.2457628  24.9372530  58.5679531  24.5077133  55.2639246
  59.2993975  24.2320085  55.8163786  58.0266714  25.0509953  55.8367157
  72.3269033  64.6404982  47.6627207  72.5262880  64.3064737  46.7881346
  71.9963980  63.8795280  48.1401396  58.6420584  36.1374426  46.5414476
  58.3629084  35.4250646  47.1166229  59.5970392  36.1376405  46.6065788
  47.7452604  32.7927065  -0.1904163  48.3349744  32.0414925  -0.1260481
  47.0800583  32.6330662   0.4791012  11.4558601  21.5065527  22.0957088
  11.6028690  22.0062757  22.8987646  10.9470081  22.0945191  21.5374994
  76.6314411  10.8747280  31.1249900  76.1420059  10.5389261  31.8759394
  76.1019754  11.6030633  30.8003020   1.2911442  23.6211848  51.2051010
   1.2240678  22.7614021  51.6204405   0.4718719  24.0612435  51.4317608
  74.1839695   3.6047566  35.1962566  73.6192417   3.0528793  34.6551991
  73.5902071   4.0050486  35.8314276  71.5152884  27.0018196  41.3637972
  71.1001682  27.8643203  41.3625097  70.8032894  26.3936210  41.5622520
   6.0425502  41.0676527  38.2037449   6.2958181  40.6421852  37.3845601
   5.4041594  40.4717922  38.5957146   6.5565938  40.7622099  54.8515511
   6.1407292  41.5278816  54.4552708   6.7151010  41.0190153  55.7599306
  60.5659533  25.8223414  35.0324368  60.4785061  26.2681341  34.1899085
  59.6695423  25.7529163  35.3608561  72.8807402  40.2052689  15.2031040
  73.0395508  41.0259247  15.6695151  72.4588585  40.4717875  14.3862724
  59.1147327  13.2168174  10.4341376  59.1412210  12.6313043  11.1909103
  59.7173262  12.8214633   9.8042142  80.4312229  70.0133801  52.4811554
  79.5823669  69.8757792  52.9015684  80.5978489  69.1994095  52.0058441
  74.0251732  49.0862656  66.8316793  74.3105412  48.6758184  66.0153913
  74.7651243  49.6327066  67.0964527  63.0863142  14.1324151  22.2204876
  62.1914244  14.1877246  22.5556684  63.4946394  13.4405160  22.7408481
   0.2004286  64.6646833  17.7608562   0.7504949  64.1196156  18.3234930
   0.7718989  65.3836727  17.4912202  38.0746317  78.7944031   0.0575820
  38.3453178  79.5939732   0.5088564  37.2166300  79.0057993  -0.3103520
  16.8656075  63.6952639  20.3906941  15.9944618  64.0907574  20.3603077
  16.7835844  62.9836988  21.0256577  74.2387867  45.7835913  28.1416464
  73.5952187  45.5567741  27.4703741  75.0855064  45.6137466  27.7287912
  60.6819344  30.4702926  29.5611715  61.0126257  30.0949740  28.7450743
  59.9104595  30.9723854  29.2985749  71.5135670  36.9020009  26.1146450
  72.0712423  37.5277305  25.6523728  71.2360525  37.3663425  26.9043303
  81.5143776  45.7608795  65.0272274  81.4837551  44.8059940  64.9682188
  82.3148537  45.9449244  65.5187511   5.0227201  40.6732702  12.1792281
   5.4679626  39.8259473  12.1849084   5.5677223  41.2339258  12.7313805
  72.3797226  75.5156803  12.9590023  73.2030821  75.0316191  12.8957736
  72.2163773  75.8277178  12.0689559  19.1607916  17.7170157  30.6732488
  18.6634731  17.8280008  31.4835525  18.6620235  18.2042611  30.0174642
  83.5799694  13.0014026  13.4770823  83.8332367  12.1003067  13.2767916
  84.2575073  13.3128631  14.0772176   5.8143348  23.4812093  58.2048464
   5.6400990  24.2049503  57.6031208   4.9505246  23.1164742  58.3972788
  82.2163296  55.7032967   4.6803060  82.2720814  56.6485214   4.8205572
  81.3911724  55.4481936   5.0929385  77.0791769  46.2242746  56.6287231
  77.1460772  45.2910185  56.4267540  76.1766481  46.4532566  56.4068174
  69.9218607  35.4101896  24.1020751  69.4870758  34.5576787  24.1225100
  70.5875444  35.3560495  24.7877598  72.2467184  58.7601948  52.2456551
  71.9331217  59.3455172  52.9350662  72.6695490  59.3405628  51.6127062
  83.2997799  34.8329067  26.9850445  83.2861233  35.7556653  26.7309594
  82.4200344  34.5153737  26.7814493  56.8842983  31.9835114  18.3813787
  56.7981529  31.8101311  17.4439621  55.9858227  32.1148634  18.6842191
  61.4475060  29.5364714  12.6818931  61.4746475  29.0267611  11.8721461
  62.3352861  29.4737744  13.0342436  32.6315594   8.9915425  62.4477816
  31.9797444   8.2907706  62.4307966  32.5542235   9.4113976  61.5910625
  83.6930084  23.5729599  48.5718107  83.5986614  22.6318502  48.7189293
  84.4925022  23.6551452  48.0519199   5.2681345  52.6296425  57.8686953
   5.7601935  53.1322002  58.5179567   4.5768037  53.2248402  57.5788164
  50.3984213  55.7926559  62.0292711  50.0400782  56.6420174  62.2869682
  51.3473558  55.9159803  62.0526838  73.0137777  59.8349953  66.7643929
  72.5290680  60.6467056  66.9140959  73.3261204  59.5790148  67.6322317
  62.4015617  15.2746654  14.5735419  61.7210388  15.9165359  14.7763336
  61.9324350  14.4436395  14.4990706   8.5621279   4.4691956  20.7373762
   7.7357554   4.0210235  20.5571485   8.3914334   5.3846061  20.5157471
  69.1409397  40.2159262   9.9978578  70.0241470  39.9575663   9.7343761
  68.6845827  40.3840303   9.1734093  69.0219545  28.1633234  47.4127817
  69.0540648  27.7406430  46.5545607  69.9188280  28.4598517  47.5674295
  12.0056379  17.9254580  26.6178608  11.3779187  17.7468598  27.3180771
  12.7282774  17.3200941  26.7838621   5.5807201   9.7908306  -0.2734861
   4.7343723  10.2338886  -0.2132759   5.6932465   9.3723393   0.5799999
  77.2000885  14.2562580  43.8963795  77.9554367  13.6689830  43.9245081
  76.4728403  13.6980748  43.6211157  80.8223248  24.9338770  23.7549448
  81.2431049  25.6894374  23.3447003  81.3049507  24.1788960  23.4183407
  47.0112085  64.3426991   6.8069935  47.3417473  65.2408838   6.7917544
  47.6537848  63.8597918   7.3267323  58.1267309  16.7879605  37.6591778
  57.6003313  16.4920831  38.4018707  57.4996853  16.8767655  36.9414330
  55.4072332   3.4252271   5.3937721  55.2068186   4.0846825   4.7295552
  55.5703783   2.6247326   4.8949498   5.2442968  11.4752817  12.9774785
   5.6588298  11.8780339  13.7404883   4.6418601  12.1438468  12.6514053
  44.4297028  18.9115179   9.9182284  44.2928553  18.3110368   9.1854745
  44.5675278  18.3400655  10.6736612  50.6187820  11.1100125  10.4364228
  50.1928663  11.8908811  10.7900786  51.3134003  10.9109640  11.0642099
  79.7770929  78.5478306  20.5074859  78.8530874  78.7902927  20.5679798
  80.0569057  78.8812923  19.6549964  46.4754152  36.2139273  12.8662312
  45.6107950  35.9392977  12.5608790  46.2941790  36.8518615  13.5564661
  24.2357802   6.7270601  48.8654423  23.6674166   7.4840903  49.0072203
  25.0648189   7.1022499  48.5685301  34.5937800  58.7859631   5.4300112
  34.6622634  58.8307810   4.4763166  34.3503046  59.6730614   5.6946051
  81.6977882  48.7326717  36.2492514  81.4308548  48.0981636  35.5841327
  82.1890545  48.2169819  36.8887448   1.0722692   5.9473258  32.5815392
   1.9541255   5.8210045  32.9316878   1.0649542   6.8530536  32.2719669
  79.4388437  39.0874696  53.2484293  79.3018293  38.2531476  52.7996922
  79.5081139  39.7304416  52.5427246  70.3586531   1.1922657  33.9490533
  70.4857302   1.2267879  34.8971534  69.7094679   1.8723747  33.7694883
  44.9005365   2.6284260  28.6041331  44.0575409   2.6806575  28.1537342
  44.8773384   1.7864947  29.0589356  24.2442155  34.3249559  35.8361983
  25.1526880  34.2312813  35.5496120  23.9461613  33.4275436  35.9846759
  82.5759983  67.2474909  30.5440760  82.5861073  66.7153740  31.3396788
  83.3895206  67.0203972  30.0936985  30.5291009  71.4763498  40.9962082
  30.5708480  70.8388853  41.7090416  31.3867688  71.4209509  40.5748224
  69.2027903   5.5942315  56.8143034  69.9351931   6.1243737  56.5000343
  68.4994745   5.7615209  56.1869383  61.3345146  12.0297074  24.7040462
  61.0070229  11.3173652  24.1549110  60.5565405  12.5451851  24.9168205
  62.1340895  19.2196572  26.1806583  61.2822866  19.1756225  26.6150761
  62.2245932  18.3724236  25.7444978  14.2876220  22.1554065  34.8688293
  13.9671338  22.7832580  34.2212796  14.7505045  22.6910233  35.5131030
  82.0456123  36.7778683  18.3848786  82.6050472  36.1205173  17.9711747
  81.2526035  36.7890477  17.8489244  74.1544676  55.3361893  17.1393657
  73.8392353  56.2005758  17.4033701  75.0974035  55.3653479  17.3013949
  71.1274719  34.3068504  17.9546773  71.9164801  33.7709546  17.8739297
  70.4165554  33.7300992  17.6750576  74.7077417  23.5247326  17.6221597
  73.9835787  23.1469607  17.1230507  74.3313122  24.2980027  18.0423820
  53.0364943  31.4232779   5.5171186  52.1943569  31.6578031   5.1272047
  52.8517151  31.3370872   6.4523500  69.6103430  40.5228376  17.3020554
  70.5289936  40.3693342  17.5228441  69.6328497  40.8664322  16.4089322
  54.3742800  17.9109430  33.7351942  54.8146820  18.4495926  33.0778241
  54.3816042  17.0280755  33.3654308  61.7602110  43.5540819  28.3923864
  62.6031446  43.1114531  28.2935262  61.8760967  44.3925476  27.9454184
  67.1648169   7.5968289  13.6004829  67.9768038   7.6893193  14.0988350
  67.0326185   8.4545434  13.1966496   8.9764857  44.7954941  21.4945126
   8.5220122  44.9625587  20.6688142   9.3155938  45.6507778  21.7585731
  68.1034470  16.3196015  11.6989005  68.1069040  17.1723020  11.2640190
  67.2680807  16.2920487  12.1654129   6.3768744  19.9514377  37.5024343
   7.1684390  20.3567004  37.8565812   6.0071266  20.6159401  36.9210958
  14.4538152  37.9232097  21.5272522  14.3139315  37.9554415  20.5808783
  14.4939268  36.9889712  21.7317557  18.4197068  21.4924335  29.9870372
  18.4876823  21.0018325  30.8061337  17.5582731  21.2607980  29.6398926
   0.9252377  22.3946691  44.4136953   0.8360100  23.2036805  43.9099360
   0.3548832  21.7696834  43.9661217  57.7951193   9.2265195  46.4899588
  57.0252943   9.0206993  45.9596395  58.4271479   9.5837754  45.8661461
  20.7464695  78.8541126  50.3579712  20.0604463  79.4661999  50.6243467
  20.3141546  78.2634497  49.7411680   0.4721859  31.0461736  64.2627192
   0.0646874  31.7875051  64.7106123   0.8102992  30.4959297  64.9692202
   3.3822936  72.9446220  61.6400003   4.2735374  73.1654692  61.9104481
   3.3826518  71.9899321  61.5707064   8.3656830  49.3707609   3.0307120
   8.2994926  49.3629026   3.9855883   7.6400656  48.8205528   2.7357888
  53.2545519   6.7957067   5.5246645  53.6808681   6.3910365   4.7691995
  53.3428001   7.7368176   5.3738189  77.0707226  38.7729239  21.3819146
  76.6723299  39.4096518  21.9752908  76.3368797  38.4272909  20.8737350
  17.5739360  53.5640001  26.5805435  17.0997286  53.0929184  25.8953857
  17.3511255  54.4837666  26.4369750  73.0290365  39.8063707   7.3128796
  73.0673838  40.3323078   6.5140355  73.1450653  38.9051032   7.0120716
  70.1177692  30.6946516  34.7311258  69.6249628  31.0075235  35.4897308
  70.9647655  30.4285288  35.0888991  28.6671090   6.8869525  27.3090482
  28.9011574   7.7876943  27.5329185  27.8504443   6.7270702  27.7820492
   1.4617628  47.5314331  25.1178098   1.9800162  48.3307362  25.2114367
   2.1101889  46.8281317  25.0840592  25.1703024  75.4475594  29.8767614
  24.9141598  75.9923267  29.1325498  24.4239044  74.8644209  30.0148535
  62.2952127   3.6584920  49.4375086  62.2627258   3.1188175  48.6476183
  63.1501102   3.4672403  49.8232651  15.0954568  17.9946017  57.5166798
  15.5747950  17.8019917  56.7108488  15.7708371  18.0321765  58.1939411
   8.6312187  31.3581109  18.6354268   8.9969933  30.5005360  18.4186149
   9.3530113  31.9699049  18.4906673  71.3500690  66.8660927  41.0475636
  71.8827152  66.5842295  40.3038788  71.0852575  67.7592611  40.8276606
   5.4367983  32.1028900  35.4657793   4.4952020  32.2729707  35.4922485
   5.7038695  32.3703527  34.5863652  22.8746796  46.8042517   9.3027437
  23.2888246  46.3216257  10.0181365  22.4285674  47.5338554   9.7327423
  75.0912666  41.4130068   1.0301673  75.6937027  41.9769430   0.5451129
  75.1271963  40.5736065   0.5715304  40.6734943  20.8191133  65.1121998
  40.3132200  20.5262470  65.9492588  41.4657211  21.3017464  65.3481531
  57.8487873  31.3591528  65.6639242  58.2391882  30.5837440  65.2607393
  58.3463383  32.0929527  65.3030729  70.4308939  74.9064445  23.8949370
  71.3087654  75.0850630  23.5577965  70.5725336  74.6430206  24.8042107
  82.4849606  38.8372612  15.0050938  83.1420135  38.2428360  14.6429265
  82.9192448  39.6900058  15.0264096  33.7454271  63.1901264   3.6603448
  33.8751507  63.2907581   2.7173299  33.1944513  62.4119520   3.7446237
  78.1556892  34.1025686  28.0195332  77.9570961  34.2523551  28.9438486
  79.0677023  34.3766952  27.9230261  11.1263251  78.0828047  57.0948648
  11.0729706  78.9820480  57.4185133  10.2319336  77.8709793  56.8276119
  41.5579653   9.1550809  51.8080997  42.4523926   9.2994028  52.1169710
  41.0826921   8.8543749  52.5826406  76.3879156  39.6086669  26.1000729
  77.1904802  39.1511440  26.3506627  75.9620380  39.0209174  25.4760432
  73.0740309  41.1852932  26.2083077  73.0022240  41.7598248  25.4460835
  73.2284355  40.3157568  25.8391213  54.2343473  76.4976740  34.0116477
  54.8611689  76.3823414  33.2974863  54.6999788  76.1931229  34.7905374
  75.9222269  66.4058399  36.0094070  75.2557516  66.2935448  35.3315902
  76.7523766  66.3961983  35.5329776  77.2042561  32.6282096  35.8337641
  78.0340624  33.0483603  35.6076574  76.7447042  32.5407553  34.9986625
  63.9352322  48.7435246  21.1169934  63.0499220  49.0819883  20.9831810
  64.4867086  49.5248270  21.1579013   2.7101377  59.6329308  15.3406692
   3.3652624  60.1286411  15.8319104   2.6019621  60.1218367  14.5248866
  79.6366549  57.5277472  16.2476385  79.5151043  58.0128050  15.4314411
  80.2216911  58.0779886  16.7684054  73.5209990  57.9558659  35.7790828
  73.3586788  57.3528290  35.0536704  72.6868677  57.9980469  36.2467122
  75.0253725  35.2434874  27.7687955  75.0548029  36.1036658  27.3499179
  74.8041439  34.6393824  27.0600295  62.2121048  55.5861282  44.4231129
  62.7458429  55.1896143  45.1116848  62.2804356  56.5279818  44.5795631
  72.4473047  42.8514957  31.8212914  73.0293036  43.4469175  31.3490772
  72.2259426  42.1751451  31.1811519  20.4060030  53.1422710  25.7620645
  21.0083294  53.4724617  26.4287043  19.5358598  53.2781553  26.1370540
  29.7276163  50.3043795  19.1978180  29.8892093  49.3717146  19.0555179
  30.0056171  50.7226849  18.3829749  76.3788652  71.8543100  21.2382579
  76.9059706  71.7286158  22.0273018  76.1819458  70.9670401  20.9379101
  34.5591021  39.3357110  61.5318632  33.6250019  39.5370317  61.5880537
  34.9233437  40.0375223  60.9924030  17.5138474  47.4806547  46.6407299
  18.3750355  47.0676279  46.7039824  17.5966620  48.2864952  47.1506262
  45.4589272  66.7911911  60.1021147  45.8737183  67.0713663  59.2862177
  44.5467854  66.6268063  59.8629332  24.2746973  20.3187943  63.2645655
  23.7547684  21.0724235  63.5437584  24.3383408  20.4106760  62.3139095
  65.9066534  38.6093736  18.0153346  65.3337479  37.8801203  18.2523966
  66.1003542  39.0419221  18.8469684  71.4917850  62.7613831   5.8725357
  71.5658045  63.7155199   5.8920044  70.5669069  62.5892496   6.0491973
  49.5193243  12.9464900   3.3429816  50.2984142  13.2116055   2.8541398
  49.8607731  12.4513543   4.0876198  25.0402975  66.6161823  52.7349663
  25.9297037  66.6798925  52.3869324  24.6711516  65.8426809  52.3087502
  53.8228655  46.0143423  65.2935743  54.0657330  45.0928450  65.3835011
  54.6510935  46.4885759  65.3669262  67.2503424  54.3105078  38.8054037
  67.6666689  54.2321873  37.9470515  66.3133621  54.2347527  38.6249495
  14.7496152  40.0956726  10.6831992  14.2780030  39.2767501  10.8354521
  14.3950558  40.4263735   9.8578763  63.7876797  12.8864920  25.3718257
  62.9057550  12.5714433  25.1738763  63.6809206  13.4169328  26.1614251
  69.2633247  67.9519033  34.8888946  68.5814476  68.2743740  35.4782081
  69.1787958  66.9990730  34.9234438  16.7879641   2.8720570  56.0266781
  17.1349382   3.6313951  56.4949131  16.8018079   3.1318381  55.1055098
  30.1085615  74.5146132  38.6052060  30.4115415  73.9656067  39.3284130
  29.2283249  74.7874022  38.8640475  23.1488991  77.9556608  42.3375368
  22.4910426  78.5055351  42.7630949  22.6507950  77.4219036  41.7184830
  79.7946358  33.0138683  17.4216676  78.8753748  33.2790327  17.4513400
  79.9955797  32.7455664  18.3182538  51.2402630  14.6505356  46.4948034
  50.3051996  14.5157516  46.6488123  51.6201305  13.7733662  46.5448666
  53.2495975  25.0959635  62.8092003  52.5051594  24.5619583  62.5319338
  53.3564520  25.7398582  62.1090460  77.0205498  56.1925220  14.5833325
  77.9685497  56.3209009  14.5510042  76.8301010  56.0463905  15.5099428
  74.9935150  42.9966068  52.1387815  75.4374266  43.3737326  51.3792038
  75.6218386  43.0910301  52.8546906   3.2698801  58.5174561   7.8568053
   3.6784214  58.7303829   8.6958450   4.0044218  58.3164215   7.2769219
  68.5008526  26.4303374  36.4822984  67.8128672  26.9750214  36.0999060
  68.7483978  25.8289981  35.7799149  76.7385769  55.5306196  17.2690272
  77.4665928  55.7726622  17.8414249  76.7365265  54.5734501  17.2758532
  75.3690958  25.1657462  29.2094851  76.1516714  24.7884059  29.6112633
  75.6127310  26.0705686  29.0141082  18.5966003  61.0609579  15.9389162
  17.9891288  60.8154011  15.2411258  18.1420159  61.7525530  16.4198363
  67.7941370  52.8453064   4.9554783  68.5882950  53.3386087   4.7500578
  67.9062414  52.5802422   5.8683890  82.6925945  33.6070704   4.6961904
  83.3299255  33.5550284   5.4084641  81.8656921  33.3351350   5.0943422
   7.0163214  66.9403744   2.7094525   6.5441853  66.4239883   3.3626503
   7.0332432  67.8264332   3.0711737  54.0862942  28.6142993  29.4712448
  54.5405102  28.0710506  28.8271976  54.6840906  29.3441153  29.6332216
  11.7369425  31.6320848  19.6517396  11.0831821  31.1790228  20.1842451
  12.2308195  30.9292006  19.2295194  72.3293829  49.1601706  47.4286699
  71.8472958  48.9556313  48.2299089  72.5597525  50.0850058  47.5172377
  12.7830374  23.8774300  27.4096370  13.3010852  24.6588993  27.2168589
  12.0281100  24.2050958  27.8984594  69.9066877  55.9777308  16.8144977
  70.5800486  55.9668684  17.4947190  70.2785873  56.5187979  16.1179543
  53.6327457  74.6356726  41.1530304  53.2509184  74.1291332  40.4361916
  54.5194387  74.2874575  41.2466097  26.8098497  70.9009171   9.2494529
  26.9210887  71.7363787   9.7031760  26.0813785  71.0507536   8.6468649
  81.7201996  57.0110130  10.3815126  81.8800831  57.7803469   9.8348844
  82.5815773  56.7819977  10.7305348  55.8649540  31.1883712  67.6203585
  56.6928196  31.4308238  67.2055197  55.8413124  31.7034125  68.4268379
  76.3410378  52.4967957  48.1513691  76.6802979  52.8077650  47.3120642
  76.1455870  51.5716267  48.0027390  65.6717730  46.8298483  53.4162712
  65.1294184  46.0438204  53.3511400  65.8957005  46.8900537  54.3449640
  66.8207550  32.0507503  32.6433611  66.4789867  31.2994361  32.1586394
  66.9716120  31.7167735  33.5276294  62.6229095  12.6222408  62.0661116
  62.1172714  12.8075957  62.8574467  62.4526548  13.3694470  61.4925909
   9.8781306  70.8597183  27.2447491  10.1566315  70.0284910  26.8603849
  10.2770305  70.8668423  28.1148410  83.3521843  29.5081663  25.9230375
  83.5482311  30.3850746  26.2529302  83.5475349  28.9266300  26.6578078
  74.4358826  39.3530130  33.3486271  74.6273661  38.7544513  32.6266217
  73.9779425  40.0859308  32.9371023  62.6126051  72.8819513  26.8074942
  62.8140736  72.4491501  25.9778404  63.3134699  72.6058197  27.3980665
   6.7946970  73.0298328  49.9509525   7.0772403  73.8749743  49.6014738
   6.1460936  72.7150393  49.3213081  69.7731495  19.8382294  55.8791304
  69.4570160  20.6381297  55.4590702  69.2700195  19.1361427  55.4666185
  57.2367096  32.8238797  39.4541335  57.7906513  32.0596528  39.6133208
  57.4652529  33.1049776  38.5681415  56.3032150  76.9463825  13.3166540
  55.7401323  77.6301670  12.9538858  55.7704353  76.1520815  13.2784200
  73.2590103   9.8389554  65.1301003  73.1311750   9.6071833  66.0499763
  72.4361134  10.2536047  64.8709917  17.1759415  49.3047047  18.8146532
  17.2106493  48.4908247  18.3120358  16.3871741  49.2217970  19.3505681
  66.3387299  41.1867237  31.5640116  65.8458757  40.9931898  30.7665944
  66.1535501  40.4489231  32.1450353  77.4822474  55.7854748  63.4383488
  77.3309231  56.4114189  62.7301645  77.5320196  54.9357843  63.0004263
  30.6701255  62.7082968  19.8755014  31.1396790  63.2996368  20.4637718
  30.3834653  61.9887400  20.4379058  77.9664755  45.8191681  52.4537754
  77.7101374  46.7037153  52.7147388  78.8312149  45.6951523  52.8450251
  64.3688869  71.8425179  44.8712969  65.0861216  72.4614048  44.7342253
  64.8010254  70.9953785  44.9801397   3.3532661  60.5432558  29.8193765
   3.5340461  61.4831352  29.8060346   3.2367563  60.3349018  30.7463312
  64.2080116  44.6681261  55.9389400  64.9034405  45.3126907  56.0698891
  64.1713142  44.5447254  54.9904394  16.3645518  12.9151285  20.4809093
  16.2822461  12.8047299  19.5336664  16.4666271  13.8588667  20.6040812
  76.2307692  57.3729038  36.7785931  76.6377258  58.1384516  37.1842480
  75.3778839  57.6863146  36.4775944  16.2143075  38.0547261  44.5427179
  16.3557005  37.3650002  45.1911879  16.3598239  38.8693166  45.0238609
  82.7768326   5.0088203  33.8835549  83.1841850   4.8544133  34.7358751
  83.5009861   5.2738976  33.3164907  13.4711421   8.2192570   2.7483189
  13.4746909   8.9136189   3.4071669  13.8627446   7.4665964   3.1914684
  18.5160351  48.9185095  12.4797499  19.0509379  48.1254482  12.5138736
  18.9158130  49.5048761  13.1220794  67.0071077  43.1082916  39.4574690
  66.8110275  42.9355049  38.5366392  67.4058390  43.9784861  39.4582510
  72.4906778  33.0759645  25.1465416  72.3892069  32.4176240  25.8339429
  72.2030449  32.6342678  24.3475413  60.5248499  56.9752550  17.3904359
  59.9206734  57.1629095  18.1087589  60.9693384  57.8072453  17.2277832
  70.3549576  31.1053061  43.2863569  70.4512262  31.9049144  42.7690649
  71.1986446  31.0017395  43.7264729  77.5534630  45.0535345  30.0406027
  77.9679060  45.6777906  29.4449735  77.5398970  45.5020332  30.8861208
  73.7265635  16.8577945   5.2843970  74.3548393  16.5160394   4.6482363
  73.6195469  16.1496806   5.9194982  80.1101208  64.0499353  13.7302697
  80.4924297  63.3612967  13.1863499  79.7983694  64.7039032  13.1046772
  10.3001487  29.0287781  43.2745790   9.7446746  28.7451577  44.0006924
   9.7981262  28.8102412  42.4894381  52.0019913  65.7392979  36.8687177
  51.2825155  65.7070446  37.4992299  52.6781702  65.1778889  37.2479796
   8.3258182  50.2647209  29.2098475   7.8291428  50.4759407  30.0003719
   8.2020777  49.3226719  29.0937996  29.8432755  17.3761451  40.2963448
  29.1136575  17.9777062  40.4447222  30.1499653  17.1504009  41.1745310
  74.8591518  66.5141773  33.2301331  75.3717947  66.5780449  32.4243093
  74.1125202  65.9628773  32.9959583  52.0468140  60.7886934  27.1821904
  51.6144705  61.6216707  26.9938779  52.6365614  60.9841776  27.9103494
  45.4747295   7.0735788  25.0029039  45.3152704   6.7814147  24.1054368
  45.8022070   7.9681003  24.9089646  17.0808303  47.2120810  24.2992258
  17.6395297  46.7509604  23.6735606  17.4099731  48.1109095  24.2971230
  77.1446037  23.1106544  38.7877250  77.6314306  23.9271998  38.6759973
  76.8833494  23.1116462  39.7085810   5.7496899  37.8408837  28.3492708
   5.8771831  37.4541068  27.4830246   6.6118896  38.1803775  28.5892463
  15.1608789  49.0697050  36.5135193  15.3503346  49.9805880  36.7385387
  15.3236377  49.0168142  35.5717421  72.6688004  41.7260122  50.7878590
  72.0105648  42.3706627  51.0474443  73.4487391  41.9651079  51.2886238
  68.2223129  45.5246019  41.9736624  68.6358595  44.7367144  41.6209030
  68.0568838  45.3170013  42.8933191  81.6112423  59.2438269  30.1591229
  81.1564159  59.2254782  29.3170857  82.5387478  59.2996025  29.9291897
  79.2539454  42.7412939  21.3606071  80.1822281  42.7759361  21.5915346
  78.9935541  41.8398237  21.5497684  23.1263566  73.5369873   5.4906160
  22.9882932  74.3284559   4.9702814  23.9639926  73.6825657   5.9303939
  67.2221518  34.3921876  12.6954281  66.6596699  34.4620490  11.9240880
  67.8529119  35.1054478  12.5972843   5.4040200  26.5857625  10.9398353
   4.5824298  26.5855718  11.4309788   5.1925039  27.0311403  10.1193905
  78.2279587  65.0269222  26.1954975  77.4121189  64.8831272  25.7159519
  78.0436325  65.7756472  26.7626524  23.8673258   3.6390153  33.4549356
  23.1438375   3.2317880  32.9785299  23.4631467   3.9936268  34.2468452
  16.8747485  11.1207938  24.9965739  16.0816872  11.5899301  25.2557969
  17.5871849  11.7307901  25.1878142  67.2079039  68.2012463  36.6483974
  66.7085218  67.5792122  37.1774745  67.0869207  69.0421057  37.0894790
  63.5042477  66.8773127  27.6374245  63.0563593  66.0371685  27.7363491
  63.5262156  67.2426271  28.5218978  52.2695065  55.7977581  11.5509331
  51.8472672  56.5589666  11.1528027  51.8638659  55.0458288  11.1193228
  60.5289173  61.9896889  20.4991031  60.6943083  61.8247366  21.4273643
  59.6490002  61.6446877  20.3475928   9.4890451  66.3714361  36.8800712
   8.6657476  66.7018223  36.5205455   9.7299910  67.0091486  37.5520110
  62.9743147  64.9345732  39.2759609  63.0958700  64.2368555  38.6320281
  63.8249731  65.0128078  39.7078037   0.9515873  13.8450062  15.7126081
   1.5773217  14.5403910  15.9154093   0.9941595  13.2570684  16.4667618
  68.2781839  75.0215578   4.1631776  68.0966377  75.1558876   3.2330012
  67.6145697  75.5432367   4.6145052   7.1582478  35.4277945  29.4298434
   6.4641738  35.7941270  29.9778342   7.7233464  36.1737084  29.2285752
  75.3362322  35.2939606  39.7746038  75.5974627  35.4306483  38.8639426
  74.4006538  35.0970149  39.7284150  73.8451099  64.1589785  22.7612066
  74.5491934  63.8694620  22.1809673  74.2506027  64.2013216  23.6272383
  83.0653477  12.1732497  28.5762954  83.1931973  13.0824375  28.8469768
  82.5242996  12.2316074  27.7888370  57.6902246  21.0764885  42.2247219
  58.6010790  21.2862325  42.4310923  57.5079441  20.2817345  42.7260923
  70.8369637  66.1652803  16.0752416  71.7928219  66.1156940  16.0858476
  70.6104994  66.5991735  16.8978477  35.9565067   9.6333694  63.2885742
  35.9410119   8.9399481  62.6289129  35.5792117  10.3935683  62.8458786
  68.5818148  53.2424593  12.1210980  67.7127981  53.5692978  12.3539531
  69.1066504  54.0317059  11.9874251  34.0383792   9.6571016  11.1548841
  33.9099145  10.4223084  11.7154086  34.7949338   9.2081690  11.5321302
  81.1489868  36.8919301  32.8415513  80.4919624  37.1972561  33.4671140
  80.6803131  36.8390846  32.0086122  80.1418686  10.0863922  61.1535740
  79.3883419  10.6534350  60.9895849  79.8027897   9.3964010  61.7238092
  48.8438702   4.3159106  29.8230362  49.3425846   4.2400110  29.0095544
  49.4891071   4.5897740  30.4748821  29.3757391  74.3471050  55.4201651
  29.7714090  73.8755226  56.1531639  29.0456343  73.6587524  54.8427248
  73.3597422  38.2634950  45.2835083  73.1375694  37.6693082  46.0003185
  73.5507393  37.6861572  44.5442963  71.8501329  36.3273239  10.2217674
  71.7635822  35.3781486  10.3101313  71.4498663  36.5265656   9.3754089
  70.5720758  47.9549742  49.7305393  69.7026777  48.1813192  50.0609112
  71.1767769  48.3318377  50.3697109  77.6764822  66.0996723  23.0372763
  78.0012608  66.9691944  22.8034449  78.0776405  65.5135965  22.3955441
   2.7199125  70.4511118  68.4941196   3.3666101  70.2086639  67.8313732
   2.5965294  71.3928413  68.3751392  55.4526281  54.6746778  45.9018326
  56.1289549  54.8054981  45.2372265  55.5838108  55.3922987  46.5215445
   2.0344900  57.6019239  26.6779423   2.7940673  58.1842327  26.6640377
   1.3027817  58.1685114  26.9225073  60.3408909  54.2532015  42.8061295
  60.7734251  53.4432220  42.5357866  60.8812952  54.5856094  43.5228539
  65.0551987  52.4388027  10.3044975  64.2138577  52.3559666  10.7534027
  65.3511715  51.5367842  10.1820469  74.1182613  34.9112201  32.3318815
  73.8074350  34.9188709  33.2371783  73.4648275  34.3961453  31.8586421
  68.9315510  18.4571981  39.6136427  68.4315586  18.8015056  40.3537035
  69.7739744  18.2037675  39.9909115  37.1077204  71.9249582  61.7543459
  37.9433870  72.3878765  61.8143320  37.0011067  71.7431593  60.8206367
  61.8684673  44.9564362  32.0154643  62.0330667  45.6995249  32.5959468
  60.9849977  45.1064491  31.6789985   4.6435627  49.9765205  46.7449760
   4.8022950  49.7498465  47.6613045   3.7189257  50.2223349  46.7157602
  71.0942984  11.2348521  64.4086838  70.5236053  11.8953300  64.8015070
  70.9404039  11.3146472  63.4673119  77.8846407  43.1474161  63.9007568
  77.5372171  43.8991070  63.4206629  78.8341045  43.2667255  63.8780117
  83.0725574  39.3753219  18.1535637  82.8278065  39.5957398  17.2548163
  82.7070618  38.5018635  18.2939696  48.8522959  20.6656098  44.7777605
  48.7065506  19.7198105  44.7990799  48.5290003  20.9768867  45.6232309
   4.2628765  68.2721949  37.0192194   4.0182132  69.1945553  37.0942378
   4.8066437  68.1052637  37.7890778  29.4089413  58.8356400   5.9327728
  29.4596124  59.1787624   5.0406229  28.6236906  58.2882738   5.9346300
  79.9074745  60.0929070  48.8818598  79.6571732  60.6742573  49.5999241
  79.3360043  59.3313122  48.9799690  83.0727768  28.5683513  59.7729540
  83.4191513  28.7757158  60.6408548  83.1117916  29.3969154  59.2952633
  10.7269037  48.2904720  42.9976320   9.9466211  48.7163210  43.3526611
  10.4575717  47.9790163  42.1335220  16.5686309  43.5312462  28.4135675
  17.0568192  42.8764772  27.9143858  16.6124833  44.3229103  27.8773093
  12.4470222  65.9677982  52.1631479  12.9880071  66.6013527  52.6345015
  13.0425036  65.5699730  51.5280390  38.1333160   8.3433747  20.8945227
  38.4857345   8.3291286  20.0046730  37.7785397   7.4640852  21.0257316
   9.9455178  31.4856482  34.2135119   9.8103130  31.4894295  35.1611090
   9.5948553  32.3259139  33.9181852  16.9572389  17.4654937   5.0338352
  16.4069140  18.2440567   4.9488911  16.8376994  17.1855438   5.9413427
   7.3639280  43.2938051   9.6700692   6.7622238  42.6489115   9.2981839
   8.0336350  42.7705240  10.1104093  79.9562407  28.4177971  28.4498501
  80.7193470  28.9779091  28.3078265  79.5541620  28.3369780  27.5849581
   5.8609819  68.7647486  13.0436134   5.3857720  69.3885803  13.5924709
   5.4827756  68.8765049  12.1714306  56.6131210  55.6055355  18.1498981
  56.5704012  56.3578606  17.5596273  55.7381010  55.5527306  18.5343194
  62.2128582  47.4514914  33.0736756  61.9546556  48.2985258  32.7102160
  62.6100159  47.6642799  33.9181995  58.1789064  63.3642626  48.2435513
  59.0701628  63.3045769  47.8995514  58.0751753  64.2856216  48.4813929
   7.9768485  49.2133141  13.7003684   7.2836691  48.5622883  13.5912943
   7.9895037  49.3945360  14.6401727   4.6150282  25.3725100  44.2830467
   5.2410680  25.5597639  44.9825048   4.5575470  24.4172597  44.2624569
  23.0919647  26.0779738  32.5755000  23.3963060  26.6353536  33.2916951
  23.8152456  25.4703569  32.4209189   1.9810337  53.3655739  45.7115698
   1.8381254  52.7049589  45.0337839   2.3942257  54.0958548  45.2509212
  54.1494894  63.0650473  52.7913427  54.1353559  62.7251530  51.8966341
  55.0696754  63.0183506  53.0507898   2.8803384  35.5008125  26.9847608
   3.3657235  35.0316143  27.6633501   2.6296884  34.8227429  26.3573599
  73.6894417  68.9126062  34.1373372  74.3521833  68.3361292  33.7569666
  73.2596874  69.3144226  33.3822966  67.6432705  62.3905659  19.7415781
  66.7462206  62.6129913  19.9906945  67.9878426  63.1916189  19.3468440
  26.0543633  59.5263147  11.4046931  26.8209386  59.0713549  11.7534149
  26.3473463  59.8802614  10.5649829  75.3879976  16.7475843  64.9944448
  75.0400114  15.9563041  64.5833302  76.3367653  16.6735613  64.8914957
  19.2624366  25.7301140  46.5020180  20.0243521  25.1898813  46.7114592
  19.0837717  25.5450678  45.5800247  34.9851871  13.2771266  24.9147224
  35.0882864  13.5018265  25.8394456  34.2753983  13.8417542  24.6087360
   5.3657091   7.9068202  28.3622313   4.8980367   8.3742273  27.6700997
   5.9945941   7.3557234  27.8963685  45.1630878  34.7482657  15.3291106
  45.0843525  35.6832075  15.1395869  45.9246063  34.6840191  15.9054720
  11.7517006  59.2312384  12.3626065  11.3116014  58.7348557  11.6725731
  12.4898589  58.6793709  12.6210535   0.6920006  65.4335594  41.0094118
   0.9029701  64.5629597  41.3467264  -0.2271517  65.5644178  41.2423611
  13.1372392  44.4800806  68.3726215  13.6031783  44.5025969  67.5367832
  12.2831488  44.1034746  68.1606483  19.3272889  77.3332119  17.4893963
  19.5022309  76.7253971  18.2078576  19.1937840  78.1786108  17.9180086
  21.4250803  71.7283726  53.7072134  20.7150412  71.5643740  53.0865812
  21.0768819  72.3955822  54.2986679  50.9334087  21.8980956  24.9675846
  51.4537048  21.5118194  25.6720805  50.1978064  22.3165178  25.4148507
  13.8059509  65.0800657  28.6916423  12.8730011  65.2646828  28.5832334
  13.8615787  64.1245222  28.7004161  62.9506636  25.3108215  53.5589123
  63.6550426  25.3231025  54.2069340  62.6742506  24.3951058  53.5229301
  47.4895430   8.7739015   3.3617923  47.9927397   8.5552192   4.1461405
  47.1705008   7.9310662   3.0391884  32.6640868  60.4951382   1.1520922
  32.9706860  60.2030087   0.2936700  32.0649385  61.2164164   0.9597103
  61.6499853   7.6032382   6.9008362  61.2892771   7.4881637   7.7799720
  62.5816965   7.4057710   6.9964904  69.3112516  39.7797871  20.3439331
  69.3414831  40.0398970  19.4232476  68.4135771  39.4755459  20.4775167
   3.3297002  69.6409082  33.6938810   2.5160846  70.1444197  33.6666965
   3.8382655  70.0453186  34.3967676  21.3418126  73.5273981  33.9291096
  21.4256692  74.2013121  33.2545424  20.6389308  72.9591894  33.6139393
  53.7487507  12.1074569  22.5083160  52.8532362  12.4234223  22.6285505
  54.2280960  12.8666759  22.1765852  34.3161464  63.2560587  55.5837679
  35.0277638  63.3046818  56.2221003  34.7472692  63.3628750  54.7358561
  22.8290367  42.6989174  53.1119823  22.5908995  41.8148851  52.8326797
  22.2074127  42.9051590  53.8100338   7.1422589   2.3695470  43.8286448
   7.6158178   2.7002153  44.5919466   7.7363509   2.5218460  43.0937338
  75.5550051   2.2048950   4.3485302  75.1001120   2.5324401   3.5726315
  76.2591839   1.6579992   4.0002918  48.8651133  73.9097309   0.2658138
  48.9728975  73.1584978   0.8491345  49.5526648  73.8031197  -0.3915569
   8.4662497  69.0326405  61.4314938   8.7214863  68.2787561  60.8997536
   9.2857581  69.4999933  61.5934181  73.6555672  58.0047226  63.8825798
  73.4134197  58.2106304  64.7854662  73.6736727  58.8532686  63.4400034
  55.9971809  61.0057831  18.1433916  55.2918768  60.3602982  18.0972683
  55.5472803  61.8497658  18.1823385  44.4141865   2.8536072  20.0030446
  43.8764668   3.6222059  20.1936889  45.3151894   3.1607735  20.1034355
  75.5136585  55.2455664  56.3223791  75.3605366  55.6132412  55.4519796
  74.9161339  54.4996834  56.3758183  60.5540991  53.2463264  50.0549269
  61.3935471  53.7006283  49.9830008  59.9159861  53.8643265  49.6984005
  75.8637428  24.8760796  32.6108503  75.6895733  23.9390445  32.6995301
  75.8778286  25.2032471  33.5102916  20.8812714  73.8428164  48.6161327
  20.4438877  73.0068779  48.7777996  20.3898716  74.2345476  47.8941202
  74.5689869  46.3069296  65.3427982  74.7789478  47.0950747  64.8418188
  75.2968407  45.7105684  65.1672554  43.9108324  36.6474319  68.2336092
  43.0398178  36.7875338  68.6050129  44.3162012  36.0005212  68.8110304
   8.7588263  12.4095678  14.4614017   9.1967046  13.2556939  14.5539451
   7.8298020  12.6275873  14.3864810  62.8837681  78.7568951  26.1692691
  62.4857378  78.9428043  27.0197058  63.2040310  77.8581381  26.2460518
  81.0130024  79.2842531  63.5051441  80.9975815  78.3421183  63.3367014
  80.0946903  79.5186329  63.6393309  12.1953583   9.7340924  50.4029131
  11.5745461  10.1613629  49.8127747  11.8156099   8.8706642  50.5657482
  13.6863291  47.4984503  50.5273485  13.6826217  48.3696318  50.1307821
  12.7929866  47.3780632  50.8493376  49.1989851  75.2309561  11.3071704
  49.4311428  74.4517612  10.8020115  49.3427801  75.9595490  10.7032573
  76.1793184  15.6581724  28.3337688  76.4082813  16.0666537  27.4989319
  75.4223347  16.1551607  28.6439490  83.7038422  66.1815977  60.6126118
  84.3771553  66.2700844  61.2871933  82.8995609  66.4815092  61.0361767
  38.3093381  74.1290855  17.7549243  38.3398914  75.0548744  17.5136399
  37.5041986  73.8031912  17.3527145  22.8576207  68.3072424  27.3961473
  23.7671828  68.2687664  27.6918602  22.5155926  69.1155720  27.7780509
  79.6604681  77.9672670  35.0364971  79.2951393  78.7342215  34.5954227
  78.8959217  77.4511337  35.2920580  52.0219040  70.3915691  20.3717470
  51.5040445  71.1860037  20.2416515  52.3471928  70.4619980  21.2692213
  66.9808006  56.6205502  18.3199131  67.7600098  56.5233850  18.8672936
  66.2579298  56.3374281  18.8798499  46.2123203  61.3292789  24.7716594
  46.1024189  61.0034609  25.6649661  46.6339159  62.1820402  24.8779154
  72.0205832  32.0391655  28.5203719  72.3900366  32.8306365  28.9119172
  72.6123714  31.3381481  28.7934899  83.1532383  50.9853315   4.4765154
  83.1946373  51.7852020   3.9523748  82.6006317  51.2165356   5.2231085
  43.0650854  23.5346246   3.0897507  43.7416220  23.8000011   3.7127331
  42.2402382  23.7146568   3.5408071  70.0069141  65.9703493  28.4470177
  70.5997038  66.7088032  28.5867119  69.7750473  66.0214376  27.5197315
   8.4868908  43.4417725  16.7101336   7.9010201  44.1179228  16.3698196
   9.3242437  43.8893604  16.8315339  79.3708324   4.5163846   6.0358322
  80.3000927   4.7008184   6.1725485  79.1773653   4.8865396   5.1745611
   6.8548548  22.1027851  22.2815108   6.7534173  22.6164341  23.0828261
   6.6073483  21.2133384  22.5342178   4.4756448  34.3753219  44.6353769
   5.2891397  34.8692513  44.7378111   4.2027068  34.1750145  45.5307055
  55.1709223  11.1184943  16.8800843  54.9510479  11.8495381  17.4575448
  54.8958921  10.3398323  17.3641062  61.2415075  59.6429300  35.7949471
  61.4968395  60.5480146  35.6164575  60.6894064  59.3988800  35.0520778
  77.2300482  13.0076718  40.5347204  78.1470203  12.8605103  40.7665253
  77.2357321  13.1003332  39.5820332   7.2313100  14.6565008  16.4096200
   7.8782022  15.0338602  17.0057440   7.4489552  15.0270295  15.5543005
  39.9559689  69.3188334  10.8886337  39.6085405  68.5751534  10.3962266
  39.2188597  69.9255323  10.9580183  57.7682734   7.2216141  17.0593190
  58.6746120   7.0677400  16.7926764  57.5303030   8.0457771  16.6346335
  58.6037397  75.9078836  20.9756851  57.9130316  76.4338303  21.3788390
  59.2483044  76.5486574  20.6753850   2.5696015  65.5000830  59.4314194
   1.6492803  65.2669668  59.5534754   2.9406974  64.7638655  58.9451027
  49.5604944  29.6697879   7.2042900  49.3311834  30.3188682   6.5392023
  49.1762304  28.8534117   6.8847555  40.4912758   9.1278660  22.2023821
  39.8265600   9.1785008  21.5154886  40.8862257   9.9996418  22.2182107
  62.8450394  27.5727272  25.1160598  63.7919188  27.6434326  25.2371097
  62.7170944  26.7067909  24.7287416  53.5428429  31.1961603  19.3538618
  52.6097393  31.1655068  19.1426492  53.8024616  32.0971966  19.1615927
  48.6307764  16.8297362  64.7541714  49.1779137  16.3137245  65.3462887
  49.0995169  17.6585281  64.6561146  10.4098737  29.1171312  20.7030535
  11.1582589  28.8521814  21.2377977   9.7443414  28.4512067  20.8757997
  65.9058380  56.5117025  15.4123068  66.3659906  56.3166618  16.2286711
  65.3444004  55.7503700  15.2660418  64.4827080  39.7977376  15.4489291
  64.7475624  38.8819933  15.3623390  65.0281096  40.1388073  16.1577570
  22.8419042  17.9353142  39.3669367  22.2165966  17.8291833  38.6500287
  22.2986650  17.9817688  40.1536798  64.4867229  29.3334508   3.1973577
  63.9475775  29.0341353   3.9294562  64.1743565  28.8274360   2.4472848
  17.6999664  27.5308514   5.8538783  18.6072052  27.7860856   5.6865311
  17.1780658  28.1675696   5.3655720  60.6378460  27.5012589   5.9571308
  59.9976444  27.6679492   6.6489303  60.9230566  28.3719039   5.6798851
  77.3764753  53.3390999  58.0335331  76.6336870  53.7456703  57.5872183
  77.4219275  53.7860823  58.8787413  75.1208162  22.8041673  48.1176662
  75.9740305  22.8538394  48.5486937  74.9427557  21.8663859  48.0463028
  60.7577610  29.6192145  19.8167586  61.6499519  29.5386147  19.4795167
  60.3396225  30.2567339  19.2380011   9.4686073  38.3183980  11.5315580
   9.2747879  38.2176328  10.5996180  10.4237008  38.3657646  11.5738058
  53.3473921  11.7540622  53.3132601  53.0598974  11.8598235  54.2201185
  53.7162876  12.6054442  53.0781078  32.2585106  61.9516706  29.2525458
  32.8902602  61.5321875  28.6684585  32.2150493  62.8578377  28.9472556
  62.7513742  72.6076174  41.8844891  63.2571602  73.4171724  41.9554472
  62.3148346  72.5228691  42.7321196  65.3796768   6.3087565  57.3490095
  65.0649118   7.0532793  57.8616905  66.3336086   6.3684648  57.4007893
  11.4946425  78.5358572  26.3655686  11.3208103  77.6652384  26.7233872
  10.9979093  79.1297054  26.9284463  20.2412796  63.7724686  66.4618206
  19.5171630  63.2220221  66.1636686  20.1604795  63.7786484  67.4155855
  56.3116980  70.2780628  44.4997692  56.4017773  69.3449831  44.6933842
  56.0161686  70.3064108  43.5897779  61.4930296  28.2065010  31.1515665
  60.9203625  28.6033225  30.4952002  61.1867189  27.3023319  31.2214684
   8.5281485   0.0908871   7.0652211   9.3141878   0.6324560   6.9939643
   7.8601861   0.5728954   6.5776485  38.4866524  17.0527399  40.7939053
  39.1006994  16.5468764  41.3261461  38.7919807  17.9567325  40.8700943
  13.7462437  51.9855833  59.6468115  13.3861959  51.1078167  59.5198298
  14.6865153  51.8822670  59.5003700   9.5749533  46.5650034   4.6224916
   9.1383410  47.3609638   4.9258956   9.1477877  45.8581972   5.1064134
  59.1201353  23.7811017  11.9489360  59.9455786  23.4479284  11.5969849
  58.4467077  23.3848643  11.3960147  45.7321548   3.4419984  65.4498243
  46.1634207   2.6804122  65.0622320  44.8369217   3.4076196  65.1127672
  38.0503368   5.8876604  11.0086250  38.5791397   5.0899887  11.0264981
  37.8300452   6.0083365  10.0849688  29.9266624  29.1299295  58.1112814
  29.9498916  28.2845688  57.6628876  30.7643461  29.1799092  58.5717392
  64.6737957  46.5736818  60.1589251  65.4703999  46.0648489  60.3097391
  64.6748781  47.2319174  60.8538771  76.8489265  33.5877180   7.5139558
  76.4388037  34.1352558   8.1834590  77.4732733  34.1684628   7.0790344
  34.6665597  79.3268728  30.9175253  34.2268157  78.4994316  31.1129594
  34.0996456  79.9958754  31.3012981  37.8301644  73.8135147  22.6923347
  38.4992719  73.6482239  23.3565688  37.3498774  74.5738220  23.0201912
  58.5474396  29.8326635   2.3695894  58.7766409  29.9464345   1.4472255
  57.8333616  30.4527712   2.5171927  12.7899671   8.3278418   9.6069562
  12.7506101   8.8959897   8.8376123  13.5860598   8.5986882  10.0642419
  62.2384691  27.0286679  44.9346495  62.2955799  27.5919342  45.7064676
  61.9021177  27.6008415  44.2449284  41.3827276  78.2636309   7.2303897
  41.0913563  78.2999802   6.3193405  41.0192776  77.4440050   7.5655735
  24.6596527  71.9574881  27.7068663  24.9927878  72.3594427  28.5091662
  23.8010335  71.6118097  27.9508185  51.3692427  25.4478979   4.6246129
  51.7013741  24.5671725   4.7985208  51.4093924  25.5352974   3.6722574
  82.6937389  32.3971748  52.9707050  82.1189308  32.8925872  52.3872757
  82.4780846  31.4807272  52.7979374  71.3632202  26.8303275  52.9715347
  70.6227827  26.8496490  52.3652220  71.5924406  25.9035182  53.0401945
  14.6063221  47.6448917  59.8975754  14.7214091  46.8844223  60.4673719
  15.4973567  47.9357815  59.7034788  62.6601315  24.2096019  41.6088390
  63.0263662  25.0883913  41.5096855  61.8598652  24.3396425  42.1176529
  19.1578329  11.1251175  54.5275354  19.4564855  12.0133793  54.3325233
  19.8589242  10.7479763  55.0590134  33.2949662  10.2484512  53.8979435
  33.5754895  10.3919160  54.8018026  34.1068625  10.2567112  53.3910036
   4.7605565  30.5861139  12.9067016   4.9650240  30.5885243  13.8418055
   5.5275327  30.1881719  12.4948514  75.3357220  17.0355260  38.1519794
  75.4473019  17.2878742  39.0685487  74.3881416  17.0376325  38.0166268
  28.2714391  68.2707691  54.1838264  27.6609492  68.6196899  53.5343742
  29.0889978  68.1467581  53.7016964  17.9516649  45.9912205  27.4475861
  18.2087255  46.5324116  28.1940866  18.1788313  45.0989103  27.7091479
  49.1439390  70.5499840  32.6556611  49.0393448  70.4629183  31.7081857
  49.1288471  71.4941216  32.8125358  31.0565019  77.3850298  40.1680040
  31.3897419  76.7916775  40.8411407  31.8074894  77.5446939  39.5963788
  73.0593967  56.9622612  23.2443929  72.5801611  56.7504978  24.0454674
  73.6374378  56.2120199  23.1056786  65.3269672   5.3398257  47.0138025
  64.9504948   4.4790620  47.1970654  64.6821260   5.9604728  47.3532248
   8.0971777  73.8077545  66.7383909   8.2323992  72.8610325  66.7791796
   7.3693734  73.9196157  66.1268187  71.1568213  31.7411065  22.7171564
  71.6999912  32.2796226  22.1416545  70.2597094  31.9172025  22.4335933
  62.9623079  38.7651563  36.1098599  63.9155769  38.6787224  36.1164045
  62.6722145  38.2764673  36.8800950  48.9513350  12.2267294  18.5692632
  48.7997246  11.6451752  17.8242517  49.8941326  12.3916483  18.5563970
  52.6259089   9.8758048  20.1781368  51.7721462   9.4985026  20.3901672
  52.9863453  10.1429951  21.0236716  15.6391382  57.8807116  67.9228354
  15.5691755  56.9564199  68.1616211  16.1303437  58.2774305  68.6422586
  19.9036610  30.3081226  63.6184454  19.1109443  29.7815919  63.7213850
  20.5837536  29.6747923  63.3890963   3.9882335  56.2218618  54.0078497
   3.4868303  55.5853558  53.4982586   3.7287223  57.0716000  53.6517143
  81.1327648  18.0340302  61.7107487  81.0429859  17.5704086  60.8781481
  82.0514107  18.3015740  61.7380619   9.0420103  63.4143686  67.7115154
   9.5441109  62.6359272  67.4703646   9.7015464  64.0442133  68.0022717
  64.3295479  11.4221537  22.6637626  64.9444866  11.2441933  23.3753872
  63.6069965  10.8124578  22.8135085  76.7922640   1.6436389  27.3017693
  77.6630878   1.9653851  27.0685768  76.4743900   2.2657140  27.9561472
  64.1338444   9.4593406   9.9569523  64.1362667   8.8228834   9.2420059
  63.4910202   9.1184652  10.5788946  70.3664684  15.8332789  36.9055557
  70.2361441  14.8955572  37.0467114  69.6683931  16.2507463  37.4101782
  36.2017322  35.1483679  60.6787252  36.8112135  35.1002908  59.9422121
  35.3911781  35.4855728  60.2972412  57.9844999   9.0315694  26.8345594
  58.2495737   8.4926289  27.5798869  57.1044922   8.7238765  26.6174436
  46.9944906   2.5064999  13.6032176  46.0800552   2.4429865  13.3275270
  47.1952868   1.6443612  13.9674008  67.8763247   4.9324244  21.5673542
  67.4868679   5.3694373  22.3247004  67.1789503   4.3698072  21.2306666
  81.6538048  76.1016750  29.0063167  80.8514023  75.6275082  29.2243886
  81.4235210  77.0244789  29.1141963  76.8460417  35.3187585  33.0624604
  77.2900724  35.5394840  32.2437119  75.9143639  35.3464055  32.8446507
  46.6726828   6.9710577  33.2641435  47.1459389   6.1393726  33.2404423
  46.4881516   7.1152622  34.1922498  31.5577197  63.2368088   9.9951172
  31.9011784  63.2012606   9.1023660  31.7614555  64.1226864  10.2950239
  32.1312904  60.8118391   3.7885717  32.4958467  60.5207586   2.9527459
  31.2126970  60.5448151   3.7552026  63.7908268  32.3595047  12.1690965
  63.6526585  32.6811910  11.2782204  63.6545229  31.4141464  12.1062195
  69.4206953  10.4990387  35.9834242  68.7278032   9.8491108  36.1005735
  70.2328110   9.9946797  36.0316682   9.9138176  33.7582016  43.6627007
  10.6533277  33.8061571  44.2685509  10.2970386  33.9313459  42.8028202
  57.5293159  17.5503707  28.5418987  57.5766516  18.0480945  29.3581462
  57.0274878  16.7671633  28.7677073  53.7753487  10.7910991   2.6303887
  53.2306623  10.8276844   1.8441242  54.3169022  11.5789747   2.5834683
  77.9414368  19.5287585  11.6893613  78.2046318  18.7923408  12.2413123
  78.4146833  19.3938553  10.8683443  54.9451208  17.2849357  25.8879304
  55.4048729  17.8446794  25.2621937  54.8050737  17.8444028  26.6518784
  35.3109598  52.2242355  28.9152813  35.5553842  52.9281759  28.3144855
  35.4780602  52.5840187  29.7864103  33.5732961  58.6251163  19.2537117
  32.7995372  59.1879129  19.2818236  34.3124151  59.2331314  19.2697942
  21.7532229  36.1748004  14.2698181  22.3179531  36.6580629  14.8729491
  21.7070818  36.7277503  13.4898508  52.7511787   9.8439443  11.5578544
  53.5225725   9.5844400  11.0540247  52.2557783   9.0329266  11.6721272
  48.9935970  59.2368746   3.5712031  49.6225262  59.9268723   3.3600691
  48.2312059  59.7040701   3.9128482  43.9456367  67.6362371   9.5881510
  44.3534756  67.8813744   8.7576050  43.3545685  66.9181013   9.3619859
  22.3438382  65.2091217  16.3380837  23.1631017  65.1028109  15.8546209
  22.6136851  65.2818203  17.2535777  45.9337664  73.8848925  17.2781920
  45.8350658  72.9354954  17.2065091  46.8768215  74.0214872  17.3688424
  19.4280064   7.6986003  61.5737677  18.5698545   7.9975480  61.2730408
  19.4031549   6.7482376  61.4623022  28.1115174   3.5660020  34.0343118
  27.1726799   3.7366113  34.1098499  28.1729126   2.6206103  33.8975739
  83.4547806  27.2072983  39.7022772  83.5773182  27.6099229  38.8425636
  83.7279415  27.8820109  40.3238678  71.4209318  19.1014326  22.2756052
  71.2272215  18.6970115  21.4299393  70.9502316  19.9346733  22.2560453
  40.2691460  18.8304508  13.1059206  40.3006649  18.0527925  13.6631334
  39.4033337  19.2055249  13.2669115  43.3837700  27.5798130  11.4528191
  43.9469290  26.8254256  11.2796760  43.1340504  27.8965354  10.5847406
  15.3104842  41.3793373  66.7158175  14.7388744  42.1051693  66.4654875
  15.6857812  41.6482258  67.5543213   3.5179099   2.0267497  62.4463034
   3.3754277   1.2484441  61.9076252   4.3002227   2.4348794  62.0752907
  67.4096060  13.4460080  27.9695249  67.2809458  13.4983146  28.9165950
  68.3018160  13.1148374  27.8669524  57.7845001  25.0518250  28.1480312
  57.6234150  24.1471577  28.4160995  58.4442139  25.3703332  28.7641144
  66.7414331  31.2697244  24.8633051  66.6354942  32.1305966  24.4584441
  66.0004902  30.7589030  24.5372701   4.8750576  44.9406004  12.9514575
   3.9246613  44.8512411  13.0221224   5.1541209  44.1598845  12.4730849
  58.6192942  62.8272438   1.7994109  58.7570572  63.7028885   2.1606591
  59.4351912  62.6261616   1.3410367  72.9991484  48.6323547  11.8329179
  72.7459431  49.3130159  12.4564731  72.1976423  48.1292725  11.6889393
  68.9771032  32.4569178  12.3824656  68.3747244  33.1847906  12.5359881
  68.6824179  31.7715693  12.9822052  69.8640919  28.0554032  20.0297737
  69.3235493  27.6227212  20.6907058  70.4820633  28.5841894  20.5344820
  27.9363203  15.9838521  13.4773517  26.9837070  16.0766685  13.4892619
  28.1698298  15.7937992  14.3859684   6.3624287  32.4963140  38.0783701
   5.4114354  32.4911118  38.1870770   6.4997917  32.2642016  37.1599555
  72.9909277  42.8568077  48.5056067  72.9162741  42.4248457  49.3565273
  72.8238153  42.1619797  47.8688002  36.2918687  69.7689962  18.5434294
  36.2917185  69.0563297  19.1824412  37.0382237  70.3140259  18.7926805
   2.4914806  41.0809612   8.0124265   1.8284616  41.7339897   7.7883929
   2.6789871  40.6366062   7.1856111  75.9664440  69.1173029  21.3113165
  76.7425728  69.1826296  21.8677211  76.0329151  68.2516766  20.9081912
  54.4730091  70.6770515  12.6071334  53.7582493  70.3099298  13.1272960
  55.0753593  71.0449219  13.2537210  74.9167538  11.0946882  20.4046488
  75.6178761  10.5650854  20.0249410  75.3698349  11.8239248  20.8279228
  82.5621891  32.1021008  11.1258149  82.0530033  32.7291632  10.6122446
  82.2268486  31.2460423  10.8594632  72.5188398  24.7219563  42.8645277
  71.9839859  25.4848576  42.6451111  73.1260157  24.6357465  42.1295929
  14.5372295  58.5680389  43.0268383  13.6227250  58.7432241  43.2487011
  14.5695949  57.6239395  42.8723812  78.4194565  -0.0877740  52.2223330
  78.2843113   0.6635785  51.6448927  79.2452145  -0.4713542  51.9269943
  46.5091705  77.5439405  62.3244905  47.3969841  77.6673937  62.6603174
  46.4966440  76.6410685  62.0068359  15.3672779  26.9213605  42.2140074
  16.1454725  26.9404101  41.6569805  14.9450982  27.7673554  42.0647144
  62.0265341  74.6778488  62.2728300  62.6498127  75.1321030  61.7058945
  62.2972393  74.9102640  63.1610489   7.2372472  48.3859348   0.1672016
   8.1803280  48.4461498   0.3195338   7.0370507  49.1347647  -0.3944071
  47.9023266   9.8495048   0.5149502  47.4979305   9.5518273   1.3298638
  48.3096886   9.0644199   0.1489890  81.4158916  19.2822862  12.7730072
  81.3385487  19.2652905  13.7269258  81.7119884  18.4020984  12.5409985
  51.0797787  13.7606561  60.0477886  50.1341820  13.8973629  59.9895859
  51.2784958  13.8547647  60.9793949  53.1272650  68.9292097   1.4342675
  54.0409851  68.7426376   1.2185445  52.8169680  69.4743490   0.7112399
  67.8508234  19.2992258   5.8412999  67.9950428  18.3538735   5.7995689
  68.7208223  19.6797836   5.7208645  76.9133663  42.5805998  25.8971739
  76.7592764  42.8088570  24.9804473  77.0867205  41.6393232  25.8837557
  61.9963980  37.2038221  33.8523984  62.3007727  37.8413224  34.4982934
  61.3084936  36.7149758  34.3041110  70.4828310  54.3080950  41.6569376
  70.5774927  54.0146875  40.7507467  69.5535469  54.5203686  41.7441273
  29.2492223  24.7919536  22.2294545  28.3533025  25.1230145  22.2923851
  29.7986412  25.5448747  22.4473453   6.4075977  37.1186066  21.8904400
   5.5428749  37.0409346  21.4873838   6.9197440  37.6279306  21.2623262
  16.8177497  39.9590039  12.3757255  16.1126375  40.1173544  11.7480516
  16.3750136  39.8937154  13.2218659  55.1471806  27.6013637  44.0820503
  55.1672649  26.6863155  44.3622494  55.7741117  28.0414486  44.6560860
   3.2895231  76.2774754  13.6774659   2.4511522  76.4805317  14.0923560
   3.3958736  76.9539738  13.0086863  74.7850704  57.9850817  18.9159894
  74.8151970  58.5366154  19.6977425  73.8512659  57.8584337  18.7480593
  79.3236828  36.5411711  21.2941980  79.6677160  37.4336863  21.2582898
  79.1513014  36.3139844  20.3804684  81.6139603  62.1726608  60.5231810
  81.3277245  62.8723860  59.9360800  82.5630951  62.2821045  60.5813789
  42.2045040  63.9912701  64.4088793  42.3263264  64.8843098  64.7311687
  41.3727093  63.7103796  64.7902536  76.0651207  33.8007784  42.9696894
  75.8288527  33.0725455  43.5442257  75.4865217  34.5146918  43.2376099
  16.7785823  17.0198369  17.9932356  17.6789021  16.9288862  17.6811743
  16.7437279  17.8985453  18.3712423   3.3796287   5.9956741  26.0199523
   2.9075360   6.4997971  26.6826892   3.9040750   5.3719246  26.5220714
  79.8366976  28.7038326   0.3428379  78.8858986  28.6756063   0.2359806
  80.1815033  28.5168505  -0.5303049  52.3103762  23.6475492  11.2151551
  52.3749399  23.8089800  12.1564329  53.0744362  23.1080532  11.0117090
  81.7873859   9.5110446  22.0905089  82.4578762   9.6764976  21.4277124
  81.0523415  10.0668228  21.8315673  44.4288254  17.1210098   7.6097047
  43.5703897  16.7665505   7.8413904  44.8449707  16.4263535   7.0993090
  79.9482346  35.4561329   3.9761528  79.3730688  36.0732388   3.5238308
  80.8059597  35.5879903   3.5722280  12.4280953  32.9954767  25.6622577
  11.8299973  33.4446239  25.0649476  12.0011783  33.0532813  26.5170264
  65.6198120  20.2913451  12.3167217  65.9968805  20.3490996  13.1946242
  64.7873974  20.7593417  12.3823202  24.8556399  78.5872555  35.0013518
  25.7634926  78.6546707  34.7055697  24.9015474  78.7215567  35.9479713
  52.7801752  35.3203869   4.5859483  53.1582737  36.1996913   4.5956102
  53.2757521  34.8392797   5.2486479  56.5563488  31.1420131  15.5474770
  57.0013475  31.2708640  14.7098589  56.5379524  30.1922703  15.6653082
  79.3935013  56.0083914  11.5637052  80.0716591  56.2359953  10.9276807
  78.7521887  55.5064201  11.0607374  14.0182316   5.2540016  15.3078401
  13.4184277   5.6699556  15.9270740  14.1847444   5.9263903  14.6472359
  74.3450499  57.3626947  29.7511840  73.9785480  56.5729189  30.1488805
  74.2164993  58.0446291  30.4104757  37.8574967   5.6523800  15.4728019
  37.5769472   4.8570210  15.0201130  38.1666565   6.2291664  14.7742534
  69.5798111  64.6888447  32.8676534  68.9614630  64.4182587  33.5463738
  69.2065668  65.4949951  32.5112200  66.6181040  12.9049480  14.4683981
  67.2635794  12.6014566  13.8300514  65.8487082  12.3581100  14.3095434
  20.2572393  66.9326448  59.3305397  19.3102705  66.7980766  59.3675709
  20.4469514  67.5057316  60.0733805   2.1474929  30.0451970   6.6338569
   2.8277144  30.7084823   6.7504096   2.1797360  29.5253658   7.4369550
  48.1752825  34.1755533  13.8750386  48.2873344  34.5219588  14.7602940
  47.7376080  34.8793077  13.3960772  75.0770092   7.6538664   4.3363550
  75.8477354   7.0946407   4.4337279  75.2791262   8.2115793   3.5851312
  70.0803423  36.5300059  15.5080843  69.5763350  35.7582355  15.2500510
  69.8816776  37.1816230  14.8356557   5.0311077  18.0504370  24.7451234
   5.7216960  18.7131155  24.7318530   5.4912025  17.2222674  24.6084499
  37.3116183  34.1240406  17.7536094  37.1038151  33.6543751  16.9458580
  36.6045380  33.8905883  18.3550811  12.1047008  10.0054657  22.2265029
  12.6023626  10.0832796  21.4125538  12.7443683  10.1825738  22.9162049
   0.8817557  42.2340393  34.3501902   1.3766026  42.8617954  34.8767638
   0.9581226  42.5606441  33.4536815  37.3136616  16.0338259   3.7379768
  37.2783852  16.2823641   4.6616739  36.9390726  16.7825878   3.2740039
  71.0793829  26.4399219   4.6250927  71.8724060  26.4354277   5.1611257
  71.0922337  27.2901225   4.1855153  13.5894632  78.0074310  13.3186936
  14.4041574  77.5481081  13.1149006  13.2141078  77.5164795  14.0496552
  63.2125711   1.4504324  68.2379103  63.7294149   1.8834017  67.5584698
  63.8594484   0.9970586  68.7784958  77.3835802  27.5391316  26.5438008
  76.6386557  27.1036482  26.1294699  78.1063271  26.9186068  26.4499044
  68.9029217  56.8103647  49.2612267  68.8378382  57.4247169  49.9923658
  68.5236502  55.9979820  49.5965195   1.5382902  14.3243098  22.2741842
   0.7168735  14.3521786  21.7835402   1.9621563  15.1601267  22.0793033
  44.8589516  17.2270954  55.1440573  44.9264574  17.1480680  56.0956001
  45.5163097  16.6189694  54.8059797  78.5874987  51.9416904  16.1776853
  78.7069130  52.7341747  16.7010760  79.2924023  51.9733477  15.5308914
  17.8689313  52.0463085  55.7755709  18.1659186  52.9548645  55.8260965
  17.8108466  51.8651247  54.8374748  30.6580949  13.4290409  29.2933965
  30.2134490  13.4880376  30.1389980  30.7426786  14.3373191  29.0033817
  25.7493472  79.0023565  44.0642214  26.1281037  79.8726749  44.1879845
  25.2594662  79.0686893  43.2445526  60.7313108  62.3797607  11.7052436
  60.7123089  63.2162952  11.2403929  59.8119688  62.1872663  11.8896031
  56.0741806  77.6221228  22.0327711  56.6907454  78.3237600  22.2420120
  55.2237892  77.9582691  22.3157358  49.3064404  56.8848085  68.3852673
  50.0932884  57.2152615  68.8187456  49.4326925  57.1020222  67.4616289
  62.7065611  45.5005789   3.4750840  63.1950331  45.9307003   4.1769528
  63.2846212  44.7985506   3.1763518  51.7798185  23.7266755  19.6319127
  51.3188171  24.1461158  20.3583956  52.5130320  24.3124223  19.4434261
  69.3094778  76.0385704  33.2684398  68.7341213  76.0342264  34.0334082
  70.1799297  76.2169075  33.6244464  53.8996792   5.1737350  67.6712608
  52.9560184   5.3174859  67.6000309  53.9831257   4.2573935  67.9350519
  42.7963543  77.6876593  40.8406734  43.0421162  78.2405567  41.5823889
  43.0380106  78.2003546  40.0693274  68.2526541  15.8644211  20.5603027
  67.7671719  15.0570655  20.7297516  67.6113605  16.5622163  20.6946731
  59.3659735  23.7596774  31.7717481  58.8623953  23.1704021  31.2101460
  58.8504362  23.8230348  32.5757647  78.4910488  64.6763563  62.3825169
  78.2659149  65.1148987  63.2030249  79.1453171  65.2461052  61.9781065
  51.6669226  23.0400157  16.8558359  51.7761707  23.4194851  17.7277875
  52.5580692  22.9618549  16.5152693  11.8908751  51.6846085  30.1803064
  11.3714850  51.0259199  29.7192216  11.6797781  51.5521812  31.1044979
  72.4399281  30.0130010  11.1196339  73.3631086  30.2572417  11.1853731
  72.4485874  29.0577102  11.0598278  24.5005274  44.0762472  56.9502401
  24.7511816  44.0995502  56.0267353  25.1821709  44.5789671  57.3961830
  78.8581753  70.2485466  49.0945339  77.9810381  70.4401112  48.7626314
  78.7224865  70.0263977  50.0156593   7.6217157  58.5090160   7.8682923
   8.0894625  59.2965031   7.5902492   7.3214298  58.7092638   8.7548357
  62.9883385  78.4441519  23.2512808  62.5970793  77.5717974  23.2049870
  62.8173304  78.7361383  24.1466784  31.2037539  38.1430888  66.7720413
  30.2834916  38.3974218  66.7037392  31.1957216  37.3606777  67.3234034
  79.5766258  49.7936916  29.6493673  80.4908848  49.5405769  29.7770214
  79.2109537  49.8244858  30.5334306  26.0466862  75.3881979  12.3371518
  25.7060003  76.0622883  11.7491329  26.3101292  75.8668423  13.1231105
  12.5196242  12.1378636  34.4730616  13.1356514  12.4808407  33.8256764
  12.2707391  12.9009235  34.9946260  74.2563009  33.8261199  56.9777727
  75.0890398  33.3999729  57.1806908  74.4193602  34.7565174  57.1327114
  49.3546438  15.5742526  22.2612286  48.5925722  15.9866345  22.6679420
  48.9846468  14.9575508  21.6295552  46.9382143  79.4519997  44.0678406
  47.0955563  79.4326925  45.0118208  47.7505302  79.1231251  43.6828518
  46.5216827  32.0605564   7.3932147  46.2901449  32.7410126   8.0253536
  46.6600943  31.2767601   7.9249442  73.5127211  21.7577934  20.9511447
  72.6798010  21.3438654  20.7250023  73.2877684  22.6730752  21.1181426
  69.0988398  34.3376088  51.3658619  68.3838272  34.0979862  50.7763147
  68.7378120  35.0395799  51.9072771  78.3417130  22.1494508   0.2321120
  78.0642605  22.7461767   0.9272174  77.5433731  21.9744706  -0.2661519
  51.2864447  32.2582388  31.6079903  51.3380527  32.1285129  30.6610274
  51.9993877  32.8655529  31.8057513  63.2618809  10.7116663  34.8906898
  62.7926731   9.8796111  34.8293829  63.7364006  10.6584859  35.7202864
  21.6656399  14.2822516  29.6157074  21.3231254  13.6072361  29.0298152
  21.3801837  15.1073337  29.2232966   0.3787832  54.4151688  47.8189039
  -0.4640221  53.9614820  47.8278971   0.7850863  54.1493607  46.9939804
  72.2997475  61.3040924   1.8749538  71.9871473  60.4039860   1.9661851
  73.0320692  61.2423086   1.2616679  40.5798006  36.7503762  14.8564279
  40.3406286  37.6766109  14.8898184  40.1795530  36.4286256  14.0486467
  59.7427845  33.5618162  15.1548815  59.0063190  33.7072229  14.5609939
  59.9927664  34.4388509  15.4456532  47.7769947  27.6641297   6.5450138
  47.1866751  27.8730011   7.2689819  47.8342581  26.7086601   6.5506959
  54.6922398  36.7007875   6.3924313  54.6769381  35.8620834   6.8534893
  54.4187689  37.3405218   7.0498383  63.5914183  13.7327278  27.9849672
  63.3043289  13.8081205  28.8949823  64.3206024  14.3485248  27.9120612
   6.9436091  28.4529757   3.5759360   6.6153753  28.4787774   2.6771429
   6.1953473  28.1596804   4.0958530  77.4852228  21.3147497  53.9603090
  76.7782211  21.9217086  54.1793585  78.2867670  21.8007278  54.1541576
  37.9609919  43.3299017  27.6367211  37.5656867  42.5008583  27.3671889
  38.8308501  43.3215189  27.2373343  83.9978218  28.9594197  36.9626641
  83.0521870  28.8186431  36.9158077  84.3771267  28.0979586  36.7887568
  64.1733122  15.1961040  54.8848534  63.6542988  15.9484994  54.6006680
  63.9749432  14.5127404  54.2446232   5.9450024  30.1912403  39.8120499
   6.1911803  30.9883428  39.3427348   6.3726312  30.2734351  40.6644630
  29.8563504   0.2108002  61.5573502  30.4616380  -0.0587349  60.8665466
  29.9624825   1.1605468  61.6116524  75.1079893  47.5475073  29.9001360
  74.7006178  46.9935942  29.2342114  75.9289980  47.8364801  29.5017982
  32.1981883  32.6790833  21.6323733  32.0570993  33.5928130  21.8802118
  32.6313519  32.2891140  22.3916650   1.5646099  43.0493593  17.0910263
   1.3953228  43.4148550  17.9593480   1.6494791  42.1076298  17.2399426
  69.9794865  45.9598637  11.8378353  70.7186079  45.3980637  12.0708823
  69.7850609  46.4448452  12.6398456  54.5636463   4.1295990  17.9229712
  55.3080034   4.2995358  17.3456585  54.9484158   4.0644372  18.7970066
   2.1325104  17.3248136  53.8609982   3.0621901  17.5522363  53.8753557
   1.7692746  17.8467548  53.1455517  80.4784012  37.2200036   8.1605864
  81.0261822  37.4337626   7.4052835  79.5991278  37.4993515   7.9054958
  50.4714775  14.7936046  66.0851479  49.8872566  14.2206359  66.5817642
  50.7334614  14.2701626  65.3277826   6.8148834  18.8389635  11.7757356
   7.2416383  19.4490635  11.1741626   6.7564708  19.3187237  12.6019621
  73.6400604  51.6029167  43.3811188  73.3891630  51.6553879  42.4588776
  74.1186810  52.4153566  43.5457230  79.7961569  39.2259693  38.9285350
  80.4868412  39.4224858  38.2956243  79.0000010  39.1595721  38.4013224
   8.8907975   3.5705814  28.4615064   9.2359227   3.2179636  27.6412749
   9.0082204   2.8625140  29.0948200  64.4443941  73.7572622  50.6729937
  64.7545099  74.0263653  51.5376568  64.8234415  74.3988514  50.0722265
  60.8018541  58.0714798  42.6061821  60.9704590  58.7081909  41.9116306
  60.1112556  57.5100327  42.2539282  51.2638569  53.4967422  66.7141676
  51.8301439  52.7379084  66.5737343  50.5937862  53.1861305  67.3230696
  76.4271069  57.3253441  27.9243279  75.7149839  57.2930288  28.5631275
  76.0180664  57.0725870  27.0966601  68.0184221  27.0187998   3.0267155
  68.4171629  27.7893233   2.6223284  67.0771122  27.1467233   2.9092309
  83.0669308  17.2462904  20.9031034  83.6243534  16.7102611  20.3390217
  83.1990814  16.8878365  21.7807579  26.4391708  19.4607735  30.7009339
  27.0772767  20.1004124  31.0170317  26.6342235  18.6639941  31.1942172
  22.4780560  52.8313398  40.0949001  21.9363022  52.0949125  39.8113298
  22.2211099  52.9813576  41.0046816  20.5753779  59.6858311   3.7191269
  20.1024199  59.2315865   3.0218428  21.3925624  59.1962290   3.8125834
  18.8278067   9.1629267  24.9868107  19.7374642   9.3785268  25.1924133
  18.3685970  10.0019765  25.0235987   2.6426530  62.3135138   5.4317194
   3.5928622  62.2761869   5.3224444   2.2970809  62.2683382   4.5402202
   2.8004122  49.5630407  16.6815925   2.4727336  49.3916798  17.5644827
   3.2174268  50.4224014  16.7434871  79.2330933  46.7393064   7.9344094
  78.3901548  46.5000677   7.5491095  79.4923306  47.5343418   7.4686319
  38.7134337  16.7785335  66.8244410  39.3360782  16.8260694  67.5498962
  37.9213667  17.1977556  67.1607685  39.1591501  60.0197935  25.9318852
  39.3324184  60.5985117  25.1893926  39.0639663  59.1510868  25.5413461
  75.7174826  63.5206938  66.8342686  75.0150061  63.6164284  66.1911535
  76.4653969  63.2054090  66.3268709  58.3695841  13.2594717  16.1582255
  57.7270699  13.6002886  16.7805183  58.4042311  13.9183390  15.4647374
  32.8754401  61.1013699  15.4195702  32.6959562  61.1477423  14.4804931
  33.7330627  60.6804419  15.4790044  43.2939529  67.6178408   0.9401963
  43.1574917  68.0024767   1.8060283  43.1164694  68.3333158   0.3295968
   1.6435213  71.4708376   0.8668222   1.4676966  72.2097111   1.4493871
   2.2897032  71.8048716   0.2446481  44.7881651  63.2411337   3.2484990
  44.6033669  62.4780655   2.7009547  44.1238403  63.2085276   3.9368594
  77.9735851   7.5726837  30.4545093  77.3944139   7.6853055  29.7007823
  77.8674984   6.6544044  30.7029867   3.1765345  51.0383749  54.5961046
   3.1321484  50.2506065  55.1380301   3.1068426  50.7153320  53.6977625
  78.8341475  58.5931635  62.6707458  79.3399954  57.8025961  62.4827099
  78.2423401  58.3363056  63.3778667  57.7494287  39.9798489  42.0551109
  57.5832844  39.0453887  42.1792698  57.2442770  40.2114534  41.2757444
  29.6504140  63.8524485  49.6242380  28.7418175  64.0098858  49.8809385
  30.1476574  64.5376396  50.0708818  72.6218796  13.5915434   4.8953503
  72.4307060  13.2227314   4.0329918  72.3635244  14.5105636   4.8254314
  26.0384917  78.8984394   2.9170832  25.4246426  78.5319328   3.5535541
  26.2306786  78.1721210   2.3239903  31.6446519  79.5097399   1.6238798
  30.8538961  78.9945316   1.4642021  32.3190975  78.8591194   1.8189393
  76.8799353  48.5956907  52.2109461  76.3066769  49.2462873  52.6163197
  76.3809729  48.2705784  51.4615631  62.2352076   6.6614282  20.4448795
  62.4467754   6.4849514  21.3615727  63.0810642   6.6481298  19.9970078
  16.9984734  59.4966125  25.9944081  16.9062436  58.6275244  26.3848019
  17.5843215  59.9652672  26.5888667   0.4068818  41.0443306  49.0480614
   0.0053455  40.8601761  48.1988907   0.6917047  40.1886702  49.3689251
  67.1626759   2.6357526  48.1918001  67.2794771   1.9549738  47.5291300
  68.0432606   2.7911219  48.5333538  20.1482081  59.2750168  20.4413438
  19.8915374  59.2305231  21.3624144  19.5857310  58.6352730  20.0047898
  71.5396929  16.1303926  58.8756609  71.3618565  17.0549345  59.0483713
  70.8969879  15.6596696  59.4063044  47.8573799  57.8535557   0.9050888
  47.0326233  57.3806524   0.7938664  48.2093668  57.5294924   1.7341337
  79.4903040  59.6197319  43.9120150  79.0921974  58.8230944  44.2628860
  79.7298956  60.1288462  44.6863747   1.6803390  29.5612621  55.8948755
   1.3353288  28.7688351  56.3062811   0.9361384  30.1628304  55.8722258
  69.3577051  27.0535278  61.8978691  69.2409611  26.1037064  61.9189644
  70.0728941  27.2206283  62.5117207  84.0080452  35.1320934  62.8716516
  83.1710339  35.5288053  63.1130314  83.7682915  34.3617344  62.3565817
  44.3227816  65.0858402   0.3982572  44.1077709  66.0034895   0.5653659
  44.1636181  64.6465731   1.2336887  13.1037545  72.3511553  41.0853100
  13.8620627  72.7652025  41.4973402  12.4504507  73.0485868  41.0304022
  63.6357212  22.2222519  14.4660103  64.1839218  22.2548914  15.2500021
  63.1562901  23.0506897  14.4743311  61.5666294  39.7362709  63.2937384
  62.4053335  39.4677973  63.6688852  61.1506367  40.2539301  63.9830971
  63.5178804  18.4123516  44.5500135  63.4563637  17.5825989  44.0767717
  64.3244219  18.3379340  45.0600958  10.8550406  27.7042675  13.5453784
  11.5093994  27.0668578  13.2594478  10.3576159  27.2486496  14.2245030
  54.2373896  66.5675831  55.3676510  54.1714239  67.2825623  54.7346544
  53.4253120  66.6183567  55.8718109  82.8286266  41.5369654  14.6989059
  82.7454090  42.4519777  14.9673522  83.7278843  41.4618683  14.3796408
  22.2100163  33.4717774  66.8322086  22.2365093  34.1633916  66.1709976
  21.6566801  32.7926517  66.4464140  66.9740486  65.5182314  13.2750475
  66.5524387  66.3756323  13.3328736  67.9060173  65.7010698  13.3943546
  69.1307402  35.4667449  55.0980854  68.7225485  35.8687067  55.8649206
  69.6490765  36.1697626  54.7065210  80.6420135  60.4079247  58.4917212
  79.9671936  59.9486876  58.9916801  81.1677647  60.8559608  59.1543436
  55.7860327  48.3458567  12.8368258  55.5855083  47.4250555  12.6690614
  55.9248257  48.7229013  11.9680309  26.0263777   1.3767591  49.1174698
  26.2760258   1.5684476  48.2134962  25.9434199   0.4235891  49.1460514
  23.1368971  58.3367109  60.2920341  22.2520471  58.1542873  59.9758148
  23.3052444  57.6529694  60.9404087  55.7443380  20.2181792  20.2367210
  55.1831436  19.5554245  19.8341691  55.6392813  20.9905219  19.6811306
  70.7231808  75.9417677  61.6973066  71.4998293  75.7873249  61.1595297
  70.7456064  75.2471399  62.3554993  22.4355721  57.8016901  51.9690609
  22.8207350  58.6474371  51.7397165  23.1700039  57.2867823  52.3032904
  36.7425323  70.5271292   1.3994320  36.7564011  70.0497293   0.5698952
  37.0494127  71.4056683   1.1753345  82.9148674  24.0153265  29.4735980
  82.2322941  24.6590161  29.6633220  82.4729443  23.1693101  29.5456481
  82.7357006  53.2083321  56.1235762  81.8078136  53.3209801  56.3299036
  83.0146885  54.0647173  55.7995272  54.1102600  27.0664406   6.8569422
  54.1559744  27.8109717   6.2570953  53.1804371  26.9872499   7.0699894
  64.2601299  24.5425940   5.0281370  65.0338602  24.9751616   5.3893262
  64.5444584  24.2171884   4.1740301  58.3392620  47.7659369  40.4157639
  58.8808346  47.0389843  40.1083994  57.7691746  47.9700422  39.6744347
  37.2190356  57.3878717   6.1509812  37.6873231  57.2019053   5.3371286
  36.5154338  57.9828835   5.8918709  62.4745941   2.5693327  55.0538063
  62.7147961   1.6601658  55.2325487  61.9489288   2.8312185  55.8096647
  66.1498594  14.2380142  21.0075545  65.3456450  14.7190666  21.2026525
  65.8633232  13.5013640  20.4676700  48.2810497  75.1395512   4.0842399
  48.7859154  74.6181345   4.7083151  48.3086872  74.6338463   3.2720035
  13.4850490  60.7759476   1.4696965  13.7117267  61.4804268   0.8626029
  13.6150205  61.1570454   2.3380888  56.5959072   8.2033259  19.2778039
  57.0884752   7.6099092  18.7108219  55.6950188   8.1460625  18.9594448
  54.2836905  17.0634878  29.7545266  54.0000105  16.6837561  30.5861306
  53.7770510  16.5941930  29.0917230   1.8902476  60.4824972  37.4497533
   1.4552186  60.9881163  36.7632151   2.7027047  60.9591436  37.6199102
   0.5736176  73.0646801  59.1236973   0.1390481  72.3011923  59.5037889
   0.6588220  73.6793089  59.8525333  22.9273248  73.0952883  30.7489514
  23.7329960  73.0844355  31.2656784  22.5157499  73.9321566  30.9645677
  27.4983239  69.8586559   3.1920373  28.0692124  70.6234264   3.2657966
  26.6215754  70.2246141   3.0753398  36.6865492  28.8502240   7.6904875
  36.8922925  27.9552460   7.4204570  35.9263110  29.0913153   7.1611995
  17.5590146  41.2574959  60.4274368  17.0584393  40.4515123  60.3007746
  17.5231385  41.6976833  59.5782089   7.6997399  50.8612537  37.3778176
   6.9778866  50.6299257  36.7933106   8.4889609  50.6693840  36.8713117
  82.7439594  25.5838633  63.0664968  82.0333385  25.9805346  62.5626135
  82.9007149  26.1979437  63.7838268  68.0358267  32.3629355  18.8359785
  67.7468204  31.6655064  19.4244504  67.3242378  33.0028582  18.8553286
  69.7523975  42.2788286  33.3148360  70.1957703  41.4539242  33.1168866
  70.3298426  42.7171326  33.9398766  50.2123499  13.8989627  28.8035917
  49.5535946  13.2351923  28.5994363  49.8109341  14.7253621  28.5349631
  71.9605350  40.5428886  47.3799038  72.4058867  39.7842050  47.7571201
  71.7641163  40.2823591  46.4800310  60.1761484   3.8247952  63.1222868
  59.4236851   3.7298763  62.5383234  60.5032635   2.9327461  63.2383728
   5.4965776  52.9306841  65.5298471   5.0519156  52.5689697  66.2964439
   5.0679559  53.7732887  65.3797436   1.2551157   2.7735969  24.2818451
   1.5234122   3.6896893  24.3527198   1.2666486   2.4502636  25.1827073
  57.5716448  69.5906639  49.2059231  56.7795944  69.0767622  49.3633747
  57.4096823  70.4226589  49.6506548  81.4806557  14.4076264  19.8669386
  82.3948956  14.2147958  20.0748444  81.1810684  13.6441100  19.3734610
  21.1725664  47.1032047  66.2921286  20.4076767  46.7691898  65.8235025
  20.8159781  47.7460384  66.9051886  68.6325169  75.8629131  46.7627096
  69.1637850  76.0747194  47.5302505  68.9260101  74.9899864  46.5017557
  63.1119251  58.7151003   7.8064752  63.1209469  59.5147848   8.3324546
  64.0361691  58.4969187   7.6864684  67.4399662  40.5701017  47.4986219
  67.6803875  41.4890575  47.6167393  66.7622614  40.4134035  48.1561899
   4.9289984  14.8243880   6.6334164   4.5566985  15.2249396   5.8478069
   4.2348948  14.8926854   7.2889984  76.6589022  32.9665279  54.6919584
  76.3523912  33.8037157  54.3435335  77.5285959  32.8516984  54.3089724
  80.0909233  57.7370214   5.4125482  80.2772617  58.2047415   4.5984545
  79.9088478  58.4279823   6.0494608  14.3308687  35.2232003  63.2392406
  14.9308670  34.8245883  63.8695908  13.5101080  35.3249764  63.7211370
  13.2966232  75.0639153  35.6751800  13.5993755  75.9622908  35.5429387
  12.3419333  75.1321840  35.6869578  54.9041033  12.8757226  30.9226894
  54.3516207  12.8328359  30.1422071  54.2932987  12.7834713  31.6538763
   0.2767897  70.5322886  38.7682652   1.1119135  70.8618498  39.1002131
   0.3238951  69.5852709  38.8993120  71.3500508  64.5130324  68.7436509
  71.8710287  64.0843010  69.4226214  71.5427359  64.0194583  67.9464765
  80.2278519  33.5460615  61.9503975  79.7843552  34.3815207  61.8035984
  80.9822655  33.5686803  61.3616800  32.9795074  71.9901896  65.6417131
  33.2982373  72.8920650  65.6771660  32.2341299  71.9758034  66.2420797
  27.1066570  30.1895070   7.6635993  26.9086432  29.2535615   7.6315618
  26.8940496  30.5094481   6.7868620  35.2509880  73.7142038  38.0815339
  34.7017169  72.9666758  37.8454494  35.9559727  73.3367395  38.6076069
  12.7590013   7.3764801  57.5376701  13.4841859   7.6777297  58.0850172
  12.3368275   6.6909778  58.0554438   3.8731426  68.9576149   1.0410620
   4.8183417  69.0241671   0.9054109   3.5859388  69.8610973   1.1732080
  64.3686867   9.5185041  16.3834345  64.3665361   9.9797130  15.5446768
  64.8419523  10.1020944  16.9764555  11.2078547  67.6860714  58.5914278
  10.5136740  67.1265078  58.9396191  11.3629246  68.3321571  59.2804575
  69.2232704  10.9813261  32.6428509  68.8443708  10.1265883  32.8480053
  69.4039869  11.3743854  33.4967113  63.6487532   6.5270686  34.8642325
  63.2797241   7.2727019  34.3908596  63.6052418   6.7829782  35.7855606
  21.0819006  49.9595928  48.8549042  21.4370561  49.9478674  49.7437000
  21.0256863  49.0366983  48.6072445  55.2040005  24.1088939   8.6813730
  55.1978254  24.9052286   8.1502956  54.9254560  24.3982792   9.5502245
  80.4098129  49.9999571  43.0309772  79.5476246  49.7734880  43.3796644
  80.3400326  49.8312235  42.0913553   7.6913995  39.9409199  67.5379276
   6.7641163  39.7757053  67.7084637   7.8741038  39.4661665  66.7270851
  12.4450529  15.8581614  62.2201920  13.3411098  16.1224914  62.0117617
  12.3993719  14.9387693  61.9577789  69.5815516  10.4072714   1.1177213
  68.8642883  10.8715165   0.6861597  69.2920828   9.4954324   1.1491621
  42.9902506  30.4556775   5.5978161  43.7283516  31.0418153   5.7647973
  42.6860046  30.6969142   4.7229031  63.4464121  32.9406810  57.4622011
  62.9752827  33.6625791  57.8782940  63.1370068  32.1581793  57.9184818
  43.1894207   7.0446229  27.2564340  42.7930546   7.8583479  26.9450235
  43.9257860   6.8946707  26.6635489  66.1312723   5.4511756  17.0453906
  65.6292295   5.4446697  16.2304413  67.0315218   5.2726293  16.7735434
   3.3588240  22.7340913   8.6206490   4.3062934  22.8702116   8.6227804
   3.1006536  22.8324938   9.5371079  79.9629021  50.8113194  56.9745207
  79.9612379  51.7183876  56.6688156  80.7931519  50.4539442  56.6595697
  29.0185404  16.0427010   9.4221157  29.5938277  15.6557238  10.0820613
  29.4464612  16.8651307   9.1839498  64.4173145  19.4407547  16.3875067
  64.1711140  19.1920638  15.4965699  64.3864536  18.6217427  16.8819749
  43.2490730  77.1626234  15.1013696  44.1294765  77.2027969  14.7278666
  43.1509638  76.2540627  15.3861952  78.1101418  62.2393274  59.1664076
  78.9425325  62.4052858  58.7238979  78.3245373  62.2687435  60.0988197
  11.2981200  47.1268177  39.8937774  11.9151402  46.4263105  39.6820998
  10.5534756  46.6774178  40.2934980  71.8283892  11.5572262   7.0178354
  72.3060417  12.1800029   6.4699048  72.4856329  10.9100378   7.2735977
  27.9630876  70.8066654  27.8156829  28.6685824  70.2672338  27.4585819
  27.4153733  71.0161638  27.0591450  48.2348537  28.0813503   3.9406547
  47.9580688  27.9869318   4.8520854  47.6305819  27.5259686   3.4480727
   2.2091720  52.1454811   5.9022915   1.7230630  51.4209986   6.2960690
   1.5325014  52.7357006   5.5706495  64.3110657   8.6067754   3.9273015
  63.9588404   9.3983710   4.3341708  64.0916109   7.9046923   4.5397958
   2.7461848  68.7043047  63.1891489   3.5956830  68.3063650  63.3794928
   2.9307276  69.3465805  62.5038338  53.3859444  60.8440781  20.8922148
  52.9470825  60.0460052  21.1866856  54.1827631  60.8881998  21.4207697
  28.5043359  30.1576495  63.0843830  29.1206789  30.0370765  62.3620129
  29.0352130  30.5183744  63.7945080  23.0778837  26.4144564  24.8779869
  23.3498907  25.8731818  24.1368604  22.2924805  25.9828591  25.2142859
  56.6968489  31.8305612   2.2123185  55.9308195  31.3451290   1.9060802
  56.3576412  32.6973987   2.4353890  29.3628430  73.7550688  64.9006271
  29.3773508  73.9273834  65.8420801  28.9928484  72.8756189  64.8237801
  43.5878372  66.9638586  31.1126256  43.6992645  67.6522160  30.4568934
  44.0147448  67.3087692  31.8968582  34.5581007  34.4295859  27.8082252
  34.0050125  33.8712025  28.3546090  35.2587366  34.7183657  28.3929873
  32.6080108  31.6977930  12.9511821  32.1129680  31.1253977  13.5372961
  32.0158243  32.4285269  12.7734864  42.5613594  65.4542828  28.4044623
  43.0468702  65.6083202  29.2148829  43.0657864  64.7814131  27.9472637
   0.8292060  58.6688042  30.3568482   0.5560867  58.9493561  29.4833899
   1.0163636  59.4838428  30.8225894  35.3128052   8.5480648  17.7281272
  36.0803151   8.1862468  18.1711257  35.5893540   8.6538440  16.8178725
   7.9439342  73.2330084  28.0411696   8.1145084  74.0789080  28.4553981
   8.8129497  72.8641129  27.8831840  68.3561850  19.1846025  14.0264463
  67.8181887  18.3943117  13.9792085  67.7709866  19.8516214  14.3854165
  14.8927164  18.1918442  66.6301584  14.6468866  17.3377371  66.9855452
  15.7486928  18.0462492  66.2272453  42.2174406  73.6945295   0.4696949
  41.8392134  74.4162750  -0.0325607  42.1379280  73.9706087   1.3827613
  19.1340220   0.6526253  40.6757689  18.6439729   1.1125591  41.3573456
  18.5333180  -0.0244519  40.3643990  52.9760647  26.3795400  10.4883945
  53.7921333  26.2128139  10.9600604  52.4386597  25.6059623  10.6586885
  77.3787117  69.6470785  39.1593099  77.1835232  70.5577993  38.9385843
  76.7376089  69.1377735  38.6635041   2.5315464  77.4993229   9.9994892
   3.3467042  77.9181528  10.2757668   2.0659867  78.1792736   9.5125091
  13.3820057  15.1457870  14.1924095  14.0076435  15.5414677  14.7992420
  13.7509429  14.2847311  13.9956856  67.7899456   5.6422943  28.0302644
  67.3690557   4.7826618  28.0195022  68.0750513   5.7807082  27.1270537
  42.3588324  28.8670421  48.2392406  42.4770498  29.7933841  48.0291224
  41.9723272  28.8675046  49.1149378   9.9312770  55.7973051  56.7869759
   9.3228281  55.0776339  56.6193438  10.7980776  55.4147291  56.6508579
  32.7820539  47.6012039  63.6579370  33.0114818  46.8712425  63.0828333
  33.3263111  47.4741030  64.4350243   9.9988842  29.5059395  11.8622208
  10.3765738  28.9856458  12.5713587  10.4570401  29.2080522  11.0763514
  74.2749405  71.8928099  28.1018472  73.5785627  71.5449810  28.6588955
  73.9272499  72.7219152  27.7733254  23.2375383  54.8522806  56.0023022
  24.0074825  55.3558064  55.7379580  22.6345372  55.5054045  56.3573313
  10.1276612  70.5489731  48.0779028  10.2680683  71.4353228  47.7448797
  10.5738008  69.9829578  47.4479675  20.2805662  57.1311998  59.0881968
  19.6372521  57.1427679  59.7968912  20.6926942  56.2696886  59.1528702
  59.7204542  29.8550487  22.3945212  60.1331186  29.5139146  21.6010690
  58.8172054  29.5415998  22.3484564  18.9460349  25.3259897  43.4683800
  18.2891774  24.8039198  43.0077124  19.5006275  25.6805539  42.7734423
  51.4957476   3.0481088  45.2902174  51.1613989   3.9179397  45.0715065
  51.8593454   2.7177384  44.4687080  77.6443291  56.7578077   2.7371347
  78.4465456  57.2105932   2.4770115  77.5275040  56.9879818   3.6588734
  81.5190983  69.6059370  67.5069618  82.4539471  69.6599388  67.3085403
  81.4042282  70.1670885  68.2738686  45.6278992  30.8627152  52.8537798
  45.8462286  29.9855328  52.5389528  45.7165909  30.8047199  53.8050938
  21.2468910  30.5595112  49.4927645  21.5660048  29.8545766  48.9293242
  20.6112289  30.1359248  50.0696039  73.6519623  54.9852657  65.1282597
  73.5307312  54.3061590  65.7918453  72.8850079  54.9055815  64.5611048
  65.3711319  22.7469373  43.2216072  64.8291111  21.9848061  43.0176497
  64.9955034  23.4549451  42.6982880  11.1327910  71.8372154  13.1333542
  10.1945567  71.6803503  13.0268621  11.4061356  71.2096214  13.8024127
  76.3633823  56.8087482  61.1000204  76.0063934  56.0059834  60.7200718
  75.7782459  57.5005865  60.7914543  71.7141581  52.1554184  10.7570386
  71.8302441  53.0814362  10.9697521  70.9027386  52.1260071  10.2501214
  12.9207683  47.9657745  25.9846973  13.8001454  47.6694870  26.2195206
  12.6834285  48.5833645  26.6764235  71.4370537  23.0264306   6.4280307
  72.2515869  23.5144901   6.5487385  71.6809845  22.1128416   6.5766436
  34.2245936   3.3216497  66.2305450  34.3760490   4.2628500  66.3167715
  33.3847523   3.2548356  65.7761908  53.4068346   1.4726360  26.4278960
  54.1400146   1.5577096  27.0373535  53.4997559   0.5927029  26.0627699
   7.3656899  -0.0213263  17.2981822   7.5318605   0.8951328  17.0774519
   8.2327104  -0.3858655  17.4759972  53.4722757  13.2199109  33.6631894
  52.5666618  13.4543991  33.8659525  53.8556242  12.9906762  34.5097852
   4.2367426  69.7098064  65.7757139   3.9861241  70.5941963  65.5087280
   5.1560175  69.6338797  65.5199766  68.5266638  54.2546558  15.2920341
  68.7445784  54.3111992  14.3616855  68.9983940  54.9845076  15.6933093
  70.0749683  55.5618811  12.7595675  70.3441477  55.9160423  11.9120181
  70.7086849  55.9201813  13.3810580  15.3031766   3.9700535  58.9612198
  14.7418213   3.7722659  58.2115602  15.5020225   3.1153882  59.3436337
  60.4179907   3.1994069  56.9163752  59.7160578   2.5760818  56.7293262
  60.0228310   4.0578562  56.7642403  35.9342742  71.1259794  64.3676424
  35.0764465  71.5433836  64.2893028  36.4140272  71.4171505  63.5922146
  69.1122055  36.3490534  12.0547903  69.7615719  36.5573478  11.3830996
  69.3039989  36.9559431  12.7697265   2.2113903  67.1981382  66.5738964
   2.5400594  67.9996347  66.1667013   2.7918065  66.5094328  66.2498045
  50.8719110  15.9856844  57.2509384  51.4213467  15.7203150  56.5134192
  50.2318287  15.2794552  57.3390579  72.1456051  47.6937628   3.6330050
  71.7657661  48.4652233   4.0534845  71.9038153  47.7801323   2.7108824
  42.5703049  38.3162355   0.3871214  42.6499128  39.1782951  -0.0212259
  42.8154850  38.4605718   1.3010611   4.8492357   0.4382817  10.0170958
   5.6980675   0.0029061  10.0956059   4.4867590   0.1097918   9.1943341
  56.4632654   2.8003189  39.7365379  55.6933784   3.0804181  40.2315617
  56.5240002   1.8592033  39.9003792  48.1016159  75.6058025  67.5373697
  48.2003021  74.7788715  68.0092525  47.6475239  76.1805105  68.1536055
   8.5358632  71.2545824  67.1063900   8.7758094  70.3593254  67.3454905
   7.7592134  71.4431906  67.6331472  37.8086686  78.9924335  22.5437117
  37.0704198  78.4799671  22.8732538  38.3275509  78.3670378  22.0378780
  30.7745337   1.0560836  57.0490360  31.1194348   0.1827421  56.8631601
  30.2606273   1.2807253  56.2733603  73.2468605  34.9010348   6.9740808
  72.5442076  34.5900679   7.5448740  73.0024242  34.5904231   6.1022997
  44.1018581  73.5337782  41.3317776  43.2279062  73.8914537  41.1752272
  43.9499569  72.6110363  41.5360069  49.7470093   9.5884979   6.9992125
  49.2530680   9.1231441   6.3241601  49.7440434   8.9949584   7.7501678
  55.8207750  62.6330709  49.6298361  55.4424000  61.7983246  49.3536806
  56.6600847  62.6787710  49.1719103  46.6784334  12.6943564  56.2518406
  46.5932655  13.5863113  55.9150982  47.0232534  12.8047764  57.1379232
  69.4893360  66.2311792  68.0656576  70.2237463  65.6418371  68.2375383
  69.3571758  66.1794138  67.1190357  72.3483610  27.3207045   8.2197428
  72.7019739  26.8143415   7.4884522  72.7903748  26.9672608   8.9917099
  38.1536722   1.4412749  57.3905516  37.2169232   1.2485448  57.4304104
  38.2734871   1.8735886  56.5449858  69.9205160  25.3340364  15.3844106
  70.0381565  24.6004868  14.7808397  69.3653202  25.9504461  14.9068856
  80.1770687  30.8886719  15.8139014  80.8755207  30.9551287  15.1627696
  80.0959492  31.7737341  16.1693108  26.4179206  18.8528442  63.4855366
  25.6909561  19.4647264  63.6011028  26.4336133  18.6743999  62.5452471
  29.0727639  73.8183355  14.1010344  28.8312054  72.8991270  14.2147458
  29.1202545  73.9379311  13.1525230  77.6187229  12.9589629   7.5996161
  77.4626541  13.4012771   8.4340215  77.3568821  13.5982084   6.9370192
   1.0963517  56.2402582  60.8544016   1.3782708  56.9633007  60.2940798
   0.5807031  55.6769943  60.2772808  64.4620562  23.1604934  11.4706683
  65.0171137  23.2876921  12.2400594  63.8791180  23.9197063  11.4677203
  75.2315140  45.4987955  11.4017582  75.2761650  46.4291763  11.6222680
  76.1322117  45.2614212  11.1812353  38.4525990  14.0071166  51.3575602
  37.5283408  13.8041544  51.2133837  38.5340643  14.0908468  52.3076057
  15.8440864  60.0236988  29.3039441  15.7828248  59.3578053  29.9888253
  15.9180939  59.5245743  28.4905362  81.1990833  76.7237091  22.0704055
  80.7566547  77.3085690  21.4552402  80.4887772  76.2528801  22.5063109
  36.6953969  74.8265362  57.2607279  37.0938516  75.5994844  56.8607044
  37.3685026  74.1491222  57.1953678  67.1773434  10.6540465  51.0580540
  66.5169525  10.3229260  51.6667223  66.6923475  11.2333775  50.4703522
  61.0512590  56.3985395   4.4589427  60.9381914  57.1200514   5.0777066
  61.5814924  55.7576656   4.9326125  55.4453564  12.5364161  10.8470750
  55.6728458  13.4507465  11.0158408  55.1899433  12.1913135  11.7025852
  26.8501830  31.9682479  63.8398314  26.0652375  31.6654778  64.2963648
  27.3414660  31.1685085  63.6519670  40.9711790  79.4159412  22.3018050
  40.3028202  78.9447308  22.7992868  41.8011522  79.1199255  22.6756430
  40.0431490  27.8740978   1.4634076  40.5032587  27.4370432   0.7468081
  40.6855917  27.9133320   2.1719016  48.1598568  73.6066961  13.7645662
  47.7647114  74.2445898  13.1702745  47.9182100  72.7561188  13.3980227
  76.8337250  38.0195236   9.4048184  77.1620846  37.8584385   8.5202503
  76.3957357  38.8686585   9.3467778  81.6338539  64.3532896  41.0171890
  81.5841579  65.0504732  40.3632021  81.8534184  64.8046446  41.8322372
  52.6114750   9.1210735  53.6300278  52.8113842   8.8574690  52.7318192
  53.1248140   9.9174947  53.7657881  58.6424351  28.8430214  14.7029972
  59.1187096  29.6653438  14.8177910  58.8053608  28.3570123  15.5113792
  49.0379047   8.9116329   9.8276877  49.4625664   9.7614294   9.9448979
  48.1417084   9.0472603  10.1353765  10.5669343  47.6186514  37.1911240
  10.8822727  47.6412821  38.0946064   9.6216035  47.4910641  37.2705102
  75.9299707  25.5883741  15.2935588  76.6125965  25.6356883  15.9628975
  75.1781130  26.0317135  15.6864870  28.0395412  25.0229430  36.2956524
  28.1342244  24.2478895  36.8493295  27.0948410  25.1698184  36.2487316
  27.7466130  77.2907162  64.7030401  27.9794979  78.1697798  65.0017881
  26.9751930  77.0585918  65.2200174  51.3768482   5.7329303  25.8268237
  50.7249498   6.1411512  25.2570724  51.9225740   5.2158636  25.2343249
  56.7340374  35.2777696  10.9645331  56.2415361  34.9731255  10.2023876
  56.1467171  35.8975697  11.3971245  22.7173352  72.8326797  62.1346521
  22.7722359  73.3492565  61.3306856  23.6095548  72.8335762  62.4813175
  23.9041114  47.8427458  65.8736706  23.7513781  47.1805382  65.1995945
  23.0538201  47.9515123  66.2995911   7.2607976  35.8428764  67.7936745
   6.3258195  36.0474396  67.8078604   7.6815975  36.6632843  67.5365925
   3.5565415  60.0376415  32.6932859   4.1891021  60.3953838  33.3162785
   2.7190793  60.4192352  32.9564881  80.6322575  16.0076153  63.5238552
  81.0608578  16.3623631  64.3027592  80.9422493  16.5609372  62.8069353
  34.1522884  15.9505892   0.4671807  34.1360497  15.5933511   1.3550708
  33.6894536  15.3002858  -0.0611392  23.0028152  17.1182919  28.5042715
  23.3134890  16.2146091  28.4488606  23.1994867  17.3845303  29.4024205
  10.4604077  75.5119658  54.4071007  11.3984644  75.3593826  54.2930889
  10.0771880  74.6353722  54.4380760  50.9267712  74.3734980  31.4614964
  51.2686968  74.5629740  32.3352337  50.0451660  74.0348959  31.6175413
  36.8845248  22.7957463  29.1320753  37.0370603  23.2584238  28.3081245
  37.1096730  23.4330368  29.8098636  66.1475563  34.2344713  18.8911450
  66.0229778  35.1760721  18.7724054  65.7345152  34.0425110  19.7330356
  82.0646572  44.8104572  16.1798334  82.1238899  45.7345772  15.9375024
  82.4085999  44.7743750  17.0723772   5.1214874  60.0029087  35.3004122
   5.6267524  59.3687248  35.8090854   4.8769054  60.6775999  35.9338164
  27.9785085  62.7139235  47.5650358  28.7779284  63.2214117  47.7051067
  27.3369455  63.3564234  47.2620106  53.9657259  18.3928812  22.7869630
  53.0928040  18.7752402  22.8766251  53.8095427  17.5228274  22.4197531
  12.9649317  25.9798121   4.1660303  12.6366282  26.3615751   3.3519632
  13.6523676  25.3750730   3.8868231  47.6615524   5.2750528  65.1760340
  46.8030691   4.8691535  65.0556850  47.6607752   5.5716747  66.0861111
  78.6462831  73.2039452  55.0708246  78.9842558  73.7655306  55.7684135
  79.4223166  72.9477024  54.5724869  38.6001348  15.3726530   9.5609766
  39.2485070  15.0720179  10.1977384  38.2333851  14.5680332   9.1944861
  23.3970928  78.4616327  24.0657401  23.3577275  77.6760101  24.6111536
  22.7982187  78.2805347  23.3413172  72.0259905   8.2100248  15.7795894
  72.5380039   8.9295590  15.4103458  71.8609142   8.4734488  16.6849017
  51.1108303  22.7576709  59.0329170  51.5219641  23.3477211  58.4012222
  51.6723204  21.9824672  59.0371943  75.4310560  34.2879152  11.4835906
  74.9242306  33.4812379  11.3906860  75.2043915  34.8036551  10.7097256
   4.6078300  32.3904204  53.5834646   3.9579314  32.7314353  52.9689980
   5.3652394  32.9655051  53.4746504  33.6332989  25.7268977  52.2402096
  34.1945696  24.9686480  52.4022770  33.7606168  25.9252048  51.3124752
   9.4181770  66.4004660  60.4130030   9.7132164  66.0285187  61.2441730
   8.9847273  65.6736040  59.9657631  47.5477934  75.8396530  27.4997473
  47.9830408  76.6920471  27.5144362  47.5565386  75.5821133  26.5778852
   3.6677825  61.7979240  40.2487707   3.4561744  61.1185122  40.8889675
   4.4526771  62.2200298  40.5980587  21.8688250  66.0413074  66.2973547
  21.7016816  65.0993490  66.3290262  21.0119724  66.4308929  66.1233997
  31.3167167  19.3421316  16.6647804  31.5471649  20.2708483  16.6894972
  30.9472895  19.1639245  17.5296497   6.3830405  11.2358522  19.9217820
   6.6610277  12.1040654  20.2136064   6.9192278  10.6286943  20.4317760
  17.1984136  48.7397242  58.6479712  17.8465974  48.5569525  59.3281794
  17.3314214  49.6627522  58.4321976  73.5409355  35.1216030  35.1218629
  73.4058285  36.0339785  35.3778863  74.1466331  34.7760201  35.7775569
  38.6878514  21.2008858   4.8478097  39.5245910  21.2491369   4.3854535
  38.8102913  20.5040479   5.4925251  71.7575645  63.2737684  26.2771511
  71.3502312  64.0555906  25.9042335  72.6896381  63.4871435  26.3211799
  58.9285517  33.5960340  10.5717874  58.8798428  32.6498270  10.7079828
  58.0241013  33.8973022  10.6580412  22.7215648   8.0414504  66.2833738
  23.5389733   7.9555959  66.7739916  22.9182172   8.6829442  65.6007004
  58.9603662  48.5208607   7.4727499  58.4565544  48.3934450   6.6689026
  58.3386040  48.9137077   8.0853754  81.7421150   2.7620235  10.2795136
  82.5088406   3.3284488  10.3662682  80.9955883   3.3569306  10.3503716
  15.4167843  60.3836727  54.1372967  16.2170398  60.5728865  54.6272182
  15.5543661  60.7970095  53.2849741  45.2551365  46.9187307  17.4809229
  44.3163300  46.7329931  17.5003397  45.4510498  47.0660925  16.5556479
  20.7928371  13.3246398  53.6613131  20.2573776  13.9270222  53.1449270
  21.5514684  13.1428993  53.1066227  30.6526375  61.5563488  48.3547258
  30.2541113  62.3641348  48.6785841  30.2322745  60.8618307  48.8618422
  50.6223297  73.7765026  26.1329865  50.1895380  73.3655548  26.8813491
  51.4988232  73.9918327  26.4517713  28.1185865  23.3252263  16.9562149
  28.2196116  22.8273726  17.7674901  27.4422169  23.9726639  17.1551585
  78.9774561  36.9641280  24.1199017  78.8494539  36.7421722  23.1976318
  78.4716034  36.3063145  24.5970035  52.7443123  18.0353630  57.7944565
  52.1017742  17.4477792  57.3968077  52.2990227  18.3924651  58.5628462
  65.2065897  51.8734980  15.2346992  65.3197622  52.7578259  14.8862958
  65.1768684  51.9920731  16.1840606  12.7376914  71.9274092  22.3057485
  11.8061864  72.0023298  22.0985794  12.7669692  71.8726254  23.2609296
  11.9247806  35.8314300  64.8752356  11.8176246  36.7739391  65.0033951
  11.0717797  35.4604912  65.1011181   3.5183233  67.2042131  14.1581559
   3.0609784  67.9902697  13.8595200   4.3931916  67.5117064  14.3954015
  26.0254765  67.0268250  32.0356059  26.0836339  67.8403759  31.5346241
  25.2615023  66.5772295  31.6744375   7.1179271  26.3629532  13.5708582
   6.3962555  26.1385489  14.1582799   6.7418849  26.2963343  12.6931417
   3.4481493  32.2163820  67.0596838   2.9235843  32.9154158  66.6692781
   3.1668699  31.4229155  66.6041374   3.7169561  40.9436321   3.8223532
   3.8791150  41.8520498   3.5679585   2.9506293  40.6847286   3.3105496
  60.3105450  26.1001515  13.2711387  59.8927116  26.6993809  12.6526165
  59.7207594  25.3472877  13.3108449  14.8544121  47.4621439  66.8029356
  15.5838251  46.8427324  66.8257618  15.1169872  48.1634521  67.3991299
  15.9334815  72.1899700  48.5736990  16.1412609  71.6326523  49.3236685
  15.2104890  71.7415190  48.1350565  19.8222578  67.3606300  18.6285973
  19.7833824  67.1005440  19.5489633  20.2237749  68.2294416  18.6419785
  16.9881487  11.9937027   8.7803537  16.1199641  12.3347044   8.5654002
  17.4701667  12.0277464   7.9540777  46.1276007  21.4379525  68.6282253
  45.6925201  21.6868782  67.8127670  46.6491175  20.6694674  68.3965302
  56.4401150  76.9298601  15.8673143  55.8339643  77.5964975  16.1904299
  56.2464905  76.8631029  14.9322820  55.1054382   8.3900285  27.5862002
  54.8798323   9.0124536  28.2775187  54.2827415   7.9420513  27.3894262
  30.3241968  36.8811631  28.6407804  30.7649136  36.2235165  28.1027269
  29.3915129  36.7005920  28.5236216   4.9972892  49.9751568  58.3478069
   4.9097842  50.8968830  58.1049156   5.5014801  49.9886751  59.1613436
  12.8051257  45.2336216  14.4251156  12.0587194  45.1057100  15.0105619
  12.7326417  46.1445332  14.1401267  76.9383097  48.3460236   5.3513896
  77.3822308  47.5114441   5.5018592  76.6235113  48.6091995   6.2161863
  53.0902719  19.5186830  47.4488068  52.6198578  19.9068701  46.7110729
  52.7278614  18.6361361  47.5262737  66.1477566  21.8596458   1.5685956
  66.1160088  21.8983841   2.5244844  66.3027954  20.9359097   1.3713396
  46.5067673  25.8605790  60.1053476  46.6678190  26.6007495  59.5201635
  45.5546665  25.8328581  60.2000284  37.4938273  39.7214103   5.5812931
  36.9179821  39.1262507   6.0613132  38.2039642  39.1635489   5.2639180
  71.5739727   8.1147945   6.2554795  72.3387194   7.5432485   6.1866969
  71.7082453   8.7771553   5.5776292  30.8991241  66.1023045  67.0941210
  30.1411366  66.6743851  67.2141552  30.6243539  65.4785013  66.4221048
  73.2586479  21.9593835   2.3588644  72.8371239  22.6872540   2.8157604
  72.8414440  21.1767602   2.7189642  38.6192989  62.1847916  44.1753292
  38.0718160  62.1868181  44.9604940  39.2024064  62.9354763  44.2879868
   7.3523796  32.5593066   5.2446550   8.2846403  32.7026296   5.4076868
   7.2574925  32.6548982   4.2969784  81.7481327  28.0659270   5.1397198
  80.9951305  28.5639143   4.8215401  81.5378284  27.8710628   6.0529733
  14.8163366  10.5091941  61.5039253  14.8220015  11.2462866  62.1145773
  14.2309356   9.8683411  61.9074631  56.7144728  64.5702410  65.9789801
  56.4650393  64.1028166  65.1817799  57.0993233  65.3889275  65.6661272
  51.3186264  53.3348513   9.7121203  52.2607183  53.2028198   9.8182577
  50.9196329  52.6046991  10.1853180  30.1234484  55.1229525  39.9244475
  30.0507450  54.2001486  40.1681185  29.4521761  55.2471066  39.2534685
   3.8218275  37.6116371  14.9562192   4.7062919  37.9692841  15.0339615
   3.9494520  36.6638613  14.9154162   2.0433867  54.2902565   7.8947872
   2.0444413  53.5296011   7.3137259   2.9656148  54.5352650   7.9702842
  77.2545481  30.0699973  29.3765521  76.9570541  30.9318900  29.6678829
  77.7697420  30.2478027  28.5896659  68.7420845  13.5232878  40.9997416
  68.1631184  13.8699174  40.3208637  69.5602894  13.3312404  40.5416059
  25.1593208  67.2215891  59.6558571  24.4111824  66.9492388  60.1872206
  25.0815988  66.7081022  58.8517904   9.4923103  46.9219732  18.3125269
  10.1690793  47.5966263  18.3678806   8.9618909  47.0497084  19.0990210
  64.0555525   3.3412027  35.0376749  63.9940262   4.2961812  35.0591707
  63.1633091   3.0397969  35.2088070  43.5435629  24.8132706  48.3667946
  43.8032866  23.9890862  48.7784910  43.4479618  24.5978856  47.4390554
  55.4396820   7.3599952  34.0744114  55.5365515   8.2810247  34.3163896
  55.5688953   7.3466432  33.1260657  26.4739919  55.4979610  25.4887009
  26.9590092  54.6748161  25.4301715  26.7319870  55.9841776  24.7055888
  51.1849022  14.0779364  16.5214539  51.4804268  13.1995785  16.7610025
  51.0479546  14.5212090  17.3587036   4.9091211  48.4784698   5.2962464
   4.0630877  48.5582256   5.7368124   4.7442889  48.7836313   4.4040924
  23.5738921  11.8182981  42.8359270  22.9136205  11.6486549  42.1639967
  23.6904049  12.7682900  42.8227854  84.3243694  32.6245427   1.0029214
  83.5758114  33.1769681   0.7777318  84.0184212  32.0951700   1.7393932
  64.8261309  16.0270679   0.6157888  65.3458166  15.2291739   0.5181890
  65.1821041  16.4507127   1.3968384  70.3766251  60.3270817  35.6046534
  69.9425936  59.9315023  34.8487663  69.8193026  61.0689449  35.8397269
  20.6663537  70.3754902   9.3643445  20.3075719  70.0092411  10.1726556
  20.7149220  69.6308422   8.7648672  46.3547182  57.7970505  18.4928894
  45.9167814  58.6329222  18.3323884  47.0603371  58.0097532  19.1037023
  52.3272419  79.1655779   6.0913569  52.4385834  78.3619165   6.5992570
  53.0820656  79.1835976   5.5030113  22.7479434  32.6632142  49.9334335
  22.1507955  33.3930659  49.7692299  22.1885920  31.8867326  49.9124765
  16.2622559  32.9367065  68.1681538  15.4302573  33.3077574  68.4619761
  16.9260859  33.4106445  68.6690950   2.1919000  16.7789483  50.4399300
   2.3759580  16.0320592  51.0095882   2.2213542  17.5376856  51.0227489
  24.0863633  63.9185047  22.6838923  24.8517466  64.3019962  23.1120920
  24.4487095  63.3980989  21.9668746   6.1148041  54.2685032   5.0992054
   5.8849639  55.0729084   5.5643225   5.5150753  53.6097145   5.4492885
  52.3282862  49.7289848   4.0869334  52.2787523  49.9297333   5.0215340
  53.2634926  49.7578955   3.8849840  29.5178199  20.6174111  52.8384972
  29.1367888  19.8029852  52.5102329  29.0772390  21.3058376  52.3403072
   2.2714055  41.7040968  59.3422699   1.6737251  42.1756315  59.9224997
   2.6544908  42.3845959  58.7887383  26.3239312  75.1703215  59.3169546
  26.8039584  74.6074247  59.9243736  26.8748236  75.9476233  59.2244911
  76.7799807   4.4985738  47.7954054  76.6800737   4.1613424  48.6856461
  76.7487907   5.4500860  47.8948212  68.6623096  34.4098878  48.3799124
  67.7618217  34.2127180  48.6377430  68.5734558  34.9722600  47.6104450
  10.1787031  45.7662439  60.9665632  10.6576550  46.2660980  61.6276121
  10.4247451  44.8557520  61.1299515  43.5046339   6.3363111  22.8771067
  42.7687883   6.6343188  23.4118533  43.8038445   7.1232069  22.4215841
  68.7339354  28.0827165  17.4178386  68.3741713  27.2042608  17.5407898
  69.0590715  28.3316350  18.2830310  68.8223553  12.6987422  56.2232590
  68.0366325  13.2433748  56.2707090  68.5498857  11.8535817  56.5806055
  27.3792434  12.6917708  54.8962021  27.9423213  12.1575093  55.4563236
  27.5923276  12.4120867  54.0059185  51.1124134  66.4354420  52.3348713
  50.9286737  65.8479643  51.6018343  51.0787916  67.3125696  51.9530964
  22.7179766  10.8656228  39.1243148  21.9632673  10.6482053  38.5771608
  22.9131532  10.0558341  39.5958853  20.4861617  64.4668579  48.1602573
  20.4145217  64.9309206  47.3261452  20.2834415  63.5562611  47.9459095
  20.0997806  24.9921989  60.1316833  20.1629663  24.1831732  59.6240234
  20.8353233  25.5238867  59.8275185   4.8336634  40.5609512  67.9077625
   5.2683723  41.3891459  67.7044106   4.7944939  40.5394650  68.8639212
  50.7991552  47.0987463  66.0198879  50.4629707  46.2362099  66.2632942
  51.7491341  47.0184040  66.1053896  24.0572572  53.8193369   9.7733790
  23.2044768  53.3853912   9.7470802  24.0437150  54.3250179  10.5859888
  38.4997320  38.5971642  67.2389174  37.8070259  38.6436677  67.8978729
  38.1762266  39.1310096  66.5132523  45.2678204  19.5962119  57.4679470
  45.9600639  20.2522755  57.5492477  44.8084736  19.8313439  56.6617537
  78.6293745   3.5485703   3.0746630  79.0018749   3.5967559   2.1942353
  77.6992559   3.7384441   2.9519272  78.3424091  25.1652479  46.1150789
  78.1690788  25.1636577  45.1737070  77.5455809  24.8067451  46.5059376
  29.4219542  29.5781803  54.3200684  28.9736891  29.5354247  53.4753990
  29.0450859  30.3443527  54.7527122  15.7663631  47.4023342  52.2313261
  14.9930859  47.4726963  51.6715765  16.1967146  48.2537794  52.1534157
  37.9443645  71.5714073  34.5257902  37.4589682  72.0960665  33.8891125
  38.8520122  71.8606472  34.4322467  64.0825367  47.5067091  49.0243483
  64.8253202  46.9054794  49.0793324  64.4752932  48.3780479  49.0766811
  64.3301725  40.9150267  38.6697793  63.4650326  41.3164330  38.5883021
  64.7418976  41.0582924  37.8176117  16.4880955  62.0985603  67.9339838
  15.6271374  62.5038385  68.0375671  16.8785107  62.1391201  68.8070011
  16.5561318  41.7923307  40.4975796  17.2843111  41.6826487  39.8860598
  15.7738936  41.6316223  39.9698400   4.6218163  54.1121721  60.5198002
   4.3187058  54.3231964  59.6367264   5.3168911  54.7471905  60.6925869
  66.4377499  32.2208142  57.0034456  66.4217520  31.3172507  57.3189592
  65.5615377  32.5562668  57.1930599   0.5476942  57.0640993  34.5017314
   1.4707288  57.2830677  34.6293736   0.1497382  57.8766966  34.1894031
  58.9938307  28.0780673  27.7305198  59.6207905  28.7405181  28.0208898
  59.1311884  27.3411036  28.3257079  24.7156072  49.7429752  64.2151356
  24.5156884  48.9759827  64.7517776  25.3575134  49.4289732  63.5782719
  47.4450731   8.1022400  44.8142958  47.1178055   7.4411172  44.2043447
  46.9236660   7.9757690  45.6069994  56.4118385   1.3030747   4.1863060
  55.8079052   0.5989424   3.9503074  56.7198992   1.6456565   3.3472776
  76.1192369  32.5897980  30.4570699  75.6049442  32.4168253  31.2456203
  76.2971640  33.5297871  30.4885650  82.4344444  39.7379541  42.8711128
  82.5755310  40.1508379  42.0191431  82.2261524  38.8268924  42.6641989
  34.2229581  22.0851254  62.0679140  34.8969722  21.5788460  61.6144657
  34.6855545  22.5035095  62.7939939  42.4995613  78.4728813  19.9034810
  42.5040531  77.5372553  20.1055241  41.8753910  78.8489485  20.5241394
  16.0154402  57.9631186  22.8944635  15.9139884  57.1339560  23.3618259
  15.7291698  58.6277771  23.5209703  13.4762585  45.9146261  62.1320820
  13.3820820  45.0167990  61.8138552  14.0460801  45.8389187  62.8974628
  75.1769876  27.4177361  53.2670021  74.6136427  28.1040239  53.6246109
  75.9375048  27.8868079  52.9237604  54.1228771   1.1870407  14.3547785
  54.0442085   2.0715760  13.9975107  55.0303459   0.9378599  14.1797328
  15.5675864  49.3271971  68.4109735  15.9998679  50.1775169  68.3314419
  14.7933912  49.5012331  68.9462948  21.4205551  49.5801878  63.8280964
  22.2572088  49.4506645  64.2747116  21.4987493  49.0717936  63.0208445
  29.9993348  35.3822398  25.3840137  29.8551512  34.4439292  25.2614689
  30.7696509  35.4343104  25.9498167  23.3137488  44.2454481  61.1347246
  22.6327419  44.5201015  61.7487478  22.9996037  44.5416641  60.2804375
  41.2974739  12.0420790  41.1595345  40.7003832  11.2950540  41.1186981
  41.8028545  11.9893694  40.3483343  76.3091946  24.6072149  35.6818724
  76.3242960  23.6562490  35.5738425  75.4741669  24.7859073  36.1143470
   6.9855648  23.3795333  61.8300676   6.7031968  23.1610298  60.9419489
   6.2632841  23.0920982  62.3885679  17.5839281   4.7452706  47.7523375
  18.3139002   5.3529185  47.6334429  16.8070757   5.3042775  47.7679825
  79.5096827  44.7944880  19.2517805  78.5566139  44.8221540  19.1673541
  79.7022200  43.8895512  19.4972467  76.8075228  31.5559340  62.8413105
  76.5195084  32.0127296  63.6316395  77.2115326  32.2376704  62.3044252
  14.5873296  40.4845238  52.5564814  14.6557486  40.2335358  51.6353130
  14.6978223  39.6641397  53.0370951  61.9538307  36.9165349  56.0676670
  61.7098093  36.2271643  56.6852856  61.1796331  37.4770713  56.0162306
  82.7960873  37.6419735  65.4515696  82.5466347  36.9883394  66.1048460
  82.4138927  37.3218966  64.6344328  34.9090648  25.9208894   9.2594719
  34.0163898  25.5754256   9.2553711  35.3561473  25.4375100   8.5647106
  72.4512291  33.7762785  61.3114929  72.2574663  33.5530591  60.4010725
  73.3968782  33.9238358  61.3258743  18.3012342  76.3032007  22.3176742
  18.7910140  77.0857382  22.5706220  18.9374864  75.7637691  21.8481803
  24.1462755  72.0715570  57.2456646  25.0977397  72.1752501  57.2317266
  23.9224339  71.7950726  56.3570213  16.6420281  12.7911127  64.6983337
  16.6023731  12.9452181  63.7544537  17.3539793  12.1608448  64.8084164
  15.5918407  35.5788374  51.9701672  15.1220345  36.1875010  51.4000416
  16.5049136  35.8620977  51.9222879  14.7111046  53.8098812  27.9984856
  15.0052071  53.1030464  28.5730457  15.3692722  54.4963598  28.1070852
  18.3659291  49.2691183  61.1933088  17.7420795  49.9743080  61.3658047
  18.2930768  48.6933613  61.9545078  72.8962231  39.5207882  54.0931129
  73.5867548  39.5024085  53.4304953  73.3637762  39.4818592  54.9274397
   1.0970465  18.6189878  28.1261444   1.8236002  19.0253103  27.6536465
   1.2506418  17.6782596  28.0385613  28.4112859  39.6636009   7.7684629
  28.9746904  38.8990545   7.8879476  28.4891105  40.1491594   8.5896868
  48.8902140  59.5308590   7.6017958  48.5012484  58.6565971   7.5772119
  48.8416052  59.7888327   8.5222942  76.0162783  57.8580427  58.2711744
  75.5011797  57.3820972  57.6197338  76.8894672  57.9238462  57.8845882
  61.6754150  17.7131450  33.8754869  61.2950134  18.1584418  34.6326113
  61.4739752  16.7879343  34.0156293  75.1793146  16.5754902  44.1330385
  76.1134911  16.5319216  44.3371010  74.8822880  17.3879719  44.5427704
  33.0554962  23.1586933  35.8748269  32.1558380  23.3121395  35.5862045
  33.3752346  22.4616957  35.3019428  11.7394531  46.0362959  55.3771639
  11.9485724  46.8105841  55.8996344  12.5758445  45.7736301  54.9928570
  62.6692581  36.8716073  64.7307825  62.9155207  37.3956323  65.4930019
  61.7961359  36.5398717  64.9401617  74.4712448  44.6075726   6.5887439
  73.8321590  44.4758844   7.2890717  74.2476463  43.9469671   5.9331220
  63.4020984   0.3884936  48.7517023  62.6137292   0.4073335  48.2091618
  63.2931268  -0.3843974  49.3057775  60.5528212   4.0825102  42.9623318
  60.3036213   4.0168124  42.0404768  61.2971401   4.6843415  42.9669285
  12.6344538  46.4294052  23.7459922  12.7187312  46.9808006  24.5238686
  12.1309090  45.6714964  24.0430641  20.4891944  69.4831419  37.6180911
  20.9833837  70.3028870  37.6126671  21.1046076  68.8347244  37.9602337
  12.4352229  54.2895126  67.5936317  12.4078381  54.9074507  66.8631268
  12.6796937  53.4554005  67.1927261  61.6722679  68.3790970  62.4822092
  62.2049379  67.9409170  63.1459045  62.3017120  68.8762188  61.9598103
  10.0370908  42.5445175  44.9781990   9.6961612  43.4368801  45.0389290
   9.4519198  42.1060753  44.3604851  13.8758719  43.3498049  65.5593491
  13.2810712  44.0598774  65.3180170  13.6722374  42.6467228  64.9425507
  15.1037896  45.9954023  64.2611694  15.1074576  46.0750771  65.2150393
  16.0196257  46.1104059  64.0076923  28.3411789  61.4423656   1.7691118
  29.0416336  61.6946650   2.3707274  28.7872219  60.9674311   1.0678872
   6.6250247  35.2582073  60.2648973   5.6854850  35.1280975  60.3936148
   7.0285726  34.8782110  61.0452700   7.8542936  53.9262676  47.6071310
   7.9947668  54.8044634  47.9610729   6.9287956  53.9115286  47.3632717
  69.8097467  56.3779020  63.1390715  70.4604864  56.8562984  62.6253557
  68.9808846  56.5439034  62.6900005  71.5673018  10.7444024  46.2557411
  72.4406433  10.5318558  45.9265995  71.0923433  11.0612035  45.4874420
  14.3258238  27.5574493  44.6516085  15.0529885  27.0927358  44.2374802
  13.8827217  26.8902946  45.1758194  32.1552181  56.7300177   4.9165979
  31.6834164  57.3153162   5.5091006  32.1766448  57.1996498   4.0828004
  84.1573429  43.3359051  55.0817537  83.3116341  42.9765511  54.8136759
  84.0127182  43.6478329  55.9750700  75.3775263  53.8654089  43.7048721
  76.0006571  54.5485210  43.4572887  74.5301533  54.1938448  43.4043455
  72.8511572  24.3540978  28.3711123  72.5444841  25.0264978  27.7627850
  73.6776543  24.6973228  28.7107062  67.9418945  35.3250647  37.0610714
  68.2965565  35.8718681  36.3600349  68.4130621  35.6058979  37.8455210
   2.1554254  61.9801664   2.4975431   2.2085887  61.0491753   2.2815248
   1.4717370  62.3211765   1.9209036   2.5964898  21.3917041  35.1519394
   2.6897055  22.1448469  34.5685697   1.7540507  21.0057378  34.9120283
  50.1409340  61.3243055  33.9795470  49.9584913  62.2599840  33.8932037
  51.0157251  61.2855387  34.3661666  50.3805733  28.1089187  68.3010387
  50.8017015  27.5368047  67.6595020  50.0859785  27.5168228  68.9930391
  81.7652988   2.3202407  29.2748928  81.6359711   1.4187686  29.5696044
  81.0372829   2.8058085  29.6627831  81.9708252  19.3713427  41.4576817
  82.2347069  19.6997917  40.5981970  81.9280815  18.4213769  41.3482761
   6.6609257  52.2352552  41.7072296   5.9342593  52.8175831  41.4856863
   7.3038036  52.3796272  41.0129023  16.6144216  30.1269054  58.9803648
  16.3005650  29.2362475  59.1367531  15.8852839  30.5640078  58.5404444
  58.2652140  51.1589956  39.1195297  57.9667759  50.7740164  39.9435210
  57.4629450  51.4531517  38.6881661   0.0605840  45.2013922  52.9450464
  -0.0811156  44.7215128  53.7610531   0.9885190  45.0719070  52.7490807
  80.6649017  57.1261835  27.4585152  81.4484215  56.6632557  27.7552223
  80.1172161  56.4446974  27.0688486  28.3757663  74.3034601  42.6197767
  29.1641569  74.6430683  43.0432606  27.6560926  74.7724199  43.0421257
  30.3420115  23.3604670  55.7201004  30.9075332  23.9369130  55.2061653
  29.4559193  23.5668635  55.4226542  18.5380185  11.5236533  36.1781168
  19.2222273  12.1930385  36.1817098  17.7597046  11.9784355  35.8561969
  11.3538218  38.8781524  52.8217268  11.1145115  38.0956459  52.3250914
  10.6998932  38.9286423  53.5189056  25.3661203  23.5977077  51.9838524
  25.9777832  24.2116809  51.5774822  24.5406318  23.7401366  51.5206957
  34.2251539  64.1279697  13.5090220  33.9536262  64.0669250  14.4248700
  35.0717807  63.6823130  13.4799957   5.6733471  42.1400642  27.0284390
   5.1556718  42.5050497  26.3107824   6.0514408  41.3382483  26.6673756
  31.8366456  30.5044508   0.8895225  31.1679482  31.0472703   0.4718830
  32.0532393  29.8431945   0.2322114  68.7792444  48.6427116  21.9230342
  69.1355515  49.0003252  21.1097741  69.0136290  49.2870474  22.5909591
  81.9769764  11.2911141  66.3036394  82.1455097  12.2197437  66.1440229
  81.6719723  10.9547496  65.4609871  26.2067437  33.5666752  61.7818832
  25.3585052  33.9470267  62.0100451  26.3345361  32.8655744  62.4209118
  75.3558445  12.3300624   3.8403240  74.8962784  12.8760755   4.4782102
  76.1645985  12.0733476   4.2833260   5.1948917  26.2306952  52.4198008
   4.4889683  25.9422159  51.8412828   4.8769742  27.0521855  52.7943802
  68.1781483  32.8600883  45.1818180  69.1272449  32.7634835  45.2599764
  68.0553198  33.3885646  44.3932390  72.1852016  12.0239592  34.2977309
  72.4130249  12.7412105  34.8892379  71.8587017  11.3328505  34.8739219
  71.0488319  18.7340522  59.5137596  70.1211834  18.7493110  59.7492695
  71.1967564  19.5685816  59.0688896  25.4907107  45.7557011   3.4940383
  26.2791419  46.2581253   3.6994120  25.5548263  45.5827141   2.5547850
  74.2385483  71.0353088  50.0616169  74.8322344  71.6043043  49.5717001
  73.5351515  70.8346939  49.4441891  39.7707295  58.7790108  12.7324402
  39.2619491  59.2724085  12.0890665  39.1163826  58.2893133  13.2306981
   1.7781188  43.9176989   1.2243477   2.0414142  43.3006668   0.5415740
   1.8274695  44.7760010   0.8034986  19.7258699   6.3764292  46.9246340
  20.0516629   6.8942940  47.6607752  20.4897332   6.2546790  46.3607883
  78.0743456  29.9692702  57.8223419  78.7719631  29.6499038  58.3946800
  77.8363085  29.2110348  57.2888184  70.7315969  43.2965326  46.9728184
  71.4988565  42.9336309  47.4153662  70.6599569  44.1891527  47.3109484
   4.0354061  22.1539307  44.3896914   3.2227889  22.1092701  43.8858175
   3.7514389  22.1418643  45.3037214   6.1330140  46.8852472  32.6229167
   5.2983963  46.8555927  32.1551919   6.0150355  46.2878847  33.3614779
  45.4718685  50.3311491  15.0181627  44.5216703  50.3157806  15.1327193
  45.6187868  49.8978710  14.1773808  30.1387429  47.8096104  18.5364473
  29.9494433  47.4081326  17.6883829  30.0053620  47.1047878  19.1702199
  60.0715923   8.7800181  54.7279644  60.2373886   9.7057152  54.5495605
  59.1220379   8.6874813  54.6504259  31.6516638  77.0577240  63.4556580
  32.1787190  77.4058723  64.1748476  32.2645473  76.9822073  62.7242851
  66.0667086  23.1285048  27.7150726  66.8719149  22.6963544  27.4302578
  66.3520670  23.9898539  28.0198336  24.8331499  62.1977901  17.1807456
  25.1540828  62.8643942  16.5733993  24.2375207  61.6627121  16.6561997
  77.0860195  37.1092343  65.2715397  77.3676586  38.0201316  65.3562546
  76.1302471  37.1500206  65.3042269  79.1195297  20.4689240  30.2698684
  79.9599600  20.8854365  30.0790143  79.0919209  19.7082555  29.6894765
  73.1551743   6.7751509  57.8670359  72.6194620   6.2399471  57.2815466
  72.8848982   7.6748639  57.6834679  81.2932587  21.9745588  32.1349716
  80.3649044  21.9865990  32.3678637  81.5769100  22.8833604  32.2342515
  72.5544262  37.0163369  60.4544735  73.1580496  37.2953033  59.7659588
  71.9912815  36.3683224  60.0311804  11.8634391  40.2313662  37.2876000
  11.0625112  40.7013512  37.0555234  12.0389974  40.4895496  38.1924486
  70.1611328   0.9904997   3.8619280  69.9446726   1.5871377   3.1454092
  71.1107922   0.8841863   3.8064721  12.1705699  49.8089314  40.1745367
  13.1274080  49.8289824  40.1575089  11.9474435  48.8910627  40.0197458
  21.2447762  40.0487661  39.3994951  21.9081712  39.6723843  38.8211560
  20.6279826  39.3332839  39.5540357  64.7185612  52.3028708  68.4590530
  65.4890585  51.7412376  68.5435438  65.0463009  53.1861544  68.6282444
  13.2320333  63.4930277  42.6089621  13.4549487  63.3488894  43.5286188
  13.7036431  64.2911005  42.3704433  72.5030518  29.8904443  50.2482700
  72.4214792  29.2791581  49.5162106  71.7889118  30.5147147  50.1197386
   4.5299733  21.1629820  54.9758720   5.3445333  21.6293836  54.7882700
   4.8128766  20.3140569  55.3157568  28.3850789  30.9466600  49.9330568
  28.7271976  31.8396425  49.8909903  28.0871224  30.7621193  49.0423250
   1.0010581  19.0794683  52.0770073   0.7230775  19.9020863  52.4798203
   0.1838075  18.6310208  51.8596840   9.0119350  14.0217006  24.0507221
   9.3837887  14.7811615  24.4992495   9.7439480  13.4105921  23.9674497
  69.4274092  71.9772673  53.6353350  70.3665543  71.8097925  53.7139750
  69.0217638  71.1153078  53.7286615   4.0544504  46.6538763  49.9100971
   4.1580313  45.7025623  49.8876238   3.8097981  46.8893719  49.0151596
  81.0615158  69.0500784  47.9347372  81.8483353  69.5890951  48.0159950
  80.4049206  69.5034981  48.4634399  24.1564465  60.5475807  43.3120203
  23.6225533  59.8109150  43.0145073  24.5769954  60.8750963  42.5169706
  73.0821276  26.7749000  26.5121150  73.9376688  26.3462162  26.4895844
  73.2836723  27.7094817  26.5586638  58.1851435  21.0929942  39.3248105
  58.2101965  21.0157776  40.2785635  58.5621405  21.9541001  39.1442466
  26.3339424  65.8458328   8.7006235  26.0276413  66.4822102   9.3467140
  26.7472100  66.3761806   8.0193233  16.8513775  19.3066704  35.3067541
  16.2172890  18.6517060  35.0148892  16.3163936  20.0464416  35.5944371
  63.8070917   5.2498114  28.7021446  63.6803341   6.1984569  28.6868215
  64.5862341   5.1035857  28.1656885  71.8928528  50.9150648  13.1499708
  72.1584511  51.5536690  13.8116896  71.8322611  51.4209318  12.3396277
  75.3052950  60.7578754  40.9788132  76.1373138  61.0250616  40.5881929
  74.7494984  60.5376816  40.2312565  79.8819399  43.0984688  33.0404305
  79.7878599  44.0379906  33.1975031  80.7744026  42.9992342  32.7089286
  66.2945747  74.1401482  59.1254520  66.5371275  73.3755016  58.6032343
  66.5501595  73.9108324  60.0189447  59.7282600  56.3159513  49.5820236
  59.4511080  56.3496399  48.6664438  60.5731010  56.7657852  49.5932293
  22.7131867  35.4948187  29.0597939  21.8973231  35.6856608  29.5225883
  23.2772398  35.0968552  29.7228932  18.0912781  33.4998226  10.3470719
  17.1429420  33.5975742  10.2614343  18.2696676  32.6124072  10.0357747
  50.3002930  31.6780305   2.7806726  50.2962160  30.9025359   3.3417633
  49.8976135  32.3624635   3.3151183  56.4932156  49.3173599  10.2181602
  55.6538725  49.7664785  10.1180279  56.5566015  48.7534857   9.4472766
   7.3665982  51.5641499  51.9522429   7.3632789  50.7549381  51.4409781
   7.4562365  51.2736416  52.8598785  24.2051768  57.7328587  12.9880702
  24.2339659  57.8616047  13.9361358  24.8282266  58.3710957  12.6406586
  16.1809909  71.4244747   0.3172630  16.3180470  71.0704088   1.1959477
  16.8619955  72.0897961   0.2182176  70.7963562  17.8275919  52.6513147
  70.2897358  17.8885424  51.8414688  71.6506243  17.4957466  52.3750210
  32.3520422  16.1440313  61.2282228  31.6716743  15.8316112  61.8246508
  32.0999002  17.0455539  61.0284424  72.3220158  26.9794607  68.5942841
  72.1194458  27.3762822  67.7470922  71.4689922  26.7407417  68.9570427
  49.5237827  71.4063501   6.5574551  49.9812078  70.8338261   7.1732545
  50.2231836  71.8352699   6.0644054   4.6222362  36.2229228  66.6049337
   4.3696734  37.1184230  66.3801527   4.9018347  35.8373547  65.7746363
   4.3946755  21.3022971  49.8815775   3.9475289  20.5276823  50.2225494
   4.7119921  21.7582297  50.6611061  66.6060448  72.7205515   3.4090564
  66.3350153  73.6341476   3.3189654  65.8481169  72.2829962   3.7967730
  17.2361767  27.3130822  44.6681404  17.4757886  27.2113299  45.5892611
  17.7601635  26.6557550  44.2103291   8.3577830   0.7259799  55.0439596
   8.6842096   0.5855144  54.1551685   7.4062949   0.7635092  54.9465179
  69.6085596  26.7791343   8.5785061  69.1168880  26.5612197   7.7866679
  70.4474354  27.1089268   8.2564002  84.2591000  27.7891803  48.8042545
  83.9785194  27.1325326  49.4416857  84.0804768  27.3886991  47.9534101
  16.9296539  43.5344934  64.9686337  16.5997887  43.4485102  64.0741873
  16.7142379  42.6997709  65.3846407  12.4890471  49.7186899  62.2179031
  12.1245825  50.6019640  62.1611452  12.5774550  49.4370985  61.3073397
  12.1351790  59.3423080  20.3926420  11.7566872  60.0556040  19.8786533
  11.8406796  59.5097351  21.2878919  30.2208161  24.8958993  43.2912350
  30.3834009  25.7578015  42.9079342  31.0678005  24.4518685  43.2501602
  75.7144308  71.8982649   5.3201079  76.4883089  72.4026203   5.5710417
  74.9765968  72.4138021   5.6457680  61.5543749  79.2122452  68.2520485
  61.9825377  79.4606334  69.0713263  60.6205340  79.2060450  68.4621334
  77.7086973  65.6565857  18.0607796  77.7409124  65.8087969  17.1163082
  78.3067656  64.9234200  18.2057607  15.0485253  46.6726685  22.1499395
  15.8953953  46.3148689  22.4164391  14.4972301  46.5879774  22.9278421
  29.2182422  27.1263289  55.6437922  29.3535948  28.0066872  55.2932501
  30.0694132  26.6982913  55.5514860  24.9388719  70.1096201   2.8358880
  24.4527984  69.5489502   2.2312246  24.2651701  70.5094051   3.3859155
   0.5070013  12.5513899   0.2591572  -0.2076689  11.9179070   0.3237876
   0.3344131  13.0249822  -0.5545725  14.0324962  54.5508099  47.2690392
  14.3749237  55.0649595  46.5378571  14.7346139  53.9347696  47.4782181
  72.6688337  48.8983774  51.7348528  72.8763103  49.6186686  52.3301411
  72.3222637  48.2103777  52.3029852  17.5756872  64.4666958  52.6981640
  17.5515139  64.9000072  51.8449974  18.2573009  63.8005686  52.6092529
  13.9173341  63.1799412  48.2488203  13.5095930  63.3894396  49.0891123
  13.8012099  62.2344160  48.1553745  17.0729423  62.3345995  17.8660655
  17.2497308  62.9834557  18.5472107  16.7265379  61.5783882  18.3397579
  83.6574936  43.6496639  38.0720758  83.7280464  44.5044756  38.4969807
  84.5452595  43.2930565  38.1025267  19.7058427  63.1432199  42.2507954
  19.7686279  63.8352966  42.9090691  18.7794888  62.9022741  42.2441912
  21.7885375  54.1345882   3.1697938  21.7261267  53.2198668   2.8948027
  20.9338284  54.3277264   3.5550237  72.2550964  33.9125729  15.2181566
  72.0275116  33.5211420  16.0614944  71.9951057  34.8299670  15.3019488
  24.0092421  55.8696318   3.2470971  23.3964825  55.1721334   3.0141756
  24.3616295  55.6049919   4.0968153  36.4817452  11.9058144  31.3388896
  35.6475925  11.9336903  30.8702302  36.2816620  11.4512372  32.1571565
  21.9303989  30.5088758  30.2548122  22.8370976  30.7579708  30.4339266
  21.5992522  30.1901245  31.0944366   3.5179353  14.4933355  51.4162016
   3.5737082  13.7502992  52.0170498   3.6104366  14.1052377  50.5461121
   1.3568243  50.4972744  66.7156553   1.1956868  50.3602171  65.7821226
   1.6499056  51.4064217  66.7771673  73.7294388  63.2872772  45.5309772
  73.2692528  63.9150238  44.9738503  74.6405363  63.3326197  45.2410078
  68.6647940  44.9317932  33.9765215  68.7265491  45.7626247  33.5052037
  68.9070606  44.2702484  33.3285284   1.0143604  34.6956182  30.7912612
   1.6437028  34.1468668  30.3232527   0.8368342  35.4207444  30.1921701
  46.5904331  66.8223429  15.8253336  46.9519472  65.9776258  16.0936379
  46.9244576  67.4425507  16.4734113  53.4207678  61.0169983  29.6311879
  54.1848087  60.4663324  29.8021984  53.4340763  61.6693068  30.3315783
  82.3616791  58.0750322  44.0329647  82.2012138  58.4518909  43.1678247
  82.3201275  57.1289492  43.8935518  22.0332217  14.1073751  56.3041592
  21.6603637  13.8487339  55.4613590  22.5877500  14.8603439  56.0997820
  13.5985470  18.3455122   3.4113151  13.8454795  17.6338494   4.0019020
  14.3204606  18.3983862   2.7849954  21.8829870  54.1051435  59.6326017
  22.7432704  54.4569302  59.4037056  21.9415259  53.1732416  59.4219828
  13.9115191  74.7638035  49.9191570  14.3879068  75.4423904  49.4408178
  14.5611405  74.3892717  50.5140924  18.2602549  51.5186262  53.0897331
  18.0446315  52.3576832  52.6826429  19.1714442  51.3599348  52.8431892
  25.4113054  47.8530121  57.7823162  25.8276844  47.0359325  58.0566168
  25.9406519  48.1556463  57.0444584  26.0589266  56.4974546  30.7144904
  26.9377780  56.3493395  30.3653288  25.7329583  57.2553396  30.2291179
  30.9217453  39.1712666  62.2759962  30.0196719  39.0135837  61.9973707
  30.9150863  40.0669813  62.6134634  17.3712826  51.6937208  17.6737344
  17.4202430  50.7960224  18.0023360  18.2838762  51.9751358  17.6088715
  82.3545170  62.1909952  36.3335204  83.2606602  62.4673843  36.4704084
  82.4244690  61.2940359  36.0067034  31.5387106  27.4314809  63.0612707
  32.1622992  26.7179632  63.1963968  31.6681480  27.6932812  62.1497107
  22.0178509  65.2557230  58.3119392  21.7520761  64.3718147  58.5655212
  21.2958360  65.8146191  58.5992718  73.5809278  49.2719460  44.7792721
  73.4331799  49.9868917  44.1601896  72.7022791  48.9801311  45.0222826
  74.6985102  47.2449398  56.0595512  74.3054104  47.0900822  55.2006435
  73.9576101  47.2447252  56.6656065  12.2741485  52.1589184  52.7131796
  12.2612417  52.7284527  53.4823990  11.4324749  52.3155308  52.2850561
  13.4508812  36.2564063  67.7000380  14.0971959  36.4841580  67.0317268
  12.6111460  36.2877941  67.2416830   4.2432883  35.0319695  52.2421885
   4.9988335  34.8016500  52.7828693   4.3916887  35.9461093  52.0001984
  46.4928722  51.8888426   1.2060971  47.3039818  51.8144178   1.7088817
  46.1568069  52.7589464   1.4210673  82.2332859  26.7094564  22.2857618
  82.6837826  27.4566412  21.8920732  82.0355320  26.1329579  21.5476727
  59.4510651  75.5825424   5.4943389  58.9374876  76.3887167   5.5448782
  59.8453712  75.6040144   4.6223909  75.9466505  38.1539774  46.8874884
  76.8995476  38.2080030  46.8146753  75.6560946  37.8680658  46.0214233
  16.4867544  51.4250040  38.0542970  16.4268816  52.0199633  38.8017392
  16.0515141  51.8919516  37.3410225  21.7715311  62.5247717  58.6196280
  22.4324512  62.4673700  59.3096447  21.0895538  61.9096708  58.8894320
   7.3246855  51.4999294  68.7329102   6.4255279  51.7089987  68.4798479
   7.6465482  50.9361696  68.0294800  45.3547478   1.5152733  43.5612726
  45.7405996   0.7177908  43.1988192  44.4102240   1.3678041  43.5127640
  27.2771382  76.8772173  47.5783539  27.8726888  77.6089478  47.4167299
  27.4155378  76.6546059  48.4989595   5.7406479  18.3103728  49.0231800
   5.5059320  18.6061323  48.1435966   5.1874393  17.5438666  49.1737127
  73.4737015  20.1743317  14.1075444  73.4005022  20.6918526  14.9094462
  73.6696243  20.8163762  13.4251785   6.6746575  60.2448273  62.2854519
   6.5259641  59.6855545  63.0479097   6.3669282  59.7246456  61.5431929
  62.9893923  72.9207993  66.1015797  62.6859283  73.4895372  65.3939915
  62.8060627  73.4143972  66.9009447  17.2792459  20.3110361   8.2452691
  16.5189338  20.4814911   7.6892990  17.9563129  20.9000564   7.9123014
  13.5264909  76.7427397  28.3796453  12.5938284  76.5962362  28.2218242
  13.7237525  77.5547457  27.9127836  32.0407653  68.4931183  60.7134581
  31.5921831  68.1838083  59.9264812  31.3454819  68.8690996  61.2533188
  27.4005866  30.4036140  52.4698353  27.8340673  30.4428124  51.6173172
  27.7758861  31.1330318  52.9631233  20.6137872  27.7657938  62.4987555
  20.0351930  27.6358175  63.2501316  21.1368132  26.9651651  62.4578905
  12.1136248  42.5236988  48.9902449  13.0295277  42.8002262  48.9604616
  12.0737422  41.9053078  49.7197914  81.0898018  46.1116171  34.3205738
  80.6392479  45.5965090  34.9898219  82.0117474  45.8718300  34.4141245
  27.6216197  58.4327269  40.8248854  27.4882889  57.4849176  40.8144617
  26.7431617  58.7992954  40.7240295  12.8834915  63.3259106  53.9959002
  12.2808146  63.9139938  54.4510603  13.6153436  63.8861179  53.7374496
  11.0333562  26.8294740  59.7004223  11.3137841  26.9616199  60.6060362
  10.1594579  26.4458823  59.7738504  72.2920847  36.2532663  41.3187122
  72.7669525  36.8831444  40.7765102  72.0276451  35.5640936  40.7093334
  13.9979935  53.4621096  50.4209232  13.9278567  53.3628559  49.4714689
  13.2472813  54.0052462  50.6610632  78.6163950  73.0954266  27.5193739
  78.4041548  73.8910818  27.0314026  77.8248882  72.9049206  28.0228257
  56.4931202   8.8015550  38.4757066  56.2649727   7.8921366  38.6684227
  56.1925888   9.2912769  39.2412686  56.2822819   1.5330641   8.8593328
  55.8409500   2.3088008   8.5133708  57.2150469   1.7324536   8.7791926
  21.2791419  58.4170723  54.3601751  21.8480754  58.4093761  53.5904408
  20.4542351  58.0418062  54.0520573  74.0368986  68.0652475  54.3678284
  73.5215473  67.4928284  53.7995148  74.6231461  68.5304546  53.7710619
  17.2355831  54.3297815  59.5677185  17.6456773  54.9462271  60.1743889
  17.5638175  54.5873356  58.7062359  27.7074957  10.0603843  46.8938494
  27.0890427  10.7173467  47.2134542  27.9749250   9.5815253  47.6783276
   2.6940095  17.5441432   1.4585494   3.2451963  16.7818224   1.6354477
   1.9159293  17.1836185   1.0332900  26.7489815  55.0978947  57.0304441
  26.8490815  54.3895483  56.3944769  27.6358843  55.2568150  57.3535252
  61.2976837  76.3939047   0.9994067  60.8328629  75.9536362   0.2878352
  60.8811235  77.2534418   1.0618890   8.3111006  61.3191319  25.2941489
   8.0816287  60.5052328  24.8456573   7.4985564  61.8250179  25.3030133
  83.2421207  69.2239904  53.8981676  82.5847912  69.1270065  54.5871830
  83.2573223  70.1628017  53.7120724  12.5584006  31.8248057  42.0921469
  13.3507967  32.2692013  42.3935699  12.6729274  30.9160805  42.3702383
  61.4062834  43.5310745  36.7879438  61.1409140  43.5793638  37.7063560
  61.5686369  42.6003647  36.6341591  21.3277650  52.4832487  64.3492413
  21.0339618  51.7429495  63.8183260  22.2559524  52.3110580  64.5075130
  26.6209579  20.8114314  23.6793089  27.1908855  20.5798292  24.4126415
  26.3210058  19.9704981  23.3342123  32.9149246  17.8597844  66.4151621
  33.4038329  18.6353517  66.6902876  32.5503969  17.5061524  67.2265148
  17.8297806  74.6759605  42.7412510  18.0452478  75.5628538  43.0297470
  18.6713588  74.2205000  42.7182198  50.5237627  29.3487954   4.1128168
  51.1317873  28.6296988   4.2843819  49.6571875  28.9440894   4.1513741
  23.7555027  25.7906866  50.1664162  23.3325768  25.1419592  50.7290173
  24.0029359  26.4986348  50.7612419  64.4369888  68.3355951  23.4048009
  63.8257360  68.5322237  22.6949143  65.0779343  67.7431822  23.0117702
  62.0957708  62.2119856  35.2401471  62.9431343  62.5741100  35.4991269
  61.6407871  62.9428148  34.8216796   3.4040686  20.7833147  12.9212368
   3.2157573  20.6119275  11.9985259   2.9497316  20.0847316  13.3921826
  49.8402882  76.9829416  13.5375810  49.4899797  76.6860056  14.3774295
  49.7521210  76.2248945  12.9598105  50.4334021   5.1990944   2.1800341
  51.0283709   5.7014871   1.6233993  50.5627584   4.2900234   1.9096856
  62.7542639  63.6565971  66.3853598  62.7980947  64.1482782  65.5652618
  61.8217134  63.6309052  66.5996647   8.8157141  40.5062246  43.2863998
   8.6300182  39.5949507  43.0598354   8.6732316  40.5517817  44.2318392
  44.0643263  77.4455404   2.3553953  43.8152504  77.9516506   3.1287295
  44.4191074  76.6292000   2.7074611  10.5235636  37.9328537  58.5978985
  10.9291267  37.3940396  59.2771864  11.2505841  38.1916046  58.0315781
  36.4571023  61.8884802   5.6314927  35.5462933  61.7524910   5.8925730
  36.8681645  61.0309696   5.7407606  52.1840763  57.0093346  14.3936682
  52.1009636  56.5752220  13.5446286  51.8847370  56.3567114  15.0266826
   5.8430254  67.5806570  39.1699433   5.0515747  67.2434187  39.5895934
   6.4673769  66.8568039  39.2194366  14.2198622   4.0799516  51.1298561
  14.3247604   5.0313675  51.1358595  15.0185657   3.7483332  51.5401411
  17.3492992  73.8690329  16.2464976  17.2819090  74.1396666  17.1621656
  17.3028564  72.9133892  16.2751508  27.1791267  32.4710035  29.7954416
  27.4515080  32.3671532  30.7071733  27.9993629  32.5174427  29.3042278
  56.1276007  45.5928135  11.6779923  55.4635239  45.2958632  12.3001349
  56.5056276  44.7860909  11.3279533  16.3723838  65.2043676  41.2860727
  16.6209388  64.5714808  41.9597960  16.6899455  66.0442781  41.6176271
  22.3342872  27.6376510  56.5124846  22.9848504  26.9629359  56.3181734
  22.3083234  28.1795216  55.7238579  16.2999344  44.3559504  42.1739864
  16.3271415  43.4915876  41.7636633  15.3753924  44.6028185  42.1513796
  20.6220126  56.1359358  66.4804649  20.0332260  56.3232708  67.2115326
  21.4992952  56.2705898  66.8389034  61.1165728   4.5143891  68.8641987
  60.6189578   4.3690396  68.0595339  61.2766518   3.6358357  69.2088102
  77.3033047  28.2103562   0.4778922  77.0089912  27.7523971   1.2652177
  77.1713257  29.1373634   0.6765729  47.0604992  31.4292455   4.8632297
  46.7900896  31.7469096   5.7247388  47.0855618  30.4768944   4.9561423
  13.9679813  38.4902382  32.4733233  13.7205637  38.7367105  31.5821052
  14.9204886  38.4010887  32.4414802  34.7712994  55.6559467  30.0450706
  34.8538375  55.1190901  29.2569065  35.2858853  55.1922464  30.7056880
  81.4529133   3.2498497  24.5573831  81.9418907   3.2474464  23.7345052
  81.9201469   2.6281768  25.1154542  64.3817282  30.7174277  18.7981844
  65.1867104  30.5422497  19.2855740  64.3144178  29.9914098  18.1780231
  26.2771463  55.2245378  39.0075207  26.3139176  54.2724466  39.0992093
  26.3573742  55.5546141  39.9024200  12.1888089   0.4923660  27.3738647
  12.8427267   0.6041361  26.6838431  11.3497293   0.6226262  26.9320416
  83.6464977  63.2029295  55.3917456  82.7541351  62.9021215  55.5633116
  83.9058971  62.7408886  54.5945883   7.2161162  44.8289490  49.4754696
   6.4137745  44.9641752  49.9796438   6.9303077  44.8433542  48.5620499
  25.4711056  42.3644114  60.9108496  26.1719084  43.0023050  61.0457277
  24.6694231  42.8873634  60.9032059   8.9819527  60.5513096  30.6605768
   8.5224771  61.3686800  30.8529854   8.8618135  60.4248381  29.7194052
  14.3373156  48.9800072  47.4731636  14.7880554  49.5759201  46.8748760
  14.4227362  49.3932581  48.3323240  19.9789310  54.7916126  47.1528959
  19.7964442  53.8571358  47.2513247  20.1078534  54.9126863  46.2121773
   6.1504275  75.5508661  45.2221775   5.2864254  75.6708813  44.8280621
   6.4209217  76.4323092  45.4793119  11.1352956  64.2873526  33.3822131
  11.9052529  63.8818550  32.9835010  11.2701237  65.2273083  33.2616401
  51.9349241  43.6700630  60.9662151  51.1074734  43.9694166  60.5894566
  51.9036865  43.9637756  61.8767023  19.0733325  38.2297301  61.6105318
  18.2551813  38.2903671  61.1173916  18.9724791  37.4427462  62.1459866
  38.2771873  69.5799541   3.7606958  38.1004286  70.0340843   2.9368302
  39.0784621  69.0837193   3.5935271  69.9132252  68.8474941  49.0059948
  69.6143103  68.1139851  48.4685516  69.7669506  68.5594654  49.9070311
  51.7672920  32.5086474  54.9780083  52.4237633  31.8262362  55.1179743
  51.9520044  32.8422141  54.1000271   6.5648305  55.5774927  61.9843102
   6.8876666  54.6774864  62.0289326   6.4870435  55.8496571  62.8987026
  21.9055915  53.9134884  36.4846873  22.6628351  54.2843390  36.9377756
  21.3212180  54.6586990  36.3454032   0.7854772  24.9112630  40.4213715
   0.1150377  25.5568290  40.1977921   0.6503439  24.1992331  39.7960877
  32.7851510  40.3573942   2.4150231  32.8131938  40.6067705   3.3387423
  31.8593287  40.4159880   2.1791185  25.5094051  10.7442498  41.0113239
  24.9527621  10.9677684  41.7572594  26.3960385  10.7246101  41.3714981
  44.6897697  38.4830880   2.5702471  45.3247118  38.9222145   2.0043388
  45.1331997  38.4088635   3.4152880  60.9552193  78.1772900  65.2261972
  60.9841204  79.0457916  65.6275702  61.8686438  77.9776764  65.0211620
  76.2119961  43.3451700  23.2552838  76.7356730  43.9917707  22.7821040
  75.3687763  43.7759924  23.3953071   1.7997129  33.8228154  56.5005922
   1.5703414  33.2752252  55.7497501   1.3514262  34.6527052  56.3376379
  41.6358805  58.3372545  30.3936720  41.5012646  57.8335094  29.5909548
  41.5714359  59.2511892  30.1165485  16.3762772  43.6208677  58.0008173
  16.0112965  42.7692986  57.7602816  15.6111646  44.1805315  58.1335115
  15.4640234  36.6411924  65.9532452  15.9839237  35.8723974  65.7189608
  16.0768771  37.2129607  66.4155483  51.7323780  73.0151701   8.8024062
  52.4763775  73.0972862   8.2057875  52.1089888  72.6596260   9.6073806
   0.4163153  51.4767218  52.7894497   0.9972201  50.9434271  52.2468853
   0.2709000  50.9491968  53.5748196   5.2830470  48.8089037  30.0059199
   5.8502454  48.0507755  29.8653555   5.0204301  49.0780354  29.1256738
  57.6924324  46.1409998   2.4423848  58.5968781  46.4543676   2.4458037
  57.6252174  45.5948544   3.2256079  16.9176936  36.3654351  54.9585199
  17.6276541  35.7476521  55.1332521  16.2900531  35.8671832  54.4350243
  57.3254681  20.0674510   2.3766361  56.6472387  20.0789523   3.0519891
  58.1474018  20.1432753   2.8613117  13.5530186  44.0606785  45.3228283
  12.8812802  44.4100189  44.7372007  14.1117609  44.8120260  45.5216074
  27.9230142  42.9706430  66.2379456  28.3869243  43.4148455  65.5282211
  28.2604146  42.0750427  66.2209749  12.9899776  28.6574411  47.4174404
  12.3663211  29.0707183  48.0145025  13.1490064  27.7934813  47.7975893
   9.1093457  31.0586095  54.5967197   8.5144711  31.7996931  54.4820499
   9.2454779  31.0048914  55.5426645  71.3902092  15.6733024   3.1484196
  70.7021379  15.3273237   2.5800112  70.9244347  15.9923363   3.9214018
  20.3550935  29.5250130  40.2108479  19.6274579  29.9018669  39.7161150
  20.2497268  29.8747396  41.0956192   5.4767495  79.0121937  27.8711820
   4.5963103  79.0095901  28.2467508   5.3692782  78.6169100  27.0060611
  24.3914843  50.8157873  53.4454489  24.0512776  50.6488752  52.5664520
  23.6510229  50.6404781  54.0261507  56.0645247  14.8530519   0.9248011
  56.0431004  15.6546044   1.4475678  56.8625784  14.4052565   1.2055600
  72.3116636  43.4734964  24.6591091  72.8953934  44.2049026  24.4577718
  71.6620731  43.8431025  25.2571511  12.6192546  33.6940241  37.6607680
  13.1452239  33.3562779  36.9358420  13.1437194  34.4069099  38.0254078
  72.4826050  58.6869144  59.3223667  73.2272959  59.2537355  59.5233154
  72.1340752  59.0317917  58.5002851  29.8647094   0.4616557  64.4899750
  29.1201663   0.2995052  63.9106703  30.6318641   0.2427865  63.9610100
  65.7970476  43.0045938  16.5854800  66.1245394  42.4341154  17.2808433
  66.5524197  43.1438828  16.0142994  12.0999300  55.1782846  51.6305923
  12.5146723  55.8752298  52.1390057  11.6155708  54.6655321  52.2776699
  80.7543755  34.2220449  38.5560346  79.8324347  33.9654565  38.5353208
  80.7360172  35.1723146  38.6695361  79.8738623  75.2049732  34.7914815
  78.9991856  75.2659941  34.4074988  80.3856659  75.8679485  34.3280649
  71.3811064  54.2486286  60.4170799  70.4726028  54.2235756  60.1167059
  71.3166523  54.3108845  61.3700771  44.2371941   1.3562541  55.2688837
  44.5788574   0.6774975  55.8509350  43.3653212   1.5502609  55.6130266
  71.4247608  33.1689072  51.4644146  71.4992476  32.5159860  52.1603870
  70.6310654  33.6588049  51.6795492  62.0693016  29.4637012  40.6777382
  61.8466759  29.1747546  39.7927642  62.2431374  30.4006147  40.5871582
   4.8729709  49.2569208  50.5811167   4.6646562  48.3228254  50.5984449
   5.8294070  49.2886639  50.5597925  19.2034054  65.7578039  50.5867481
  19.9947131  66.1788368  50.9225941  19.5184660  64.9599648  50.1619816
  44.4786549  17.0713425  67.2007895  45.3446579  16.7515898  66.9477510
  43.8756990  16.6269600  66.6048002   9.7331309  75.4616213  21.2970567
   8.8147831  75.3253269  21.0640454   9.7154838  76.1782980  21.9313192
  22.4144077  56.3540411  45.5158472  21.8650579  56.5386486  46.2776661
  23.3039284  56.5528822  45.8081627  11.6350722  67.5870037  68.3747292
  11.6677010  67.7814102  67.4380493  11.3686717  68.4115744  68.7813473
  63.8067198  67.4038696  46.3964415  63.4189939  68.0347776  47.0029545
  63.0816031  66.8280029  46.1539316  27.9236531  37.1504283  57.7409649
  28.2940054  37.5137949  58.5453510  27.3401570  37.8356647  57.4150610
  78.1211901  16.5245950  21.2442708  77.4880266  16.5958345  21.9585943
  78.8490248  16.0277975  21.6180086  21.2422132  56.1841869  32.0603633
  22.1886015  56.1238003  31.9302249  21.0263968  57.0885801  31.8329167
   7.1241969  73.0285740  52.5734711   7.1020913  73.2327032  51.6385508
   6.3225561  72.5290251  52.7285767  18.3614445  77.2301674  43.3749819
  18.3256519  78.0154371  42.8288078  18.8540375  77.4998140  44.1501427
   9.5983714  56.1666775  50.6695461  10.5403352  56.2445116  50.8208084
   9.2055321  56.2985373  51.5324020  18.7931752  52.2195911  48.4908724
  18.8213348  52.7764273  49.2689323  18.9769375  51.3395166  48.8194084
  42.5083780  20.1169801  12.5850749  41.5940619  19.8888552  12.7530503
  42.8444767  19.3894684  12.0616269  32.2567487  75.4286003  49.6824074
  32.3093367  75.3890944  48.7274694  31.4957714  75.9821558  49.8576784
  19.1726983  21.1427784  22.8592229  18.8896012  21.7954826  23.4995866
  20.0882983  20.9720278  23.0800223  72.6571703  14.7179592  26.5437603
  72.3903513  13.8194346  26.3496137  73.1157637  14.6558845  27.3816586
  11.5424919  51.2009239  24.7836661  12.3295689  50.8201027  25.1731730
  11.2385273  51.8369818  25.4311728  21.1691856  63.8863468  30.1165843
  22.1211267  63.9735174  30.0671649  20.8390927  64.4775152  29.4399810
  67.1063662   1.5818866   7.8073603  66.9096756   2.0715205   7.0087349
  67.8511953   1.0287164   7.5718415  37.4522662  26.3594127   6.6611320
  37.9610181  25.9193039   5.9801698  36.6121697  25.9006786   6.6666430
  17.8289044  40.5826473  57.7697611  16.8961155  40.5860662  57.9845238
  18.0020452  39.6907568  57.4684572   6.6336983  69.3819427  68.0182600
   5.9984851  69.1360617  67.3457432   6.3451982  70.2446127  68.3162546
  62.3403025  10.1438820  60.5566692  62.1679640  10.5524528  59.7083759
  62.4684334  10.8797145  61.1553049  23.2798910   3.0863950  56.4208746
  23.8365340   2.9877469  55.6484461  23.8919497   3.2552224  57.1371937
  42.9254436  35.4382658  65.3132534  42.0135403  35.2507043  65.5357075
  43.2728863  35.8861589  66.0845613  32.0713520  20.5236411  22.5479388
  31.2419653  20.9784436  22.6945782  32.2183752  20.5918360  21.6045570
   1.7456594  46.0812950  62.3693132   1.1643266  45.3218746  62.3297787
   1.1700241  46.8315506  62.2210121  33.3785009  60.2799368  27.2472763
  32.8963399  60.7090330  26.5404320  32.9941559  59.4050407  27.3026824
  74.3634558  77.3233461   9.1635436  73.5988092  77.3895788   9.7355258
  74.7494888  78.1991434   9.1773802  34.4932890  69.9273920  43.2296133
  34.4458532  69.9665022  44.1848373  35.4217529  69.7905445  43.0413151
  65.7737350  37.0830989   3.1295133  65.3537464  37.0141006   3.9868838
  65.2700853  37.7545929   2.6694408  11.7044783  74.0218019  64.8710489
  11.5006804  73.8105392  65.7821274  12.1491539  74.8682928  64.9151611
  57.7971792   4.3780816  61.3619423  57.8466892   3.5125273  60.9562349
  58.0693340   4.9822810  60.6712151  16.8628299  58.0093098  46.4893484
  16.9768417  57.0734501  46.6548872  17.0344186  58.1095648  45.5530071
   8.8396901  76.3214922  67.1431303   8.5782111  76.8139553  66.3650942
   8.4586167  75.4526806  67.0159483  21.9634223  47.2648573  38.3031988
  21.1378002  47.4218082  37.8449965  22.2610784  46.4158392  37.9763937
  38.6967516  35.4882002  62.2944927  37.9825592  35.2314305  61.7111969
  38.5172248  36.4048076  62.5038528  69.7354698  29.4828010  12.8891575
  69.0261602  29.9199629  12.4179864  70.5174685  29.6659350  12.3684168
  81.5959358  32.4416184  13.9713359  81.8501472  32.5878716  13.0601716
  81.8054485  33.2643390  14.4134569  57.0187521   3.7828878  42.9198551
  56.3660574   4.0418959  42.2693682  57.4964952   3.0637220  42.5065804
   1.2604174  43.9587593  12.7296698   0.6727690  43.6811066  12.0269537
   1.5223847  43.1441784  13.1586993   4.5983440  35.1244020  13.5164511
   4.4660968  34.3762660  12.9341829   4.9351048  35.8153224  12.9459655
   4.7349387  34.4161534  19.5530272   4.6195227  33.6106086  19.0490353
   5.6680036  34.4338965  19.7658813  29.9426293  66.8566513  46.9206095
  29.3103552  66.2458563  47.2992802  29.4599867  67.6788712  46.8355274
  22.1365237  57.7038622  48.1066895  21.7260408  58.5327673  48.3529663
  23.0485606  57.7971745  48.3818483  20.2430654  55.2402163  28.4148645
  19.5723569  55.8536053  28.7150955  21.0715914  55.6537724  28.6572433
  48.6850929  21.8067575   6.5730906  48.7117338  22.1689701   7.4587107
  48.9454174  20.8919263   6.6805500  66.1756992  10.4533541  40.1426363
  66.2158871   9.8296434  40.8676195  67.0370245  10.3957140  39.7290754
  21.0178685  61.2577200  54.4343042  20.5408812  61.8047142  55.0584173
  20.9433103  60.3710365  54.7870970  51.0662699   2.2360186  60.6231260
  50.3143692   1.9017720  61.1121607  50.9160948   1.9441761  59.7239542
  79.3163872  40.9237862  31.4186120  79.2637634  41.5286064  32.1586490
  79.1290092  41.4659834  30.6523585  15.2624285  53.8556337  43.9262962
  15.6811607  53.0468655  43.6316919  14.3382442  53.6256409  44.0223074
  82.9689121  47.3108482  52.1372652  83.4316826  46.5331030  52.4490261
  82.6124382  47.7113628  52.9301977  47.5064802  13.4495378   5.3238779
  48.0664158  13.3951080   4.5494479  47.8256464  12.7545607   5.8995271
  12.2801089  73.9140844  45.7025337  12.1470010  73.8923979  46.6501856
  13.2298279  73.8666534  45.5929232  10.0483131  33.5271645  17.2070682
  10.6568229  34.2335081  17.4239254   9.1812414  33.9240193  17.2902846
  60.3805733  68.6400747  52.4531937  60.0535536  69.3435240  53.0139494
  61.3212299  68.6120033  52.6281309  11.4581251  43.9017248   2.9266968
  11.8222845  44.7215414   3.2606411  11.8358517  43.2253075   3.4888452
  26.5977597  45.2906227  58.6990690  27.5060868  45.4177809  58.9729357
  26.1255765  45.1100159  59.5118761  72.9263544  68.6250114  38.4618592
  72.6039028  68.1461763  37.6983309  72.1503878  69.0570116  38.8189077
  39.2070675  74.3235731  31.6358185  39.2099857  75.1894426  31.2277794
  38.5911036  74.4040585  32.3640656  83.8072300  59.1822863   3.2196322
  83.1533337  58.8372087   2.6117095  83.3118725  59.7566509   3.8035476
  11.2852192  42.6833725  59.2817163  11.1409342  43.1792879  58.4758139
  10.4236555  42.6453352  59.6970415  10.8443069  65.1621008  14.5545316
  10.5086768  64.7570419  15.3542268  10.1035666  65.6605339  14.2094231
  75.9609509  22.2104883  19.8441029  75.2177238  22.0635295  20.4291224
  75.5710840  22.2703075  18.9719450  36.9067669  10.3048778  49.9476719
  37.5480127  10.9956813  50.1144838  37.3531961   9.7022140  49.3529224
  81.3144016   2.1104112  43.9067841  80.7059193   2.7433869  44.2879963
  82.1116257   2.2001269  44.4289160   4.5870373  66.2418270  50.8472443
   5.4782361  66.5735626  50.9565544   4.3505284  66.4813662  49.9511862
  16.1553669  43.6164522  36.2406993  16.0188305  43.7645197  37.1764684
  16.8717182  44.2066860  36.0068297  59.1644144   1.7139187  60.4232025
  58.8947201   0.9837958  60.9803486  59.1404104   1.3587506  59.5346594
  55.1619339  34.1509199  67.2588301  56.1033010  34.1040587  67.4257660
  55.0500822  33.7409306  66.4011431   1.5460692  40.4849911  10.7906735
   0.6805392  40.8191967  10.5553067   2.0675470  40.5890083   9.9947631
  39.0417004   6.1331987  29.8287678  38.6469078   5.3763413  30.2618265
  39.1580963   6.7758101  30.5285788   1.8221998   6.9975853  28.6285830
   1.6858244   7.7714229  29.1752172   2.6517612   6.6311705  28.9348507
  81.0605621  37.0461154  10.7907271  80.9765339  37.2143579   9.8521829
  81.7625332  37.6305461  11.0769188  71.7602015  62.6115894  66.3566780
  72.7150059  62.6470470  66.2989902  71.4786100  62.3185921  65.4900217
  19.3293476  40.7036209  66.0433674  20.0439405  40.0671387  66.0214567
  18.8372886  40.5390644  65.2389812  42.6373529  49.4050169  26.6438484
  42.0169592  49.7932100  27.2608209  43.4830427  49.7832203  26.8846750
   1.8522052  25.2092648  15.6900060   1.5494196  26.1014485  15.8590102
   2.2993153  24.9513388  16.4961064  28.3636332  57.4926090  47.4689627
  28.6114073  57.0248985  46.6714096  28.1854987  58.3865643  47.1768284
  27.6420236  73.6647415  60.9161043  28.1522059  73.4296989  61.6911507
  27.3913574  72.8251791  60.5306959  77.3822355  27.5538158  62.3378515
  77.3158455  28.1454754  63.0873632  76.4748478  27.3416471  62.1190786
  33.3818245  73.5430527  60.7204199  33.8814330  73.4725475  59.9069977
  34.0473080  73.6041164  61.4057207  30.8373046  64.0430212  44.1966295
  29.9008465  63.8459110  44.1759968  30.8800197  64.9979591  44.2465925
  58.0438805  30.3546548  40.6847525  58.6581612  29.6258116  40.7723761
  58.0027819  30.7398105  41.5600777  26.4807034  49.2971420  67.7125645
  26.3519216  49.7860479  66.8997812  25.8752608  49.7016525  68.3338881
  11.8602574  54.3043375  20.7414889  11.2329125  54.2841911  20.0188112
  12.6385653  54.7209406  20.3714776  58.1473207   0.2511315   6.2400335
  57.5612259   0.5933658   5.5650520  57.9079628  -0.6722578   6.3193446
  74.1471624   7.3830479  45.7293510  73.8663340   7.0560354  46.5840006
  73.8888454   6.6970837  45.1137543   0.4501636  69.1028738   1.6443028
   0.5576918  69.2017412   2.5902915   0.8798635  69.8732138   1.2725979
   4.1645899  33.2860208   1.8818755   3.2160535  33.3247566   1.7593589
   4.3783623  34.0915108   2.3527469  22.4226737  26.6907883   4.1934794
  22.9974842  26.0889363   3.7206146  21.7070246  26.1395288   4.5100099
  68.6738443  11.8891203  66.2400150  68.1307507  12.1779275  66.9734144
  68.0878115  11.3550580  65.7037544  50.2367640  64.9129057  25.5730009
  49.5401907  65.3388548  25.0734115  51.0003042  65.4764271  25.4477572
  51.0070181  75.9692574   5.2696204  51.6445684  76.5153885   4.8097304
  51.0387230  75.1283360   4.8134673  59.6197081  10.7781851  52.5041485
  59.9178410  11.6120863  52.1408892  60.1967049  10.1247430  52.1087742
  62.8533745  10.8014548  50.6589556  62.5152826   9.9289560  50.8606243
  63.7578487  10.7860637  50.9718800  27.5503278  75.5500984  50.0780153
  27.9608417  74.6856689  50.0562048  26.7901039  75.4398775  50.6491041
  20.5426407  62.3178768  37.2548151  19.9606156  62.3783636  36.4973068
  20.6389737  63.2214737  37.5555968  55.4975319  10.0268960  59.9952126
  55.8007383  10.3374708  59.1420746  54.5487547  10.1514709  59.9720907
  51.5837908  62.8765488  44.1215038  51.0175276  63.6346436  43.9770460
  51.9026804  62.6460552  43.2489109  25.8880663  63.7018728  56.9349384
  26.3704872  64.4941998  57.1709824  26.2116957  63.4752083  56.0630894
  27.8603268  67.5383902   7.4216843  28.0988336  68.1354284   6.7125344
  28.6954951  67.1860600   7.7292359  63.4890223  52.9303932  30.5319166
  64.3100834  52.5235939  30.8086991  63.0692387  52.2708988  29.9795794
  44.4988108  68.7474728  11.9820166  44.4210196  67.9073238  12.4340498
  44.2007732  68.5681438  11.0902500  29.7222066   4.8399249  64.5884514
  28.8199663   4.5916092  64.3871212  29.6681166   5.2662528  65.4437590
  74.8246717  43.6601782  61.1897087  75.2708912  44.3948889  60.7686138
  74.0360069  44.0457869  61.5712118   8.1809008  40.8503580  64.1255903
   7.3754275  40.4871225  64.4937038   8.1262743  40.6546974  63.1901932
  14.6292377  67.7530289  61.2350655  14.7694814  68.3242130  61.9902563
  15.0313413  66.9213676  61.4858389  46.2784052  78.9840555  33.5341024
  46.0772610  78.0518246  33.4521461  47.0516205  79.0136147  34.0975714
  28.0528641  35.5570459  61.0624027  27.5757670  36.3867640  61.0757017
  27.3855710  34.8941851  61.2400770  14.5489454  19.0301442  28.7849331
  14.0981448  18.3655965  28.2639861  15.4758680  18.9065683  28.5805464
   4.3650246  15.8620965  10.6977665   3.5625935  16.0144508  10.1986420
   5.0700235  15.9933662  10.0637507   1.9891280   5.1434577   9.5334196
   2.2519110   4.2717820   9.2378551   2.4617928   5.7442856   8.9573771
   8.9408255  12.5802803   8.0029905   8.2501382  12.4870038   8.6591017
   8.4735292  12.6347077   7.1693814  81.8226051  77.4617815  53.9978361
  82.1920490  77.7842093  54.8198938  82.5769997  77.3702717  53.4158087
  58.2654238  27.1097636   2.4600588  57.4033308  26.8723202   2.8015888
  58.3857584  28.0212975   2.7262571  62.8942251  -0.1376004  18.9547205
  63.5891676   0.3890046  19.3496609  62.1970940  -0.1448733  19.6106040
  37.5677657  55.3485680  10.6855381  38.4693170  55.0827026  10.8665097
  37.6337934  55.9080172   9.9116570  80.6462574  64.3817663  50.3645849
  81.4883137  64.3396568  49.9113846  80.4700756  63.4782791  50.6270742
   7.7221638  15.3066742  13.8582730   7.8060865  16.2551475  13.7603605
   7.6181972  14.9818301  12.9639018  63.3664465  39.5353961   6.1075330
  62.8812933  39.2113018   5.3487027  63.8691711  40.2773476   5.7713604
  62.1015263  79.2480326  20.8536863  62.4844265  79.0412998  21.7062593
  62.7052546  78.8608789  20.2197623  22.2966099  36.7943788  62.2117853
  23.1269264  36.9274879  62.6690435  22.0068884  37.6766562  61.9796610
  60.2069235  33.4586740  49.4319344  60.0279665  34.2427850  49.9509478
  61.1319017  33.5328364  49.1971016  21.3999605  48.7033224  10.9518313
  20.6888151  49.1614723  10.5039406  20.9594178  48.0479956  11.4928460
  40.8839369  23.7391472  56.7144823  41.4140797  24.1035557  56.0056877
  39.9885464  23.7551737  56.3764668  23.0986452  63.6112452  48.8645458
  22.2667933  63.9777660  48.5646772  23.7601662  64.2233562  48.5421467
  66.5431118  10.5033624  60.6203032  67.2896862  11.0300171  60.9057808
  65.9658289  10.4728436  61.3832235  40.7108021   0.7147539   9.8015803
  40.5685902   0.8919504   8.8717365  41.6510725   0.8413492   9.9284589
  77.7066755  17.1910012  49.0307999  77.1578169  17.1143174  49.8112535
  77.2443533  16.6854990  48.3622503  28.2599354  64.3301630  40.9451389
  27.5859737  64.2911100  41.6237307  28.1440806  63.5218477  40.4457045
  10.7129383  49.4864321  35.0500321  10.5586600  50.1367044  35.7352924
  10.9775376  48.6977243  35.5234814  63.5227108  72.3739529  58.3043337
  64.1970015  71.9374371  57.7837372  63.5988998  73.2984400  58.0682182
  70.1160383  12.6178062  27.4282789  69.7636509  11.7367864  27.5542068
  71.0656023  12.4973011  27.4218202  40.4040432  70.8573961  63.3714676
  41.2407780  70.5425358  63.0294609  40.4671240  70.7256126  64.3174505
  49.8392582  77.0663738  53.9144945  49.6534348  77.5487518  53.1088781
  50.7916880  77.1043062  54.0020943  29.0178323  15.7656491   6.2797600
  28.5592675  16.4287591   5.7637811  28.5103202  15.6982756   7.0885384
  48.4839344  56.5507364  51.4173174  47.8895855  57.2015905  51.0439920
  48.8773918  56.1218929  50.6573725  79.4977331  16.2018931  46.4896154
  79.7696829  16.2616587  45.5738068  80.2773476  16.4479268  46.9875145
  20.8354092  19.5314169   3.8215366  20.0463247  20.0297976   4.0341249
  20.5612040  18.6157238   3.8720185  34.9572659  54.6371841  33.8026929
  35.8741164  54.5374823  34.0589666  34.6614575  53.7454653  33.6194801
  57.8922081  61.4658213  66.1215973  58.0742788  60.5378199  65.9736204
  57.6553726  61.5187550  67.0475245  54.9428797   8.4770077  10.6748307
  55.5663490   7.7536017  10.7396615  54.7501802   8.5440361   9.7396278
  22.3646474  54.9554491  13.6294127  23.2721019  55.0285149  13.3337462
  21.8433571  55.2070713  12.8670645  18.6315620   7.5431430  35.5182910
  18.6773288   6.7502022  36.0525036  18.1571484   8.1715739  36.0625672
   4.8181519  49.3469191  11.6541243   5.1852435  48.5777283  12.0898044
   3.9810205  49.4946861  12.0941329  29.9930882  73.8167334  11.3902950
  30.7188320  74.3508148  11.7132246  30.2115369  73.6444044  10.4744267
  35.2307916  24.2753530  25.8147550  35.8395338  24.2876983  26.5533423
  34.6669745  25.0358129  25.9563375  50.1962328  52.0676422   5.2945215
  49.5518303  51.6340065   5.8539277  50.6467390  52.6788092   5.8774054
  50.4442930  60.8211517  58.2203007  50.5627680  61.6634512  58.6593103
  51.2594032  60.6862402  57.7369547  66.5818310  21.8161345  18.5902786
  65.6373930  21.7104626  18.4757924  66.9621229  21.0474730  18.1651103
  70.2315569  11.7130542  43.9407873  70.3747034  11.2734175  43.1026554
  69.7509336  12.5093305  43.7145567  51.5747023  12.1234035  50.8556795
  52.1881008  11.6459262  51.4142418  50.7734632  11.6001821  50.8778620
  52.4295235  78.5637903  67.6177406  52.6485109  77.9364252  68.3067179
  53.0565453  79.2773819  67.7354670   1.0937931  13.2080495  62.0061731
   0.5123272  13.3251476  61.2548971   0.7264128  12.4614525  62.4793053
  63.6973953  16.6633797  31.8360329  63.1868982  17.2227395  32.4214768
  64.2167616  17.2744524  31.3134623  68.7233448  68.0444050  51.3151264
  68.1293154  68.7024450  51.6761541  68.2375956  67.2221375  51.3796043
  63.7464285  58.3556652  63.8239384  63.9533234  58.3645248  64.7584677
  62.7915478  58.2980728  63.7905598  17.4275064  75.4672527  50.3422117
  16.7490315  75.4443836  51.0170269  16.9656610  75.7333326  49.5471430
  79.0969276  11.5476298  35.4978204  79.6523094  11.0084128  34.9347687
  79.5905542  12.3593819  35.6145144  57.9973125   5.4905391  57.1315289
  58.7421322   5.7443380  56.5864992  57.8498268   4.5684442  56.9212389
   7.4875700  45.2773762   3.2969835   8.3863211  45.5573511   3.4704551
   7.5267881  44.3211555   3.3154804  16.6156971  34.2323685   2.8749794
  17.0697320  35.0307775   3.1444767  15.7973349  34.2430520   3.3713666
  69.8965025  10.4046381  53.0468512  69.8027992  10.0788963  53.9420319
  69.0006781  10.5875969  52.7635574  59.1110229  51.1581802  44.2843294
  59.3661785  50.8343172  43.4204769  58.1745768  50.9691191  44.3440056
  49.6299934  78.4035349  42.4282646  50.1854420  79.1305637  42.7095747
  50.1247406  77.6188564  42.6643515  56.0457325  55.6044388  43.1197786
  55.7816076  56.3176394  43.7010002  55.2211094  55.2209282  42.8211975
  31.2714267  17.2895575  48.1088161  32.0073175  17.0008409  47.5690556
  31.1447382  18.2077146  47.8697157  31.7967725   4.9852237  61.9975281
  31.1201239   5.5782008  62.3242617  32.4346209   5.5597597  61.5741014
  81.6275024  50.2644062   8.4060735  80.8194923  49.8583746   8.7198853
  81.3367462  50.9092712   7.7612168  24.0357947  51.2671566  67.6738882
  23.4206843  50.8408165  67.0771456  24.5073628  51.8933678  67.1245956
  55.7426453  72.0829296  46.9449186  56.6987991  72.1210384  46.9682741
  55.5426359  71.5618658  46.1672831  32.3085546  31.1073327  28.9813018
  32.8986788  31.6150451  29.5382714  32.2429729  30.2564454  29.4148040
  32.2326159  65.0331163  56.7659426  32.8908491  64.3602324  56.5921879
  31.4637160  64.5454264  57.0612097  75.1347685  29.4789338   9.2969173
  75.4359245  30.2262354   9.8137110  75.1939631  28.7343407   9.8955083
  51.3205433  59.1794682  42.3363924  51.1045790  58.2481384  42.3834419
  50.6749535  59.5447779  41.7314148  58.6173534   2.8646129  52.6691771
  58.7994719   2.0703852  52.1669149  57.7524090   2.7138278  53.0504465
  80.8705902  33.0361843   6.6445130  80.0696564  32.8663325   7.1403861
  81.5784645  32.8339481   7.2562653  49.6820498   2.1651432  49.9386072
  49.7064447   2.2914669  48.9900923  49.4618845   1.2404727  50.0515032
  58.5582209   0.9064092  68.2545805  58.3303642   1.7856556  67.9525232
  58.8435411   0.4480647  67.4641752  37.9587173  67.0955372  44.1215134
  37.5397921  67.8263569  43.6669445  38.7768459  67.4605227  44.4586802
  53.4265089   8.2037824  39.2045021  54.1209221   7.7829593  39.7113895
  53.3439207   9.0761834  39.5896339  59.3315411  18.5632753  31.9634438
  58.7238932  18.0572307  32.5028110  60.0280285  18.8228345  32.5665736
  79.3980694   2.9382500  26.3122606  79.4329166   3.7170935  26.8676186
  79.8265791   3.2047102  25.4988670  82.0214939  78.7503195  36.4536190
  81.6416359  79.5324659  36.8538570  81.4445877  78.5548639  35.7152390
  72.9822636  65.7175875  65.7052898  73.6191273  65.8399057  65.0012541
  72.2621918  65.2376366  65.2961731  45.5295515  63.8514900  18.5112941
  45.4486036  63.4513855  19.3770874  45.7333612  64.7695446  18.6898041
  77.5628138  27.5399685  55.9536600  77.4145889  27.7622342  55.0344992
  76.7233467  27.7122259  56.3801098  42.9023790  76.8691397  48.0475760
  42.0437860  76.7338753  48.4485102  43.5257339  76.7040443  48.7549686
  75.3589106  40.2314186   8.6836970  76.1690331  40.5315733   8.2715780
  74.7555065  40.0936604   7.9535216  32.5400138   3.8279381  45.0717211
  32.1516752   2.9979950  45.3485250  33.4833694   3.6660290  45.0814915
  32.9641318  76.5214062  58.9413214  33.4690738  75.7379723  58.7233877
  32.1088719  76.1875057  59.2120123  47.6403141  69.5429373  56.0825396
  47.2828960  68.8502645  56.6381407  46.9709492  69.6819067  55.4125595
  73.2557106  59.5350170  25.3982377  73.4991980  58.8681984  24.7561312
  72.5527287  60.0287390  24.9759889  72.7896595  45.3534889  12.8294766
  72.9336071  46.1457491  13.3470082  73.6618376  45.1064682  12.5220501
   7.9548508  26.3696647   4.6701628   7.6852345  27.0905185   4.1010308
   7.6365858  25.5829835   4.2273638  25.7872319  72.4605942  49.1739607
  24.9373341  72.8858566  49.0596867  25.6857753  71.6060781  48.7547445
  39.4458222  73.8134623  39.6196580  39.6388555  73.7095976  38.6878943
  38.8615561  74.5705700  39.6602702  23.4087515  46.1739826  34.6129417
  24.2316127  46.5571594  34.9167609  23.4218311  45.2788782  34.9518299
  84.1985226   5.1586437  50.6969643  83.7284565   5.4743266  51.4687252
  83.8588905   4.2751446  50.5544329  60.4159641  10.3686976  41.9565296
  60.9318876  10.9888637  42.4717474  60.9940672   9.6147072  41.8402338
  45.2216816  75.9718704  41.5178013  44.8767185  75.1064873  41.2979364
  44.4559097  76.5459681  41.5023613  38.6341476  69.7665405  47.7610016
  38.8853455  68.8519096  47.6322126  39.1688776  70.2524662  47.1331644
   6.3285100  64.9341726  62.8418112   6.0220706  64.1121340  63.2246685
   7.1926224  64.7255945  62.4867964  21.4511943  67.0153379  46.3489771
  21.3782048  67.9594421  46.4888573  20.5536246  66.6917419  46.4257193
  73.0422831  74.0111971  46.9148874  72.5665379  73.1826115  46.8570185
  72.6580858  74.4557047  47.6705551  -0.0408806  31.9914770  30.5527496
   0.2721190  31.1687350  30.1767707   0.6885454  32.3026729  31.0887790
   6.2530196  16.7839277  41.9426346   5.8951688  16.5542877  41.0850525
   5.7492214  17.5509644  42.2147989  33.3434749  51.8764830  17.2596967
  33.6814618  51.1175108  16.7843473  33.8350105  52.6182938  16.9070756
  64.5154524   0.6781761  57.3009157  64.2823458   1.6064405  57.3157263
  63.6755610   0.2198486  57.3283911  50.8949566  60.4267883  68.3939743
  51.1345005  61.1012316  67.7583838  50.7866955  59.6324444  67.8709745
  66.2266970  60.5842495  14.7042561  66.2761497  60.9483194  15.5881333
  65.3665781  60.1660347  14.6652627  63.9480114  78.0553865  36.3528109
  64.8486376  78.3657169  36.2590098  63.6458302  78.4420109  37.1746588
  46.8315744  68.6466169   0.7187451  46.3308764  68.4998369  -0.0837421
  46.2969542  68.2552719   1.4095837  39.0019178  19.1131067   6.4917004
  38.2319117  19.1247797   7.0601958  39.7419024  19.0254498   7.0925075
  17.0840693  28.5202026  53.6871004  16.2299216  28.3242011  54.0721273
  17.5918508  28.8929033  54.4078493  11.3886988   7.0907396  50.6311083
  10.7201600   6.9592571  51.3034201  10.9105039   7.0353878  49.8037672
  68.4332275  41.9582987   3.9215538  68.2142735  41.0330343   3.8112083
  68.4275579  42.3134279   3.0326861  47.7940750  58.6682081  47.9180765
  47.3276663  57.9906416  47.4285841  48.1800365  59.2277527  47.2441530
  75.0197268   5.3155226   8.0743617  74.7031116   4.5964456   8.6210930
  75.7648659   4.9460280   7.6005745  14.5173061  60.3554440  26.3937283
  15.4522896  60.2432775  26.2221026  14.1410089  59.4876862  26.2466836
   3.0446872  39.0453672   5.8179104   3.1996906  39.6550846   5.0964874
   3.9203903  38.8017106   6.1179233  78.1095791  40.8147287   4.4785014
  78.0928278  41.1802435   3.5939962  78.1313610  39.8670411   4.3456605
  79.1823292  11.1827767  66.5769577  78.7601423  11.6353345  67.3071527
  80.1058197  11.1379540  66.8247128  33.2131553  11.9241965  58.3952093
  32.7318811  11.3303947  58.9714098  33.3853960  12.6951766  58.9357185
  79.6513987  72.7537966  50.8707762  80.0284481  72.8720140  51.7426109
  78.7877703  72.3741531  51.0327911  81.6673183  53.2168722  31.4883995
  80.8668137  53.6724043  31.2277842  81.7509556  52.5005150  30.8590627
  26.7573905  74.0138435  66.2102509  27.5202298  74.3026590  65.7093573
  26.7301726  73.0659437  66.0799408  35.9207296   4.6687803  58.3868885
  36.2525105   4.0297782  59.0176249  36.2229729   5.5135959  58.7203074
  78.2393217  66.2598848  48.8715792  78.9393187  66.0093641  49.4744682
  78.5894251  66.0625839  48.0028248  66.5805817  52.7948856  32.5186849
  66.4263773  52.2775459  31.7282343  66.0667181  52.3557091  33.1964040
   9.5876157  28.7981009   4.5220071   8.7177163  28.4575748   4.3133238
   9.5937824  28.8707066   5.4764295  42.8935814  76.3542652  54.0677786
  42.2992420  76.0037327  53.4043646  43.0620193  75.6155777  54.6527576
  24.8798513  66.1803150  63.5371876  24.4960093  65.8209229  62.7373552
  24.4764757  67.0434427  63.6295748   7.5079483  21.1429572   3.6448425
   6.7093235  21.5963221   3.9148262   7.2087544  20.4821301   3.0203253
  26.1073184  60.8807993  57.8543854  25.9311986  61.5343666  57.1775866
  25.4817510  60.1782322  57.6774693  60.5238342   0.3258529  24.0272236
  59.6744728   0.7099764  23.8098240  60.3764153  -0.1270583  24.8575068
  36.7840099  56.8987560  65.7894659  36.9976807  57.0709515  66.7064857
  35.9845352  56.3735390  65.8243656  32.7275157   0.1304389  63.7247276
  32.6794669  -0.6943130  63.2412958  33.4060573   0.6330825  63.2739925
  14.8685467  61.1278391  38.2496619  15.8157814  60.9968185  38.2922339
  14.7644794  62.0070314  37.8857613  38.9249158  73.2653713  56.2815428
  38.8407803  72.3476458  56.0228348  38.6531591  73.7583447  55.5073595
  43.8304472  61.9182920  39.0008736  43.7332678  62.6052618  39.6603107
  43.0756378  62.0321608  38.4233522  73.6079550  15.0728881  15.5625308
  72.8430748  14.7218513  16.0185623  73.4767389  16.0210264  15.5695629
  66.7475653  54.1887236  48.6546516  67.2290182  54.2432404  49.4801569
  65.8571339  53.9497185  48.9120293  13.7276316  66.3387871  64.5249176
  13.7401223  65.5343914  65.0435925  14.0561426  66.0747433  63.6654997
   2.1926887  69.2576313  13.0529726   1.6515309  70.0028133  13.3139026
   2.6263475  69.5461082  12.2498822  14.6416044   1.9899510   9.0458643
  14.2835045   2.4837530   8.3081949  14.0136385   2.1292239   9.7547317
  34.7755051   1.0917041  62.3040104  35.2330422   1.7394969  62.8399754
  35.2421856   0.2722763  62.4682713  28.9296556  20.4528904  64.0571070
  28.0651712  20.0732803  63.8996315  29.5435715  19.7616160  63.8091564
  71.9057655   5.0794035  60.6561422  71.2592983   5.6375360  61.0883427
  72.7432632   5.5140775  60.8170557  12.2706103  60.3614473  64.8314095
  12.6718378  59.7123098  65.4092216  12.3763347  59.9975538  63.9524126
  17.8688502  10.4650521  46.7221975  17.8815436  11.1874604  46.0943460
  18.2841587   9.7376925  46.2588453   0.0642821  65.7416582   2.7680290
  -0.5300838  66.2609625   2.2264701   0.9374955  65.9599781   2.4423493
  53.8907433  62.6552391  55.6436062  54.4262743  62.9413176  54.9036074
  53.9657784  63.3645582  56.2819386  55.4430246  69.8975801  41.8135118
  55.0157309  70.5173445  41.2222958  55.2391529  69.0372515  41.4467669
  78.1848621  68.0565214   3.2740238  77.6210976  68.4043455   2.5830692
  77.5773907  67.6965570   3.9202702  13.3989358  43.7704754  35.1674986
  13.4957337  44.6352625  34.7687459  14.2404640  43.6076403  35.5935836
   9.2186338  67.5536919  28.9019799   8.8188285  66.7283249  29.1761208
   8.7231356  68.2265520  29.3688607  70.3319693   6.8806076  62.1688652
  69.5590401   7.1481436  62.6660919  70.4281664   7.5537258  61.4951515
  39.0490818  67.0912933  47.4755144  39.3427491  67.0381689  46.5660286
  39.7226000  66.6266394  47.9722071  28.8101768  45.4182577  36.3180733
  28.3116221  46.0877657  35.8496380  29.6852732  45.7942057  36.4134550
  63.1260157   6.4606279  49.7317791  62.2797108   6.9066739  49.7640467
  62.9105806   5.5317926  49.8159361   1.8564832   3.8745770  63.8252974
   2.5550205   4.4967538  64.0282106   2.2589080   3.2516521  63.2201099
  30.8714938  69.2290401  49.8918915  30.5899858  68.6820650  49.1585445
  31.3746357  69.9345064  49.4851971  47.4436569  64.8388243  51.9930696
  48.2987642  64.9878216  52.3965883  46.9025421  65.5647945  52.3035383
  68.9748669  70.7077980  33.5942292  68.4773016  69.8942614  33.5116148
  68.3082056  71.3868284  33.6977410  15.1740706   1.0379528  50.3031731
  15.3540301   1.5116477  49.4911003  14.9630332   1.7225219  50.9380436
  77.2126245  31.4956641  51.3615751  77.6453590  31.4903665  50.5077934
  76.9966507  32.4154854  51.5149260   8.2321411  62.3066521  41.0894299
   9.1687727  62.2797489  41.2849522   7.8503340  62.8020144  41.8140459
  67.4354792   1.5394154   1.5168588  68.3181381   1.7855532   1.7935631
  67.1590614   2.2499138   0.9380525  16.5911102  28.4434891  10.5950010
  17.3215890  29.0575266  10.5202305  16.4978731  28.0741143   9.7168779
  61.3481760  61.4491272  63.5341549  61.5958643  60.5891609  63.8737822
  60.6707144  61.7581463  64.1356421  52.7838993  64.2251682  64.8177862
  53.0249023  64.0200901  63.9144087  52.9273224  65.1683474  64.8957205
  13.9544642  41.5881777  21.1274314  13.6239231  42.3423147  21.6155386
  14.7532618  41.3348818  21.5900254  57.8033829  13.0870509  37.6980472
  57.5645399  13.2968020  38.6009264  56.9663858  13.0173755  37.2388959
  57.3925018  66.1906385  32.0815015  57.0421410  65.7605791  32.8615832
  57.9123497  66.9185162  32.4223638  17.8574240  71.3866758  59.4659710
  17.8023517  70.7782269  58.7290907  16.9528818  71.4855480  59.7630548
  58.9395094  62.6069069  44.0370989  58.7013388  61.8303204  44.5434761
  59.6565104  62.3151064  43.4740782  65.6734800  11.8156886  48.9331579
  65.5900145  12.7488184  49.1294575  65.9359932  11.7870295  48.0131054
  63.1481695  24.2107224  33.1580114  62.8988743  23.2885313  33.2183909
  64.0875435  24.1933966  32.9749584  41.1845589  76.1063242  60.1133919
  40.4957914  76.6619349  60.4782581  41.8560410  76.0785055  60.7949877
   6.0038710   8.4982723   2.0962770   6.8081319   8.9941496   2.2495840
   6.3026583   7.6611829   1.7409763   8.3639687   8.4044617  32.6575279
   8.7065619   8.9436263  33.3703852   9.1433698   8.0866724  32.2017050
  23.6324549  55.4805803  37.8037786  23.0552459  55.9929609  38.3699322
  24.3355894  55.1857758  38.3825040  29.0710306  34.6629810  17.5844014
  29.9856997  34.7950459  17.3350561  29.0967822  34.5403504  18.5333645
  79.4260502  26.0779977  49.6411896  78.8515854  25.3254914  49.7824526
  80.2815533  25.7892132  49.9589157  39.6325970  72.8475189  61.9740009
  39.9111867  72.0943213  62.4948788  40.1698732  72.8036261  61.1830282
  77.6269531  42.5355911  53.5713100  77.5632429  41.5951300  53.4048653
  78.5216713  42.7634525  53.3187437  51.1704874  59.8878288  61.3377810
  50.7100105  59.2727518  61.9086361  50.4749680  60.3267574  60.8480644
   6.6066861  47.4471426  17.6594520   7.4715209  47.1331644  17.3954248
   6.6545135  47.5067091  18.6135983  77.8336143  67.1229315  28.0931020
  78.6150551  67.5553989  28.4374189  77.4457264  67.7661180  27.4997330
   1.0366582  61.7903090  53.8167143   1.0837425  61.5841961  52.8831530
   1.8237442  62.3074675  53.9878082  66.7426729  24.3155074  13.4369707
  66.2354088  25.1223445  13.3479178  66.6895103  24.1007257  14.3682456
  60.1351070  22.7298570  35.9199309  60.4001236  23.5877442  35.5882263
  59.1862202  22.7969408  36.0264683  55.0957441  16.9961929  57.9347992
  54.3634319  17.5491679  57.6624584  54.7165585  16.3953388  58.5762262
  35.8536005  67.4562025   9.5002985  35.2653694  67.0555735   8.8602126
  35.2732062  67.9341793  10.0926769  41.8197966  55.0970650   8.9059222
  41.2022638  54.3852186   8.7381172  42.6551914  54.6572351   9.0636814
  76.1700487  14.3335927  60.7096958  77.0227861  14.7674906  60.7380915
  75.8863401  14.3029952  61.6233730  22.7342176  21.7145562   4.3629172
  22.5484848  20.7910848   4.1928077  22.4150872  22.1704602   3.5841119
  49.2715311  33.1805182   4.9952465  48.5926008  32.5092912   4.9264133
  48.8819695  33.9572668   4.5938271  72.1198416   1.2936664  18.6960208
  71.5378475   2.0318776  18.8764572  71.7397356   0.5638952  19.1850877
  48.7800455  58.4805918  19.4102478  49.1953182  58.4538937  18.5482335
  49.4243336  58.9096594  19.9732995  54.2082787  13.4069800   3.5471603
  53.8615894  13.0195284   4.3508509  53.6378098  14.1565859   3.3771938
  39.7915912  38.2228541   2.2092031  39.1182137  37.9900432   1.5699910
  40.3024578  37.4212313   2.3216577  23.1685662  57.4118519  20.4909706
  24.0706134  57.0921659  20.5095482  23.1904960  58.2206059  21.0025048
  12.1051478  14.6522141  44.0789318  11.4662945  15.1763248  43.5958099
  12.9391241  15.0998318  43.9362621  79.5076704  70.4189396  20.3752637
  79.1768599  70.7394075  19.5361590  79.4234133  71.1664391  20.9671879
  28.2525611  49.1245079  25.9499621  28.9335561  49.6022511  26.4234996
  27.6618767  48.8087845  26.6338062  21.4149976  36.8647218   3.1261873
  21.3886976  37.4118328   3.9111772  21.4332366  37.4882507   2.4001636
  24.9447584   4.4602463  58.3929968  24.6538544   3.9521876  59.1502857
  25.8092260   4.1059610  58.1846476  74.9531651  20.6779289  55.8036900
  75.5886364  20.0319982  55.4951763  74.9931955  21.3815904  55.1560116
  50.8439684   8.1835097  67.7262878  51.0948086   8.1910455  68.6500025
  50.7395029   7.2560048  67.5140285  71.2711477  24.9953127  38.3885169
  70.3207445  24.8920178  38.3406687  71.4225531  25.9175563  38.1816936
  41.5478230  10.2593350  59.2871809  42.1357632  10.5882919  58.6072254
  42.0438099   9.5618039  59.7157621  83.5174274   1.6285890  63.2297039
  84.3835163   1.9979207  63.4020901  83.5087013   1.4687754  62.2859812
  74.0093279  10.7802069  60.8089876  74.8836040  10.6402552  61.1726952
  73.8477850  11.7162478  60.9271431  53.4680033  46.8583393  68.4832144
  54.0064764  46.1481619  68.1340361  53.0326986  46.4763832  69.2453480
  36.5414333  66.0438967  53.9819765  35.9475541  66.6564941  53.5480833
  36.4997745  65.2508068  53.4476519  71.1368847   1.1373071  66.6371489
  70.6850958   0.8132476  65.8579826  72.0426989   1.2623771  66.3541460
  83.1369495  61.8010235   4.4107518  83.0344009  61.8959427   3.4638062
  83.2183456  62.6983118   4.7339857  10.8084381  54.5216846  53.9822102
  10.1687038  55.1330376  53.6172199  10.3147638  54.0151072  54.6271086
   0.9377646   5.5962968  55.3392458   0.7023827   5.7343102  56.2567282
   1.8930137   5.6558079  55.3254843  83.9483643  61.5314674   9.0605563
  83.5404778  62.3931932   9.1459465  84.8038197  61.7090845   8.6695570
  25.0373816  26.7392731  61.6829538  24.2387009  26.8572283  62.1971798
  25.0576138  25.8033633  61.4832211  50.0801134  16.1999917  61.3312721
  50.2610874  15.3826749  61.7954636  50.9431076  16.5849948  61.1788082
  34.0864539  31.5875459   5.8845878  33.7606645  30.7605457   5.5293894
  34.0614438  31.4669180   6.8338269  78.0356646  26.0391259  43.0167866
  78.4616804  26.5601230  42.3361206  78.4249973  25.1688814  42.9311752
  35.6598043  23.1132317  33.9629006  36.3047266  23.2412338  34.6585464
  35.2437234  22.2771668  34.1729140  42.9489899   1.7753401  25.0646591
  43.6105394   2.3926631  25.3769040  43.1057596   1.7125210  24.1224766
  19.8877299  60.0613260   7.5217670  19.4629383  60.9043407   7.3632866
  20.7960749  60.1963234   7.2517335  23.3740664  28.5336590  53.9979076
  24.0035057  28.7942600  54.6703053  23.2022691  29.3368983  53.5064554
  10.0430119  11.6091001  16.6795480   9.2454803  11.7862332  16.1807501
  10.7452023  11.9885802  16.1511958  52.4183273  51.7199802  15.8137441
  53.1449366  51.2106705  15.4547524  52.0157242  51.1400938  16.4601767
  81.6596127  24.1494846  36.0395265  81.6533566  24.2293334  36.9933701
  81.4548206  25.0297260  35.7241416  18.2917738  27.8582048  29.9157476
  18.6504900  28.0749917  29.0551925  19.0051281  27.4052596  30.3654122
  39.6995592  66.8609524  19.8082888  39.9754310  66.1966085  20.4397750
  40.4111052  67.5012112  19.8079634  73.1384897  52.3113585  59.6912384
  72.7117348  53.1376886  59.9177074  73.2487965  51.8613243  60.5288124
  61.6446972  60.1420832  66.0071707  61.6658163  59.3173170  66.4925051
  61.3507605  60.7895851  66.6479301  25.1143813   7.0272845  34.1151571
  24.5066786   7.0384461  33.3756924  24.6706605   7.5310868  34.7974515
  11.4018345  78.8529634  61.4973164  12.0924652  78.2220411  61.2943363
  11.4816129  79.5223045  60.8177233  19.9939942   8.0229694  29.1722178
  19.1263425   8.1955433  28.8066649  20.5110836   7.7163965  28.4273243
  60.1380539  77.6174641  41.4742279  61.0870743  77.5047064  41.4205694
  60.0204563  78.5201979  41.7699862  70.6297493  13.0337751  14.0395188
  70.7196188  13.9830279  14.1236305  71.3333750  12.6775777  14.5819831
  28.5168015  67.6374125   0.2497759  29.1248470  67.3481511  -0.4305467
  27.8863571  66.9213866   0.3277388  81.1996651  47.6107359  60.4908037
  80.4967976  47.3676777  59.8882055  80.7696438  48.1480026  61.1561298
  51.7961407  33.7763262  15.3607213  52.6508570  33.6686349  14.9434757
  51.1778450  33.3823824  14.7452950  10.1713133  32.9822016   6.2829900
  10.3626812  33.8868737   6.0356468  10.9638381  32.4978662   6.0515726
  62.0075464  64.0488243  56.1725903  62.7244139  64.2922497  56.7583179
  61.2466097  63.9652014  56.7472267  39.6785140  10.9162104  37.5233126
  39.5171523  10.0888205  37.9767656  40.5707979  11.1562407  37.7732110
  69.1941357  10.8943951  58.9592409  70.0621367  11.2776971  58.8331985
  69.0471220  10.3702807  58.1718922  10.5704427  11.4973211  24.1349459
   9.8663628  10.8508086  24.1852021  10.9982121  11.3209355  23.2970119
  18.5644150  31.0241008  29.2155576  19.3668449  31.0301304  29.7373843
  18.6460185  30.2491331  28.6596847  36.0650754  12.9364967  49.2817593
  36.1221695  12.0008671  49.4755888  35.9001565  13.3472872  50.1304531
  31.7671323  18.7852645  32.2673249  32.4939251  19.3704259  32.0537996
  31.4412618  19.1051877  33.1085682  52.5073957  78.1752300  16.8904889
  51.7701864  77.7726793  17.3495233  52.2301865  79.0786457  16.7381001
   3.1784990  29.5204568  39.9321222   3.2789907  28.5701299  39.9870038
   4.0592435  29.8438907  39.7426176  30.9305954  38.7690735  20.9829545
  31.4736724  39.5301461  21.1880565  30.7362938  38.8579321  20.0499058
  84.2143059  30.6708646  34.1854978  84.4174671  29.7360086  34.2171025
  83.5890961  30.7558942  33.4656930  70.6749487  42.4856615  11.0335684
  71.0156345  42.8353167  10.2102196  70.0446653  41.8163967  10.7669961
   0.0107366  76.3065338  52.4700832   0.8113289  75.8432341  52.2238350
  -0.3523020  75.7911825  53.1903934  84.1801643   2.6901236  56.5709972
  83.8242149   3.5184851  56.2495232  83.4736824   2.3133413  57.0955372
  74.4259405  25.8845210  51.1325884  73.7807751  25.3485203  51.5937805
  74.8559475  26.3888836  51.8231964   0.0535261  56.0345411  56.2620449
  -0.4566526  56.7136478  55.8207226   0.8096164  56.4985800  56.6215277
  55.7117987  12.3302984  51.3004541  55.2228403  11.7472923  51.8811893
  56.0800934  11.7505527  50.6337547  79.3031073  47.5247669  65.1690435
  79.6592331  46.6440916  65.2865839  79.4567680  47.9592037  66.0080242
  73.8628578  47.0107698  46.5388203  73.8697481  47.0600128  45.5829144
  73.3581686  47.7759886  46.8144369   3.4385350  68.6389160  19.9014986
   2.7460781  67.9845905  19.9941909   3.8024682  68.4807539  19.0304244
  66.2997293   2.9618713   5.8345908  65.3540850   2.9659450   5.6863487
  66.6585016   3.4691229   5.1064354  58.9648914  42.7908182  60.4324436
  59.1808224  42.6713657  59.5075989  58.3616781  42.0748901  60.6319714
  12.6158965  46.9553185  29.1100669  12.8851449  47.0364332  30.0250316
  12.6392388  47.8509903  28.7732267   2.0259765  12.1549726  68.0256128
   2.0046501  12.0147932  67.0789719   2.8654149  12.5864518  68.1849909
   8.5210365  66.2300205  55.4701805   8.6266428  67.1784115  55.5452967
   8.8495803  66.0209560  54.5957756  27.2461128  16.0564590  48.1578255
  28.0900788  15.7244790  48.4640026  27.0781446  16.8241119  48.7043810
  20.4880977  13.4102428  36.2312150  21.4018345  13.1401455  36.3226843
  20.4306459  14.2305851  36.7210817  18.3503819  56.7716074  29.5666814
  17.8958082  56.7669868  30.4090452  17.6646709  56.9584846  28.9255047
  19.3295848  34.5330024  65.1669931  19.7148645  35.0190210  65.8960915
  19.9087393  33.7801862  65.0483322  82.0410061  18.6243546  58.5156822
  81.6777611  18.1424952  57.7726460  82.8738594  18.1896353  58.6989927
  55.0015783  70.4339886  25.2442551  55.9313154  70.4136229  25.4709935
  54.9171734  71.1763573  24.6459270  60.2229738  16.8235767  13.1506336
  60.7534742  16.4598083  12.4417782  60.0578070  17.7285326  12.8860462
  70.7351828  64.0216446  43.6848927  71.6550064  64.0896177  43.4288883
  70.3811121  63.3308601  43.1248236  25.1342916  56.8426704  55.7129431
  24.9224091  57.5970840  56.2626696  25.6219363  56.2551117  56.2901831
  41.1006975  73.3955669  59.3623114  40.6410027  73.2344723  58.5383224
  41.1355925  74.3493986  59.4345951  17.3086512  36.5995908  22.5230932
  16.9014311  35.7485819  22.6849103  17.7274144  36.8264842  23.3533883
  64.7690296  39.1423869  33.1301928  64.6296740  38.3013558  32.6949048
  65.1448917  38.9128423  33.9800572  79.5792150   8.4941131  65.8578920
  79.4362688   9.4396728  65.8993196  78.8386536   8.1188279  66.3343000
   7.9056263  13.5985947  45.1773977   8.8117462  13.6778164  45.4755592
   7.3807132  13.7511718  45.9631538  81.4397049  22.9607248  17.9978156
  80.4861259  22.9002476  17.9406202  81.7141247  23.2481718  17.1270120
  56.0580349  79.0853262  43.2498312  56.1915493  79.4835806  42.3897171
  56.5808105  78.2838345  43.2264185  49.5886612  41.8744946  13.6879122
  49.3736267  42.3621893  12.8928363  50.5226421  42.0352888  13.8222909
  68.1079197  67.6243114  26.3430667  67.3228931  67.0839500  26.4323711
  68.6572361  67.1476936  25.7207155  66.3278580  69.9083900  62.0627117
  67.0701647  70.2770424  61.5838575  66.2604380  70.4466581  62.8513527
  10.8740950  18.0339313   8.0335599  10.1345181  18.3533072   7.5165921
  10.5854774  18.1186497   8.9422703  36.6424680  11.0765529  37.5714827
  37.5189757  11.4165568  37.3915863  36.7740870  10.4297364  38.2646894
   3.4045738   4.4690675   2.6899663   3.2117382   4.2059839   3.5898739
   3.9691254   5.2367258   2.7806014  72.7899790  76.0369921  63.8438320
  72.0898294  76.0075188  64.4958735  73.0430508  76.9593430  63.8056612
  17.7821171  14.2992115  10.1631701  17.6513159  13.5808122   9.5442802
  18.6821127  14.1899288  10.4702485  27.1830511  16.8352032  65.0733757
  27.4603963  17.2600865  65.8850336  26.9198728  17.5573194  64.5028353
   4.5694453  40.3363848  57.3052168   4.1529495  39.5977998  57.7493477
   4.0199006  40.4951811  56.5377426  49.0471792  55.8588648   9.1777474
  49.7028160  56.5387106   9.3332446  48.3976078  55.9900999   9.8684472
  59.9726391  65.2650499   2.0705312  60.8335781  65.1143742   2.4607967
  59.5077848  65.7990408   2.7147359  31.6473103  72.1030474  13.8095748
  32.4950099  71.6585970  13.7993109  31.2586594  71.8972349  12.9593849
   9.9214882  22.7677178  49.3733215  10.2120066  22.0382690  49.9208021
   9.3584716  22.3626614  48.7136412  79.7251463  23.2290840  54.5930290
  79.6224928  23.4166050  53.6600065  79.7910976  24.0907311  55.0046682
   3.6671051  35.4912090  38.2619023   4.1540125  35.7731080  39.0362954
   3.7121364  34.5353603  38.2854915  47.1441507  67.3474169  38.8997459
  46.4737940  67.8356171  38.4217167  47.5656414  68.0019188  39.4567060
  77.9651213  37.2856283   2.4904603  77.5820446  36.7278624   1.8134208
  77.9347801  38.1675744   2.1196766  10.6845641  14.1805875   5.1796031
   9.8408157  14.6020854   5.0163281  11.0835767  14.7044921   5.8742577
  55.1183224  12.3092222   0.1046254  55.1236105  13.2565403  -0.0324583
  55.7664585  12.1633124   0.7937279  28.9122128  21.1961746  48.1492615
  28.8652015  21.5330267  49.0439987  28.0034280  21.0051703  47.9171896
  33.1674528  72.8380823  10.5513012  33.0361986  72.8601360   9.6033996
  32.7411866  72.0287800  10.8333588  22.7308798  48.2723522  61.6399813
  23.6276889  48.0216885  61.8616438  22.3925757  47.5316620  61.1368322
  78.0970049  29.7398233  17.6409113  77.4061394  30.3981495  17.7153480
  78.6011505  30.0075197  16.8725312   9.1116530  25.4140711  55.6157875
   8.9922100  24.5329523  55.9701824   8.2233238  25.7600021  55.5295563
  26.5553904  20.7358861  46.6272402  26.6462350  20.1472378  45.8779240
  26.0979843  21.5003872  46.2771702  41.2743902  52.1555614   8.1109190
  41.9926453  52.3071527   8.7252200  41.6994762  51.8100929   7.3259431
   1.2631156  45.5802536  43.9655495   1.2623157  44.7114134  44.3672323
   1.5102161  45.4226208  43.0543280  78.4824371   5.6250137  16.1118519
  78.9638758   4.9106261  16.5290987  79.0175343   5.8646274  15.3552222
  20.9090805  39.4762468  30.1668668  21.1494899  38.5540915  30.0770545
  21.3477612  39.7611523  30.9685040  21.5928698  75.2692413  31.7515564
  22.0225430  76.0928679  31.9823170  20.9286451  75.5175447  31.1086059
  76.8742657  31.7575812  33.1887889  77.2603035  31.0157609  32.7230549
  77.5044107  32.4684286  33.0711293  80.4127312  14.1555202  39.5665145
  80.3968620  13.2712162  39.9325562  79.5010376  14.4451702  39.6004319
   9.0778023  43.8782024  33.6031651   9.7441155  43.9190149  32.9171681
   9.5748556  43.8933039  34.4210553  44.1113091  78.9518642  43.5120201
  45.0336266  79.0944529  43.7246799  43.8393497  78.2397413  44.0909433
  60.1787281  41.3549519   1.5243272  59.3527794  40.9002161   1.6894345
  60.0236559  41.8483353   0.7188734   0.3670872  29.8069358  40.6830835
  -0.3173325  30.4706669  40.5978584   1.0596740  30.0996423  40.0907326
  66.1443853  75.3303385  56.2227440  66.3999987  74.6218014  56.8133974
  66.3995790  75.0213337  55.3534794  71.8252993  65.9557009   3.1504726
  71.7127085  65.9274197   4.1006070  71.6066599  66.8560553   2.9100716
  71.6167974  30.2077818   8.3655369  71.7906094  30.5138278   9.2556816
  71.8806219  29.2876863   8.3728099  80.4588223  37.1717954  16.2857521
  79.8736954  36.9688988  15.5558980  81.1025524  37.7759504  15.9158349
   1.0691489  16.1834967   6.5624619   1.9326870  16.0054088   6.1898780
   0.4960328  15.5297720   6.1619437  54.7462511  62.5238132  35.3472161
  54.6355295  63.0090189  36.1648631  53.8871336  62.5634050  34.9269962
  55.4675055   3.3782181  26.1567783  55.8781910   2.6183707  26.5693355
  56.0372543   3.5857424  25.4161334   3.5396716  78.6719322  47.2364712
   3.7591964  78.4135437  48.1316090   2.9285195  77.9992676  46.9360638
  60.3964329  13.4301805   7.7817148  61.2204599  12.9493117   7.8590226
  59.7620106  12.7735734   7.4943006   4.1603667   6.4588100  30.3264999
   4.7715062   7.0294076  29.8604989   4.3540853   5.5809855  29.9976730
  79.2620802  55.4607105  25.7031488  78.9298582  54.5885468  25.9157181
  79.4926357  55.4096699  24.7755337  21.4295793  23.1822419  39.1166520
  20.9920001  23.4174919  38.2984757  20.8922029  23.5834861  39.7996330
  23.0117297  79.0322733  67.8460550  23.7467957  79.2413998  67.2697067
  23.3282280  79.2438841  68.7242794  27.7348852   6.4398599  55.5539179
  28.5288620   6.9703346  55.6204510  27.8153276   5.7987046  56.2600899
  29.4198608  23.9229035  32.4242830  29.0244341  24.5928168  31.8665290
  28.9096260  23.1325102  32.2477269  32.3111320  75.1851654  12.2158992
  32.7724266  74.5166826  11.7093706  32.9575062  75.4925823  12.8514528
  27.4574804  37.8889370  66.9661331  27.7767372  37.4327588  67.7447271
  26.6937995  37.3830700  66.6884279  70.0852060   3.1290638   5.9065956
  70.9060860   3.0638522   5.4186004  69.4081640   2.9081106   5.2670437
  23.7588263  78.7855816  13.9135742  23.6162901  79.0878963  13.0166245
  24.5810676  79.1983938  14.1776526  34.7546148   8.0186385  21.6273594
  34.4378519   7.2111589  22.0321655  35.4025650   7.7268791  20.9860539
  27.9504442  54.9339294   7.5059104  27.2269988  54.3800402   7.7992785
  28.5664678  54.3263817   7.0964783  28.4502387  32.4126554  53.7258816
  29.3624926  32.5127125  53.4538317  28.0864835  33.2965183  53.6739063
  41.1718607   1.8594933  67.0179892  40.6988573   1.0577954  66.7948771
  40.6904078   2.5544414  66.5691233  79.0494728   9.1071951  16.7947197
  79.1232777   8.3586794  17.3867583  78.1112766   9.2938459  16.7604184
   1.9133341   4.3414599  20.7316732   1.3213444   5.0474548  20.4721522
   2.0250620   4.4572660  21.6752481  48.3122110  19.6255648  57.9905891
  48.0566311  20.3353548  58.5797453  49.0577602  19.9757564  57.5029898
  38.5042238  13.7674093  36.7430806  37.7202678  14.3007684  36.6120434
  38.4659123  13.1104708  36.0479593  21.0871267  69.0390110   4.7538429
  21.5235925  69.0239954   5.6056076  20.9371543  68.1169271   4.5452756
  34.0720367  47.5054264  66.2388611  34.9524951  47.2842360  66.5423346
  33.9089012  48.3793449  66.5936565  33.1799793  54.3155384   5.1702905
  32.5565982  53.9619923   5.8048230  32.8734112  55.2070379   5.0045300
  60.6343985  13.2067740  67.4438906  60.7902622  13.2612693  68.3867407
  61.3436413  13.7178087  67.0539522  41.8770552  24.9718380  14.9155235
  41.1653948  24.5454288  15.3929555  41.4377832  25.4747081  14.2296731
  44.0319586  11.6106403  58.5366583  44.3991280  12.4945879  58.5293627
  44.3412304  11.2295973  59.3584824  11.4771283  29.5944452  30.9229636
  10.5720353  29.3279028  31.0841846  11.7625737  29.9849153  31.7489696
  71.6689157  18.0862439  19.8387504  71.2265491  18.8899410  19.5655906
  71.1322451  17.3819947  19.4750845  15.0639939  12.6405585  13.7711310
  15.8703208  12.1264005  13.8124573  15.0255847  13.0939102  14.6132886
  45.4187727  12.8058422  53.3941412  45.7637262  12.1053147  53.9477682
  44.5181608  12.5413823  53.2065582  23.6384010  17.7868342  14.6373045
  23.8725662  17.8072500  13.7094140  23.8103819  16.8849409  14.9079394
  66.7656898  76.2834454  43.1124115  66.7919397  76.4966536  44.0451956
  67.3985624  76.8799019  42.7124882  10.4969120  19.7263861  50.1131153
  11.2995124  19.5627260  49.6178579   9.8222369  19.2342627  49.6452904
  13.4760463  25.2151942  52.1513844  12.5418651  25.2917051  52.3455143
  13.7077367  26.0548234  51.7544270  13.0433738  26.3560462  24.0214753
  13.4015930  25.7724953  23.3526134  13.2545781  27.2360253  23.7096095
  35.2150273  23.1688285  50.2203989  35.8535218  23.8576722  50.4049301
  35.7191396  22.4881959  49.7744846   4.9884617  41.1588383  50.4166603
   5.5681819  40.6606150  50.9927940   4.1067320  40.8845520  50.6687546
  37.8600359  50.4028463  22.9806376  38.5496306  50.2323771  23.6222219
  38.3121181  50.8231401  22.2490621  29.3379664   5.4048187   2.8718635
  29.5609879   5.6957024   1.9876233  30.1573491   5.4766762   3.3614376
  81.4970779  44.9671221  58.3461857  80.8776665  44.7582150  57.6469612
  80.9943295  44.8549128  59.1529560  67.8743505  44.4537735  23.5210085
  67.6369858  44.9271727  24.3183661  67.7893162  43.5299397  23.7566590
  28.3172297  23.7069583  26.0288167  27.5359631  23.3094597  25.6443048
  28.4028053  24.5486403  25.5810690  10.2654231  22.8421187  36.8393803
  11.1085367  22.8502607  37.2925091  10.4229522  23.3307981  36.0315394
   7.5583243   7.6728439  54.1839790   7.5305903   7.0235008  54.8866987
   7.0638472   7.2728640  53.4686184  78.8867521  18.9536536  56.7365265
  78.6003971  18.9541245  57.6498890  79.4030380  19.7546899  56.6469717
   6.1969578  26.3239813  46.1795568   6.7023665  26.9472337  46.7014265
   5.6031621  25.9120822  46.8072319  28.9165616  32.2356582   4.3223092
  29.4842505  31.5676641   4.7066808  29.0324426  33.0011940   4.8851213
  37.2376943  30.6781244  60.7061243  37.2473836  31.3005042  61.4332962
  37.4867797  31.1983871  59.9422407  11.3672435  11.1390483  55.6217146
  12.1479762  10.6045842  55.4766798  11.5455520  11.6071153  56.4374065
  21.5706754  21.6266656  45.8437014  21.1764407  21.8112898  44.9912214
  21.6546559  22.4846816  46.2596226  30.2464843  18.0644429  18.8418806
  29.5768452  17.4674177  19.1756105  30.2521276  18.7906671  19.4654167
  27.7640843  76.8638849  61.8129206  27.6921010  77.1072149  62.7358723
  28.1578064  75.9914970  61.8252277   6.4842612  41.7508650  29.8402429
   6.6614735  40.8110714  29.8805308   6.0033572  41.8690157  29.0210962
  29.0446758  25.6563091  52.8534174  29.4134593  25.0054693  52.2562265
  29.7292471  25.7961345  53.5076714  14.5075452  28.5250545   1.6180089
  15.2861214  28.5001779   1.0617431  14.4613791  29.4305015   1.9250399
  12.5148821  35.3341150  33.9547563  13.1677926  35.2467036  34.6492338
  11.7400289  35.6811547  34.3967915  47.3576403  62.5152493  57.5794649
  46.9785690  63.1084108  56.9308519  46.9209671  61.6780472  57.4225044
  23.1644225  14.1241467  25.9430075  24.0159702  14.3537092  26.3150263
  22.8761601  13.3674824  26.4534926  75.0317430  42.1957636  67.0242405
  74.5941448  41.8292809  66.2558508  74.4217682  42.0385551  67.7449703
   1.2979349  18.3289158  45.6189108   1.5636598  18.8662601  44.8726606
   0.7744977  17.6261580  45.2337122   4.7322747   3.8272607  55.7129097
   3.9798293   3.4779418  56.1904383   5.4738343   3.6929953  56.3030767
  80.0584126  78.4393406  30.0850797  79.6916151  78.8118982  29.2832756
  79.3240976  78.4219170  30.6988430  34.0933442   1.2380873   2.2890286
  33.2583451   0.7845086   2.1738052  34.5351839   0.7530908   2.9860130
  46.1836004  70.9839582  63.5407209  45.4368353  71.5024090  63.2410812
  45.9985018  70.0969028  63.2323217  30.3098512  48.1100559  64.5384598
  29.6880412  48.4959698  63.9214897  31.1355233  48.0742931  64.0555334
  72.7985811  25.2108884  22.9386282  72.2230291  25.8730745  23.3213592
  72.8639126  24.5328021  23.6110592  72.8710127   1.8937184  33.4986806
  73.3784199   1.0926719  33.6294174  71.9832945   1.6621794  33.7717652
  40.0711584   5.0191706  37.8955412  39.3197513   4.4876090  37.6327467
  40.6584120   4.9938187  37.1400785  15.6306744   6.2976414  47.7038097
  16.1039209   7.0860487  47.4379444  15.2408206   6.5254766  48.5478115
  81.2158966  36.4340711  60.5472946  81.9563770  36.4501691  59.9409389
  80.4434013  36.4618587  59.9827528  17.1736920  67.5403166  11.7360771
  17.2301459  68.1686735  11.0162115  17.3800659  66.6964579  11.3341475
  34.9966145  23.0363345  56.1523390  34.2685723  22.4187231  56.0834837
  35.2287769  23.2349968  55.2452183  16.7137599   2.1579298  25.0229979
  17.3468411   1.6214199  24.5459270  17.2503805   2.7590805  25.5396104
  64.2309093  55.9876060   4.5649469  63.6953878  56.1761951   3.7943095
  63.7292719  55.3330088   5.0508392   7.4513775  20.2229810  24.9512649
   8.3120370  20.0570846  25.3359413   7.5091785  21.1157894  24.6109915
  14.8836482  14.4989336  18.4038293  14.0115750  14.3341303  18.7623823
  15.0461960  15.4246211  18.5852480  24.0931726  43.4123135   3.3442923
  24.7049856  44.1481972   3.3641002  23.2319880  43.8136244   3.4606802
  83.3383656  29.0178967  11.6287982  82.4702072  29.2360663  11.2897837
  83.4734726  28.1057262  11.3720477  40.1714563   0.9868720  13.3186507
  40.7033777   0.1961289  13.2291222  40.8050346   1.7042874  13.3072853
   5.1883876   5.0501454  43.3394051   5.7320166   4.9777192  44.1239166
   4.6225262   5.8033586  43.5088253  74.3206358  35.7381272  17.6746929
  73.5512543  35.1826429  17.8000748  74.0248489  36.4259219  17.0783055
  18.2085621  30.1040459  55.4901838  17.6146233  30.6959701  55.9518051
  18.9132309  30.6698489  55.1746798  77.8613043  72.4279070  18.7370837
  77.4322319  73.0333138  18.1324267  77.4936199  72.6444006  19.5939195
  50.0105143  34.6139979   0.9507713  49.7976446  35.5468965   0.9756833
  49.3209505  34.2252731   0.4126059  57.2008705  73.7311029  34.6903968
  57.7123976  73.4332228  35.4426193  56.7512417  74.5164299  35.0023627
  35.9901381  73.3871889  68.7230349  36.5952706  73.5501814  67.9995155
  35.5242920  74.2155933  68.8369036  59.2324829  70.6500053  54.0821838
  59.4459295  71.5780258  54.1793728  58.2782173  70.6154823  54.1486692
  33.1566381  15.8494580  36.7376328  33.0203748  16.6456676  37.2511673
  33.2240844  16.1562407  35.8334398   0.3627364  14.7197247  34.0111041
  -0.0430997  14.0103471  33.5127950  -0.2884133  15.4212725  34.0027928
  11.1608386  51.1616325   0.0582827  10.4428613  51.5070152   0.5888001
  10.8066320  50.3633451  -0.3335170  83.4017658  70.6523705  46.4802122
  82.5726700  70.9248447  46.0870409  84.0327454  71.3105869  46.1889076
  42.2443247  27.9190350  19.1268754  42.2034025  27.5097179  18.2625747
  42.6920986  27.2752857  19.6757972  27.1322823  35.4726887  12.8191650
  26.4958572  35.1785421  13.4708357  27.9834199  35.3195167  13.2294488
  74.2888117  27.1672201  48.5988903  75.2283621  27.3485565  48.5744810
  74.0556240  27.2357512  49.5247221  20.3026342  31.8747711  54.3867779
  21.2355542  32.0140696  54.2240191  20.0608492  32.5670791  55.0019884
  37.4972272  42.4102020   6.1910373  37.5754452  41.5077972   5.8815575
  38.0984330  42.9067612   5.6358683  78.0121660   5.1651758  28.1698823
  77.7920818   5.0701928  29.0965819  77.2006178   5.4652250  27.7605057
  34.4396400   8.8223648   8.5794032  33.7108183   8.2097507   8.4806311
  34.2320108   9.3156618   9.3729901  15.8730626  38.1570554  41.6760397
  14.9680054  37.9150510  41.8723536  16.2544489  38.3691573  42.5279713
  63.6942053   2.6499283   4.6472102  64.0560532   2.4162760   3.7923974
  62.8053331   2.2949317   4.6361810  12.1116424  46.8361235  35.0399852
  12.8396964  46.7898417  35.6596851  11.3473129  47.0303011  35.5825067
  81.6446877  11.6443717  36.9666958  81.7597008  10.8584368  37.5008392
  82.5338745  11.9678724  36.8220234  34.4705224  26.9630766  27.0060539
  33.8041043  26.5089273  27.5216794  35.0781965  27.3148203  27.6566243
  16.3985419  20.1179457  68.1918907  17.2984040  20.0790071  68.5158730
  16.2344170  19.2449808  67.8351974  22.9770422  25.1628041  43.7717390
  23.9070535  25.3707242  43.8616323  22.5403404  26.0145783  43.7692356
  26.3635564  23.0722976  58.5232639  26.9472957  23.8303041  58.4932089
  25.5596209  23.4047842  58.9224815  29.8938107  31.0111475  60.7357264
  29.8997688  31.7080212  61.3919020  30.2023411  31.4340806  59.9343729
  26.9592404  30.9163046  55.8045483  26.7583513  31.5638542  55.1288605
  27.6551294  31.3196349  56.3234854   9.1201508   3.7309602  68.0710554
   8.6707032   3.7096921  68.9159107   9.3980789   2.8267518  67.9247856
  30.1711917  40.9399605  59.9913883  31.0322881  41.2968636  60.2090263
  29.6879482  41.6833878  59.6308088  25.2902126  35.7922697  32.5892806
  26.2112665  35.8671689  32.3397231  25.3110671  35.4414797  33.4796429
  15.2176738  35.4685354  35.5781174  14.8588371  34.5824099  35.6255150
  16.1248517  35.3449583  35.2988529  14.0715945  21.1512280  20.9258366
  13.3546758  21.4478111  21.4864588  13.6381853  20.7005405  20.2010822
  45.7580280   8.1498438  46.9775867  46.2082243   8.8595414  47.4357176
  44.8275709   8.3433425  47.0917559   7.6329988  42.4044228   2.7229765
   7.8199232  41.4755726   2.8591007   7.7773076  42.5431108   1.7869353
  37.0517683  24.2252874  31.4118171  36.9192934  23.4981179  32.0200157
  37.9999018  24.3559647  31.3976240   5.7062215  37.8812981  47.9709387
   5.9565485  37.8530455  47.0474815   5.1851094  38.6799574  48.0535078
  34.2222404  32.2602940  30.5279803  34.8439384  31.5335751  30.5680370
  34.7521114  33.0385709  30.7004786  49.9342346  57.3782253   5.3957927
  50.0141001  57.5994158   6.3236547  49.5996523  58.1765556   4.9871942
  24.4506145  64.8877621   5.3906685  25.3873730  64.6931696   5.3615773
  24.4004679  65.8388376   5.2948952   0.7576113  35.0685143  38.5951924
   1.6906404  35.1989436  38.4258509   0.6889699  35.0408626  39.5495272
  13.4323812  56.8130493  28.2545590  12.7134073  57.3503637  27.9219890
  13.0189729  56.2236214  28.8853502  19.4961512  33.1378055  44.5692348
  19.4180632  32.5572252  45.3262424  20.4217696  33.0951452  44.3291473
  79.7035360  39.4299555  21.1998200  79.6390867  39.8385048  20.3365898
  78.7952662  39.2814541  21.4629316  76.7307472   9.5800871  55.6702995
  76.9349051   8.6894482  55.9554529  76.1610222   9.9267435  56.3569403
   9.9322951  72.9285765  53.0855036   9.0004086  73.1468296  53.0991125
  10.2935505  73.4646368  52.3795509  28.0725574  22.3725128  19.3934846
  27.8037691  23.2346749  19.7107518  27.2659183  21.9764423  19.0637982
  83.1976891  12.7037370  53.1399155  83.9621067  12.2540665  52.7797747
  82.9810524  13.3687198  52.4863863  59.8609209  42.2296619   9.8124933
  60.3935003  42.2183990   9.0172172  60.1844168  41.4907742  10.3278768
  18.3033741  47.3039007  53.8500214  17.4905360  47.3631144  53.3480024
  18.2914686  48.0750656  54.4169378  18.8303852  65.7127476  46.1451387
  18.1171584  65.4916191  45.5462742  18.4167469  66.2466097  46.8234682
   9.6722418  35.7221198  56.0792446   9.1928691  36.0171080  56.8534660
  10.5253577  35.4479766  56.4158010  65.6293392  37.7625227  35.3939342
  65.8394003  36.8460488  35.5733252  66.3547230  38.2542968  35.7789207
   9.7207808  36.3591266  19.9574721  10.0619435  36.9692874  19.3036044
  10.4868960  35.8617663  20.2437091  62.0367813  37.5629425  53.1666088
  62.0925903  37.0849514  53.9940405  62.2140360  36.9029880  52.4963331
  81.9840527  41.4528370  20.0361180  82.3870659  40.5979776  20.1878548
  81.5484047  41.3651609  19.1883254  36.4224195  19.2645037  50.5160332
  36.9797397  20.0211048  50.3338814  35.8160019  19.2300773  49.7762346
  35.5378795  27.9628944  52.4227762  35.6193614  28.4252238  51.5886068
  35.0409937  27.1726274  52.2110844  69.7987032  20.8848166  21.2997651
  69.1439962  20.2213359  21.0820746  69.3506289  21.4730906  21.9075441
  21.4092803  22.4620962  34.4664192  20.5931330  22.7507472  34.0579891
  21.1841822  21.6354823  34.8933530  27.0006967  30.3369999  41.2244940
  27.4715614  30.7574940  41.9440079  27.6780581  30.1407623  40.5772638
  34.1885900  35.3963876  45.4463911  33.9651775  35.0835514  44.5697784
  33.5453844  34.9803162  46.0203314  18.3413112  40.4310036  48.0081892
  18.8195074  39.9108791  47.3624086  18.8261974  41.2547493  48.0587959
   2.8192014  13.5113585  48.8533401   2.7176455  12.5604331  48.8940716
   3.4294039  13.6563110  48.1302404  67.2242022  19.4026291  41.7690754
  66.9355631  20.2846885  41.5347862  67.1657991  19.3772876  42.7241564
  48.4012842  40.2681065  56.1890078  48.0745459  39.8685813  56.9951439
  48.2866478  39.5907569  55.5224562  72.7613020  22.9238319  35.0187659
  73.6446238  22.6597214  35.2761030  72.2138357  22.6917100  35.7688522
  83.9084721  41.7521238  63.6718750  83.1859589  41.3047457  64.1124105
  84.4762421  42.0482159  64.3833447   8.5350263  12.8972518  36.6050124
   8.2223642  12.6312041  35.7403183   7.7401423  13.1232953  37.0880175
  34.2742729  26.6951823  49.7522593  34.3860126  26.6444826  48.8029575
  34.5562029  27.5812149  49.9796295  23.3869672  21.5707064  29.4448948
  23.4490299  21.7347002  30.3858972  24.2310596  21.8567586  29.0957379
  17.1905601  64.1760874  38.9990783  17.8888917  64.7664452  38.7161660
  16.9063413  64.5281696  39.8425770  20.1054621   0.5389292  26.7407990
  19.3651748   0.2197429  26.2247300  19.7446251   1.2599415  27.2567153
  48.8195086  60.9243536  14.5507848  48.8143682  60.9888458  15.5057967
  49.7280359  60.7198811  14.3294227  17.3944950  26.0185456  17.1719062
  18.1626904  26.5676188  17.3288369  17.4357128  25.3483629  17.8540993
  66.6477251  55.1342440  31.1466408  66.4013100  54.3880463  31.6931748
  67.5691366  54.9829721  30.9360528  66.2100267  36.0587287  60.6728458
  66.9431210  36.2246299  60.0801563  66.2912464  36.7318416  61.3485336
  23.0485320  51.1418819  31.3747025  22.9519153  50.4485321  32.0275116
  22.4913430  51.8514013  31.6946316  78.7612009  61.4392328   7.0431405
  79.3015480  60.6684780   7.2168940  77.8857040  61.1895418   7.3387557
   3.1673568  28.5496187  34.1415262   3.1779751  28.4909248  35.0968647
   2.9104364  27.6746273  33.8506460  68.1554937  42.9806709  31.4322257
  68.7401438  42.6853657  32.1302342  67.4126101  42.3783112  31.4711690
  19.4300091  75.3777504  59.8465872  19.8231637  74.5300579  59.6390247
  19.0148449  75.6555796  59.0300798  79.1698408  27.8075647  41.1378288
  78.6282682  28.0737257  40.3948021  79.3290758  28.6184978  41.6208029
  24.3144226  23.5883307  54.4806719  24.7726607  23.5706449  53.6404705
  24.4015741  24.4926620  54.7820330  33.3977127  78.5406923  68.2319784
  33.2738733  78.9946127  69.0655565  34.2767239  78.7935925  67.9498243
  13.3139825  18.1045413  22.6433420  12.8502822  17.2742629  22.7522016
  12.6450288  18.7734199  22.7894044  65.6592321  47.9355145  26.4276862
  64.7640657  47.9757643  26.7642570  65.5582094  47.9512024  25.4759598
  18.4182930  14.0746689  41.6327047  17.5528014  13.7462938  41.3891363
  18.7920165  13.3828998  42.1786165   3.7164277  21.6465616  27.7299690
   2.9213107  22.1778703  27.7715588   4.0477657  21.6406178  28.6279726
  33.4130383  24.1124821  32.8518462  32.8170896  24.0406108  33.5974407
  34.2737436  23.8981032  33.2116508  28.5658693  49.8167181  29.0629077
  28.8124871  49.0253687  28.5841846  29.1609240  50.4906464  28.7343264
  28.7709641   8.6866426  31.8164372  28.4331441   7.9663843  32.3487329
  29.1461682   9.2976272  32.4505925  49.0128946  77.2971106   2.4069838
  49.9359846  77.5443935   2.4616934  48.9185619  76.5827227   3.0370539
  32.2569060  71.1015463  58.7413216  33.0125475  70.6744766  58.3377743
  31.7655802  70.3866529  59.1459942   4.8888907  53.4059143  47.2917366
   4.8093471  52.8984404  46.4840364   3.9870709  53.6230469  47.5279713
  56.6181087  10.8382714  36.0535550  56.1560535  11.6596317  36.2211967
  56.3489246  10.2617586  36.7686796  27.5269198  16.0615575  57.1539879
  28.3190703  16.5415597  56.9124794  26.8801570  16.3211501  56.4978313
  16.7545021  37.9968357  60.2260685  15.9990513  37.8650284  60.7989120
  16.4727449  37.6580405  59.3763256  28.0086803  53.9259481  66.5459919
  27.1419096  53.5935688  66.3126183  28.5029316  53.9021158  65.7266188
  49.8075867   7.6403582  45.8664989  49.0294456   7.8538704  45.3515863
  50.5067968   8.1607682  45.4708862  18.7837899  20.7263350  54.9951839
  17.8431821  20.6738997  55.1647139  19.0842736  21.4567494  55.5359602
  73.4659624   7.2124046  63.6800766  73.7712049   7.5407374  62.8343487
  73.2617664   8.0005455  64.1834354  20.1015925  70.5643463  43.3335161
  20.4447699  71.4578295  43.3211994  19.7316575  70.4619312  44.2103815
   7.5244004  34.9833965  17.1381652   7.1830958  35.1645637  18.0139065
   6.7493933  34.7700953  16.6184556  79.2981291  39.1084266  59.1744328
  79.1122150  39.2272282  60.1058626  80.0194454  39.7116351  58.9953327
  72.2480297  64.4654560  13.4304154  71.3617373  64.1763592  13.6475348
  72.8179073  63.9138746  13.9663541  41.4229488  20.6585073  43.3735228
  40.8845901  21.1489344  42.7523327  42.3224497  20.9034181  43.1563854
  27.1864629  49.0649605   9.8432821  26.7467213  49.9112654   9.7618967
  27.4342418  49.0115738  10.7663131  80.7735157  28.3695579  32.4383330
  80.0816345  28.1085253  31.8305516  81.5664673  28.3932471  31.9026995
   4.6108204  36.6848445  55.6002665   5.4284149  37.1246529  55.8333731
   4.8717153  36.0117030  54.9717379  15.2270555  26.5385246  63.3503914
  14.9655461  25.7204819  62.9277229  14.5245862  27.1530724  63.1380224
  36.6820884  74.0682983   1.1235572  37.5066686  73.7962818   0.7206805
  36.2066436  74.5110321   0.4205846   7.9170781  50.5891609  48.6128855
   7.9131162  50.3725243  47.6805305   7.3775494  51.3771343  48.6779833
  55.8879900  12.8789401  44.6218538  56.2317705  12.1512854  44.1036177
  56.1522150  12.6792347  45.5199242  79.0335369  28.6069965  20.1801634
  78.3045244  28.8325310  20.7580090  78.6978388  28.7657619  19.2979300
  70.4164124  43.9596176  39.1201782  69.9484539  43.5098886  39.8237348
  70.1031208  43.5410452  38.3183813  84.1312436  16.5997076  31.4459467
  84.6267494  15.9084213  31.0068226  83.3466711  16.7101610  30.9088445
  42.2479439  29.2138767  14.3382382  41.5591145  28.8600969  13.7755835
  41.9297600  30.0807834  14.5901573  41.0590839  14.6672332  37.8232026
  40.1685429  14.4261909  37.5681233  41.4275837  15.0822234  37.0433164
  60.2540874  55.0591993  52.8961849  59.5181990  54.6254396  52.4642706
  60.0906038  54.9342489  53.8310051   8.2792097  76.3012266  26.2747383
   9.1102159  76.2269211  25.8055472   8.4786642  76.8561172  27.0287561
  39.6009588  62.9688263   6.2664843  40.2478504  63.6624861   6.1376560
  38.8092327  63.2975769   5.8406633  20.8178043  78.7896442  66.1515617
  20.6302905  77.9011202  65.8489132  21.4914036  78.6770630  66.8222475
  27.0043802  68.2887030  65.7776785  27.2774243  67.3772001  65.6735611
  26.1687827  68.2369137  66.2417126  71.6402721   0.6334509  39.7868514
  72.5795507   0.6130170  39.6036315  71.5023518   1.4662066  40.2382135
  12.8800762  36.2347507  24.2217755  13.4263885  36.0330081  23.4621215
  12.6945460  37.1703768  24.1416693  24.3826962   5.9654820  38.2251143
  23.5905480   5.5467701  37.8883481  24.1439772   6.2569064  39.1050673
  77.4844742  50.8019543  18.4378624  78.0812931  50.9937143  17.7144897
  77.5754213  51.5499783  19.0281296  22.1860337  31.4592528  41.2335730
  22.5287414  30.7474804  40.6930494  22.2197151  32.2289443  40.6655264
  60.0755453  66.0375929  65.9792852  60.1397800  65.1882362  65.5425930
  59.5283222  66.5652132  65.3975725  14.5001936  28.9860702  40.3518772
  14.8697424  29.8681855  40.3126764  13.8472462  29.0307570  41.0503721
  64.5432615  35.0052834  34.4583368  63.6674786  35.3911519  34.4767165
  64.6917009  34.7919178  33.5371017  61.5188026  13.9528799  47.9183340
  60.8365917  14.3087864  47.3489904  62.1899605  13.6318040  47.3160934
  42.8838730  78.6314917   0.3737782  43.4272861  78.2260704  -0.3019246
  43.2788134  78.3505917   1.1992200  74.1845131  73.0211306  40.2188015
  74.9092007  73.4306479  40.6913996  73.4150267  73.5312366  40.4716206
  77.6419973  26.9546914  35.4141712  77.2908831  26.0783124  35.5719900
  77.2633553  27.2168827  34.5750546  29.8899889  44.8179197  49.2684507
  29.6353531  44.3060064  48.5007668  30.6444740  44.3513155  49.6279812
  20.2171588   4.7058988   8.1710190  19.3086934   4.4762394   8.3664107
  20.3370595   5.5682576   8.5687542  11.6946185  61.7520761  38.4900784
  12.4196577  61.6676092  37.8708744  11.3165855  62.6107979  38.3005428
  20.8454251  57.5884056  63.9487410  21.0141802  57.2641277  64.8333836
  21.5788913  57.2594404  63.4290838  67.3310757  15.9544873  61.3296509
  67.8514385  16.2827599  62.0629311  67.9682493  15.8075714  60.6306124
   2.8483030  51.2047815  49.0095377   3.2849815  50.5675173  49.5747232
   2.4322543  50.6757736  48.3288813  61.3399792  25.5265284  48.6680841
  60.7912016  25.1343679  47.9889059  60.9703302  25.2045512  49.4902277
  13.0975711  61.4722109  11.1521626  13.9398849  61.5388680  11.6019368
  12.7612281  60.6109905  11.3999534  35.6404924  35.4869699  40.6548786
  35.9010696  35.0377011  41.4589262  35.5597830  36.4061475  40.9095001
  19.6263063  21.7110276  20.3236961  20.4899836  22.1236920  20.3225136
  19.4440413  21.5395808  21.2476110  26.2598538  41.3152027   5.5997682
  26.7777443  41.6545057   4.8697731  25.5690980  41.9656849   5.7261175
  62.0956087  21.6698241  24.9657750  61.8166494  20.8463717  25.3662014
  62.6784039  21.4047861  24.2542052   9.7881013  31.5468884  46.2237644
   9.7955316  32.4681973  45.9642172  10.6899989  31.2540054  46.0932589
  17.3007321  51.4734030  22.0841980  17.8886127  51.8619823  21.4364052
  16.7276657  50.9006691  21.5744925  68.2653284  58.7669992  17.0245135
  67.4175358  59.1568708  16.8112409  68.0631447  57.8560734  17.2379732
  71.6585493  24.5841146   2.4775557  70.7952309  24.1719437   2.5096998
  71.6950703  25.1253462   3.2662046  74.2858076  46.3388062  37.3736882
  74.6334362  46.6318274  38.2160211  73.8324928  47.1050215  37.0220518
   8.4259218  30.4888630  67.1681929   7.9083544  30.8723092  66.4601517
   9.3311459  30.5492330  66.8629789  44.4861841  46.9881439  38.4029317
  45.0336027  47.6689291  38.7942123  44.7203922  46.9964695  37.4748635
  37.1228456  47.7661800  12.4470270  36.9617581  48.5687637  12.9431558
  36.3646173  47.6860809  11.8683159  45.7729387  58.4965038  36.2973833
  45.2649641  58.3326292  37.0919490  46.3769531  59.1983938  36.5397644
  28.4915471  48.1749010   6.9776815  27.5405788  48.1057787   6.8933338
  28.6479950  49.0983582   7.1751058  83.6328411  64.2491388  14.9635291
  84.4144726  64.0669012  14.4419193  83.9338398  64.2010403  15.8708990
  35.4654574  30.9440637  17.9943824  34.7109294  30.8395815  18.5740399
  35.6010103  31.8903756  17.9458869  19.4924176  75.0894308  46.4928293
  19.9595821  75.6835318  45.9054375  18.5783684  75.1471996  46.2146044
  23.5426188  42.8364611  31.7323971  22.7822566  43.3118486  31.3976049
  23.4798741  42.9236889  32.6835465  28.8394260  35.7066703  22.8772759
  29.7557259  35.9785914  22.8254676  28.5242224  36.0823321  23.6993217
  15.2335739  53.0016804   9.2495447  14.6927631  52.3203659   9.6490067
  15.1075029  53.7670660   9.8103648  24.9330664  67.3858404  49.7966051
  24.2764425  67.4054575  50.4928017  24.5279598  66.8695688  49.0997648
  31.8733525  43.4836674  50.2028656  32.1465993  43.3404398  51.1089849
  32.6660824  43.7838936  49.7582531  35.1872706  51.9922590  32.8212810
  35.3092623  52.4154615  31.9714260  34.4801211  51.3636065  32.6764870
   2.1564621  23.1587148  37.1999907   1.3507670  23.0596328  37.7072096
   2.0356713  22.5842714  36.4439130  72.2097683  72.7364349  65.3264523
  72.7560139  72.0973396  64.8688459  72.5787830  72.7788925  66.2086439
  35.1930499  46.0299349  46.4469290  35.8895946  45.3795147  46.3574171
  35.2699995  46.5728045  45.6623220  75.6899881  40.6113291  22.7484155
  74.7812605  40.8414173  22.9420781  76.1831903  41.4118385  22.9277802
  29.0480733  49.3466568  23.3787513  28.5122108  49.0258932  24.1041422
  29.5565557  50.0646400  23.7558150  74.6080065  30.8460045  35.6883216
  75.4565954  30.4320168  35.5310130  74.3425274  31.1810493  34.8318791
  10.5476689  20.2951622  43.4383106  10.1834464  21.1604476  43.2516241
  11.0543919  20.0748634  42.6566887  64.8528957  16.4152133  40.3058815
  65.0447273  17.0344687  39.6016407  64.0566683  15.9670937  40.0204945
  79.4238567  14.6930909  13.3045936  79.9644470  14.2325711  12.6627874
  79.9871445  14.7804844  14.0735531  70.2492952  39.8216391  30.4006863
  70.9585142  39.2592788  30.0892496  69.4494486  39.3632960  30.1430082
  16.9387114  44.5990753   8.4153444  17.2081411  45.0046682   9.2394400
  17.2253764  43.6889791   8.4913468  55.2415800  50.5606270   7.0583504
  55.6692600  49.7043943   7.0721191  54.3323517  50.3780413   7.2954220
  82.0705891  61.7976952  31.5016699  82.1128559  62.0975924  30.5936456
  81.1460495  61.5947390  31.6440773  30.4083586  46.3097525  45.7008314
  30.5177951  46.0786581  46.6232491  30.3096938  47.2618532  45.7025242
  21.4438868  53.8199091  15.9521461  20.8060503  53.3825827  15.3881037
  21.8254375  54.5013857  15.3987563  77.9057550  46.6589642  32.4644208
  78.6211157  47.2938490  32.4267888  77.4215651  46.8904018  33.2570291
  29.5319915  51.8187094  44.8549843  30.4320812  51.7873240  45.1791573
  29.5169306  52.5702333  44.2623520  45.9060955  66.3843632  20.4749966
  45.6171942  67.2287607  20.1289296  46.8231153  66.3175297  20.2088499
  43.5396862  55.7591200  34.1045094  44.4787312  55.5779219  34.1444540
  43.4715509  56.5550137  33.5771203  53.8030148  63.0568409  31.1517429
  53.5192394  63.5744953  30.3982592  54.6658468  63.4077930  31.3721633
  60.6759834  68.9026976  43.3017063  59.9989796  69.4329309  42.8812885
  60.9634113  69.4289017  44.0478420  37.0143509  74.0550852  33.4698534
  36.3558769  73.5547161  32.9879022  36.8928385  74.9574900  33.1746721
  11.6830182  59.8204184  31.1273885  11.8389606  59.0696335  30.5544734
  10.7813334  60.0814152  30.9400964  23.1306005   3.2611004  26.1400628
  23.3134532   2.3703006  26.4388466  22.3374724   3.1780875  25.6106400
  43.3163643  14.0336835  13.7343955  43.9056301  14.3220294  14.4314241
  42.7357149  14.7803426  13.5874867  60.9541178  50.7334948  34.3072343
  61.3819695  50.4664612  33.4936810  61.5092707  50.3737688  34.9990678
  52.0611858  18.5425115   1.5870415  52.2590542  19.4121110   1.9347137
  51.1389112  18.5894322   1.3351609  31.0580873  76.3148928  44.4511366
  30.3763819  76.9176531  44.1541672  31.8761754  76.7930126  44.3156290
  28.8670206  45.7114792   8.4508550  28.9389205  46.5147114   7.9352200
  28.0969548  45.2672291   8.0960643  39.3005776  48.6483860  20.2444816
  39.0726662  49.2255068  20.9733295  39.6940064  47.8812647  20.6603789
  21.4840436  53.4003353  31.5468955  20.9550786  53.0148029  30.8484721
  21.2843370  54.3357420  31.5100527   5.0428146  58.0251884  39.2346025
   4.2741802  57.4758339  39.0808415   4.9904498  58.2562017  40.1620293
  51.8331623  61.9028568  65.7575798  52.6557779  61.4176226  65.6936741
  52.0616770  62.7964449  65.5016232  22.1668816  66.0523796  25.5371690
  22.5216627  66.7399454  26.1007452  21.2929225  65.8819771  25.8884358
  65.3944778  67.1203279  20.9290624  64.9506950  66.7480326  20.1670337
  66.0605240  67.6996851  20.5589819  36.8835831  61.1374569  40.2081347
  36.3279486  61.3694763  40.9522247  36.5093017  61.6189861  39.4703865
  28.1567597  51.8366861  34.6608472  27.7233982  52.2671461  35.3978229
  27.4642873  51.3269043  34.2403293  14.9839413  77.1172047  37.3336864
  15.5382764  77.8458548  37.6129913  15.4654932  76.3340616  37.6001906
  54.9283314  31.6747546  59.9244642  55.6947422  31.4986515  60.4702091
  54.2300940  31.1495948  60.3154898  48.0915546  49.0258455  38.6839342
  48.4438229  49.0858364  39.5719314  48.4889221  49.7617865  38.2184029
  80.0478077  16.9090521  33.0541253  79.2749834  17.3572493  32.7104735
  80.2932358  17.4147606  33.8288879  62.4089289  52.8668308  58.1181765
  63.0569077  52.7268314  57.4277020  62.9252052  52.9313803  58.9216232
  65.1151705  65.7549000  37.0975184  64.5061636  65.0700855  37.3738742
  65.0363493  66.4312506  37.7702522  71.8847275  11.5707612  59.0892029
  72.6114750  11.2514651  59.6241045  72.1873426  12.4143374  58.7529993
  72.1320581  51.9039679  47.6624537  71.2369347  52.0010328  47.3375416
  72.6775885  52.3018551  46.9839907  35.2454090  57.0810461  21.7081308
  34.3139791  57.1154118  21.4902067  35.5281544  56.2147951  21.4150524
  64.0828323  47.7548695  62.5691319  64.7548199  48.4258080  62.6896000
  63.2670307  48.2469034  62.4763870  35.6073308  72.7445364  21.3927650
  36.4312339  73.0740738  21.7516804  35.7827711  72.6270533  20.4591417
  37.4372315  33.4147191  26.2118292  36.5300131  33.7117863  26.2821078
  37.3688602  32.4935508  25.9608245  33.4880781  57.9801464  30.4617095
  33.0755162  58.2205486  29.6321106  33.9914751  57.1915913  30.2592134
  10.1606953  74.9361753  41.9155073   9.4705498  74.4618654  41.4518642
  10.4956746  75.5608892  41.2722778  61.7971992  10.2735043  64.9352264
  61.2525892   9.7493303  64.3479633  61.5912724  11.1800992  64.7073793
  13.9063537  76.6882420  10.4813933  13.5763228  77.5781631  10.3575015
  14.5660710  76.7711449  11.1699665  19.9873519  28.9272141   9.6812153
  20.0428081  28.4876251   8.8327354  20.8986640  29.0589237   9.9427408
  64.0051031  49.6399546  41.8583727  63.2660913  49.1014147  42.1413374
  64.3497229  50.0178766  42.6674747  33.4530425  49.5412445  38.0580449
  32.6332974  49.9414110  37.7680135  33.8349771  49.1732168  37.2612333
  36.6515470  54.6729183  44.0986633  36.0527587  54.0313339  44.4808340
  36.4245629  54.6882629  43.1688929  34.1260648  64.4977665  22.5850320
  33.5219407  64.2264223  23.2761455  34.7122097  65.1231098  23.0111980
  45.4398870  75.9513903  18.9394104  45.5789995  75.2031374  18.3588922
  45.6742668  76.7129087  18.4089530  51.6581964  53.6770582   7.1423751
  52.0919704  54.4968033   6.9055468  51.4396095  53.7806177   8.0685103
  39.9112701  60.2791691  51.4901114  39.0564346  60.0541830  51.1228657
  40.0811005  61.1669779  51.1751795  24.3113685  52.9038095  29.6712923
  24.3205714  52.0341396  30.0710654  23.6284947  53.3781910  30.1455092
  47.8874254  50.1393223  45.9893703  47.5014782  50.9982777  46.1610222
  47.9263306  50.0806665  45.0347614  60.0403357  76.4419508  59.6253157
  59.4868517  75.7217264  59.9272442  60.7108402  76.0198355  59.0882111
  34.4377184  52.8839779  36.1961913  35.0766873  53.5385227  35.9141898
  34.2033768  53.1460524  37.0864892  69.1061592  77.5063992  10.0797927
  68.3917570  76.9605207  10.4082441  68.9555502  78.3634377  10.4785836
  76.5339994  10.2730048  16.0868132  76.0106516  11.0713387  16.0160840
  76.9337273  10.1713431  15.2230346  51.9052649  40.6232691  10.6222713
  52.3616886  41.1670494  11.2643087  52.2061634  39.7331834  10.8051455
  48.1764603  41.4758492  18.4822226  49.1031599  41.3928175  18.7070870
  48.1711149  41.6111040  17.5346422  51.2249517  56.1218643  43.1270790
  50.9368229  56.5172482  43.9498091  51.3132095  55.1899815  43.3271646
  46.7776918  50.5340052  17.2440457  46.2317753  50.6886196  16.4731359
  46.2812996  50.9136534  17.9690945  13.0535603  74.7192287  53.7626410
  12.7121651  74.2003202  54.4909382  13.9968276  74.5569229  53.7743759
  71.8259478   5.3760648  11.4086342  71.7476320   4.5537972  11.8923438
  70.9711313   5.4923278  10.9939039  26.4866424  26.7107058   0.5009883
  26.4796066  25.9168386  -0.0337635  26.8018436  27.3946786  -0.0898264
  15.8412111  73.8337994  51.8671799  16.0982263  74.0696526  52.7585506
  15.9729946  72.8867626  51.8225622  14.2111897  77.8614998  34.6189809
  14.8756850  77.9108429  35.3061819  14.5338666  78.4441614  33.9315104
  35.0633740  56.3558578  39.4988680  35.4930735  57.1997976  39.3597341
  34.6335602  56.1655760  38.6650300  32.4640179  25.9534049  31.3352537
  33.3213425  26.1098337  30.9393287  32.6611638  25.5671811  32.1885991
  38.7490034  55.7280016  45.6718874  38.0979943  55.3866529  45.0587797
  38.2335138  56.1638117  46.3505411  37.5201511  44.4479799  37.8902555
  37.8239655  44.2748737  36.9992113  37.3101902  45.3818560  37.8945351
  55.2820683  33.2165074   5.5285966  54.4818497  32.7698374   5.2522492
  55.3304625  33.0596495   6.4716160  39.8959947  41.4162064  39.5613980
  40.0220251  40.6873751  38.9538193  39.3755269  41.0462999  40.2745008
  14.1608238  43.4187078  56.0578871  13.9113677  43.5660934  56.9701815
  13.3299184  43.3945322  55.5832911  31.1884284  59.2051649  31.4879131
  30.7463503  58.4333611  31.8416357  32.0773101  58.9056253  31.2971234
  55.5948210  45.6411648  53.1520557  55.6093884  45.8711433  54.0811014
  55.8644152  46.4422178  52.7027607  25.2362871  62.5513506  31.0243416
  25.8867669  61.8498659  30.9923649  25.7051301  63.3269644  30.7163811
  61.6414213  68.1069851  30.3636050  61.4589214  68.2114840  31.2974167
  61.7869759  68.9984274  30.0467849  62.6009274  45.2385092  41.4010954
  62.0086956  45.3471756  40.6569910  63.4538651  45.0612926  41.0044622
  62.6512527   8.7343204  41.5023661  63.3055401   8.6210847  42.1917963
  63.0618238   9.3330628  40.8785295  37.3151612  63.4521914  34.9743199
  37.4329424  64.1489601  34.3286610  36.5680575  63.7370682  35.5005431
  82.0061874  74.6352196  56.6672325  82.0024681  74.0734482  57.4422359
  82.5170708  74.1480827  56.0207605  72.3936844  44.2022657  43.6644793
  71.9694519  44.7402859  44.3329048  71.8182135  43.4436178  43.5668993
  35.9830022   4.5820498  42.7951145  35.6358671   4.8047170  43.6589098
  35.6930661   3.6822292  42.6451397  35.1242208  67.1396255  37.6737237
  35.7586765  67.2733116  36.9695735  35.6223679  66.7042685  38.3654928
  57.8751564  67.3950768  52.6196146  58.6178207  67.9630661  52.4145222
  57.2633982  67.9612446  53.0901861  54.6789026  66.1746025  30.9370089
  55.5981493  66.1248159  31.1992049  54.2463493  66.6222906  31.6641283
  23.4480357  45.6636524  64.3008852  22.7018428  45.4092932  63.7579918
  24.0122604  44.8904800  64.3099165  50.4801798  52.0203495  44.5930290
  50.4442072  52.5089598  45.4153395  50.7842875  52.6589394  43.9480877
  72.9886580  56.4694118  50.2169943  72.3137617  55.8571625  49.9239111
  72.5012207  57.1904802  50.6153679  39.1988492  64.0418386  30.7577968
  39.0632105  63.8595915  29.8279476  39.9402165  63.4889364  31.0045791
  53.7862587  57.3299217  28.4709954  53.1335402  56.8820000  27.9328942
  54.6222067  56.9524097  28.1972957  12.1777165  60.9012699  52.7654123
  12.1126068  60.4222107  53.5915422  12.1415031  61.8233490  53.0197430
  34.0037370  51.1240721   7.9473090  33.7876129  50.6383419   8.7432915
  33.3742571  51.8449211   7.9282534  35.6053019  48.6932421  18.0064881
  34.7410297  48.3228493  18.1855869  36.2092233  48.1455183  18.5079956
  30.8750224  39.0929532  26.5949035  30.1101804  38.6212993  26.9247365
  31.2947798  38.4778094  25.9935427  18.4218311  50.0331831  24.2063212
  17.9771960  50.0703049  23.3594728  19.2419291  49.5735455  24.0263033
  31.9686460  55.4445457  19.5157170  31.7637038  55.4132652  18.5812378
  32.5187850  54.6758127  19.6661365  35.2132702  62.0070648  30.0011897
  35.5960989  62.1975231  29.1447997  34.8878384  62.8521252  30.3113556
  31.2990499  68.6832857  10.0506639  31.4185452  67.7987528   9.7048932
  30.4233098  68.9378166   9.7599316  45.6496477  53.2411528  38.8946009
  45.9444141  53.9981890  38.3883977  44.6941805  53.2881069  38.8613534
  11.1990118  45.6582737  58.3282471  10.7836735  46.4663744  58.0270815
  10.8525968  45.5253696  59.2106104  32.1164989  57.1523714  12.7952635
  32.6818752  56.8373013  12.0900583  32.1839428  56.4811325  13.4743237
   1.2135884  30.0492024  16.1221790   0.4558994  29.8668242  15.5664122
   1.5149947  30.9128904  15.8403540   0.6150997  43.4330225  19.9201643
  -0.2988252  43.5491800  19.6603942   0.7337067  42.4840832  19.9611127
  26.9482756  46.7220592  24.7066307  27.5372744  46.0241842  24.9934697
  27.1490622  47.4577904  25.2850914  23.2496142  52.8064919  33.9420247
  23.1191134  53.4204197  33.2193255  23.5647988  53.3500767  34.6641088
  56.4423466  69.9456787  16.2329614  55.8211374  69.4226933  15.7261908
  56.0222197  70.0566339  17.0858479  41.1815977  78.7253571  56.3703918
  40.9399843  77.8640699  56.0297489  40.6356382  78.8368845  57.1486712
  23.8753676  25.0329566  28.6691356  24.0033698  25.7931709  29.2365193
  24.5312810  24.4010997  28.9636946  12.3295808  48.1262541  13.3053982
  11.5934634  48.6775780  13.5707390  13.0063593  48.7455559  13.0321383
  62.5786877  17.5299621  54.3257809  62.2634649  17.9387891  53.5197210
  62.7533484  18.2643282  54.9143648  79.4429255   0.0955827  26.1040354
  79.6117735  -0.4099953  26.8990922  79.4529867   1.0078593  26.3936615
  73.0675316   3.5618523  55.5311251  73.8136053   3.0034366  55.3125429
  72.9569721   3.4548840  56.4758825  49.9175835  74.0761757  54.4538116
  50.8441830  74.0930319  54.6933126  49.7033930  74.9889660  54.2610121
  59.3531704  18.2187188  24.1375947  58.4497833  18.1984353  23.8218236
  59.2732191  18.2349527  25.0913119  15.8051062  58.4864521   1.0609415
  16.4085877  59.1994476   1.2699458  14.9752164  58.9234018   0.8696544
  43.6564302   4.6491250  60.3424644  43.6912203   4.0463173  59.5997334
  43.2785225   4.1315725  61.0534859  69.7439528  44.9166155  -0.1169381
  68.8023281  44.7557211  -0.1776454  69.8287916  45.5905771   0.5574584
  15.2735710   8.1193578  58.5591745  15.6895745   7.7971387  57.7595806
  15.9042561   8.7402487  58.9238167  55.1875114  18.9725530   4.0548703
  55.9344769  18.7335014   4.6036243  55.1311636  18.2696474   3.4075829
  63.8097191  61.7747784  60.3795910  63.7219572  62.7278948  60.3895092
  64.7482586  61.6195536  60.4858112   0.2848836   3.0645499  31.2115002
   0.3306557   4.0009424  31.0183549  -0.5460574   2.7815980  30.8297849
  10.3077686  16.3948798  25.0263882  10.4923892  16.5068340  24.0938568
  11.0230505  16.8519831  25.4687238  67.7350092  57.5695038  26.0020471
  68.3832836  57.8859854  25.3729129  68.2232523  57.4695492  26.8192720
   2.1371065   1.7071821  51.1326361   2.0384255   2.5810793  51.5105200
   2.9308930   1.3589108  51.5386438  60.4979467  57.8997755  61.5592146
  60.6757212  57.7902412  62.4933577  60.9002781  58.7390471  61.3356352
  53.1231022  56.8260908  55.1473141  53.2605219  56.3804436  55.9832239
  53.9944458  57.1280718  54.8907995  33.7903523  78.2165289   2.3316044
  34.7116733  78.0383348   2.1428019  33.7251759  78.1563091   3.2846823
  30.6160235  65.6832075  41.4333296  29.8900437  65.0613117  41.4825916
  30.4283953  66.3251257  42.1181440  13.8517058   2.4155809  31.4871740
  13.8255763   2.1543039  30.5666947  13.5076702   3.3088014  31.4924669
  15.2652705   3.8306174  20.2338886  15.2931702   3.2739311  19.4557166
  14.8788166   3.2758778  20.9114957  34.3022895  77.8028011  24.4306588
  33.7368751  78.5466290  24.2226672  34.4574404  77.8758430  25.3723717
  67.6812792  28.9363289  39.4381785  68.4186172  29.0954757  40.0274515
  67.3644352  28.0662227  39.6805763   6.4262259  32.9793167  32.9730654
   5.8210886  33.5404015  32.4880648   6.9877887  32.5946450  32.3000836
  11.6396654  70.3401947  15.2971673  12.3073077  69.6637297  15.4106390
  12.0166063  71.1196089  15.7054150  59.1466093  71.3758087  43.0756521
  58.5481358  71.1588192  43.7904787  59.7244024  72.0453215  43.4419012
  83.6025620  52.4212313  38.7039208  83.2511520  53.3115149  38.7154508
  83.1246662  51.9842100  37.9990411  39.4655657  47.1885109   4.2011929
  40.1246119  47.7795744   4.5652485  39.4658566  47.3781919   3.2629746
  39.3707848  76.5814590  45.8754539  38.9453578  76.7814684  46.7092657
  39.5352745  75.6391478  45.9104633  46.7723036  58.6884356  39.5565081
  45.9115362  58.4906387  39.1874743  46.7732334  58.2530355  40.4089499
  69.2256355  39.2842913  52.4832535  68.6413527  39.1949153  51.7303562
  70.1035452  39.1664529  52.1204519  18.1783199  12.7958000   6.3375175
  19.0826416  13.0893207   6.4483273  18.0343044  12.8156006   5.3914207
  67.6714182  33.7326145  23.4842706  67.1244144  34.4961596  23.2998228
  68.0080175  33.4667802  22.6285458  62.6125622  20.0130701  66.1267185
  62.5216436  20.1642990  67.0675135  62.7812958  20.8809161  65.7598352
  12.0943856  28.9753056  33.8357091  11.8863523  28.9601231  34.7699070
  12.7400541  28.2777500  33.7227464  44.1379833  76.8131351  50.9989548
  44.6910906  77.5221205  50.6708670  43.5290241  77.2427988  51.5996122
  29.4989085  70.5551147  59.2331266  28.7338090  69.9897957  59.3392897
  29.8835135  70.6044769  60.1082706   6.4071172  10.3238773  39.6704817
   5.7819670  10.4893613  40.3761959   6.6489953  11.1948574  39.3556476
  66.1797142  48.8369131  40.3446865  65.4236031  48.9863157  40.9123182
  66.9362164  48.9328003  40.9232521  10.2210760  14.1964507  31.0661387
   9.6728271  13.4121239  31.0881877  10.1278400  14.5784593  31.9388413
  51.8934441  54.3737745  36.4916563  51.7870045  55.2741051  36.1845636
  52.1302795  54.4620371  37.4148870   5.3948337   2.4895805  37.5187802
   5.6503254   3.2536390  37.0018959   5.4081577   2.7980107  38.4248304
   8.0573505  63.9201927   4.6984854   7.4804366  64.6129751   5.0201386
   7.4994922  63.3881521   4.1310722  28.6061740   5.3386968  47.4993658
  29.0674305   4.5835617  47.8643990  29.0525174   5.5145371  46.6710615
   1.1952297  41.8663216  65.8332348   0.9381099  42.2065783  66.6901731
   2.0053266  42.3313475  65.6241226  47.5155163  78.6525297  53.7551451
  47.5536871  77.9649734  53.0902815  48.3662176  78.6108160  54.1919518
  10.5328441   2.2697061  56.2654305   9.8267037   1.8071365  55.8141804
  11.2944853   1.6982855  56.1673832  57.3808908  72.7175283  25.7512784
  57.8735781  72.8401327  24.9398232  58.0485916  72.5290632  26.4107394
  41.1379194  78.7691689  43.7083578  41.6126108  78.0797052  44.1726208
  41.4001656  79.5781136  44.1477489  50.4730415  71.6206837  42.7362013
  51.3868666  71.8673229  42.8787708  50.0214291  72.4511909  42.5860834
  22.1461773  77.9962683  52.9351044  22.0482755  78.7845135  53.4692526
  21.6315985  78.1748867  52.1479940  11.4731526  40.8593655   5.8179986
  11.2044072  41.6770744   6.2367547  12.2200835  41.1042118   5.2717608
  56.0530996  76.5656567  63.9797688  56.0250425  75.8099937  64.5666409
  56.9398212  76.9124794  64.0780878  37.2713828  69.6891737  43.0976677
  37.3404622  69.9923801  42.1923923  37.6596284  70.3936672  43.6164999
   7.0438010  79.4755697  37.6333141   7.4095631  78.7821865  38.1825566
   6.1437696  79.5767832  37.9430413  72.5654125  33.6565590  21.3859415
  72.2085238  34.5373607  21.2717080  73.4807396  33.7984586  21.6273355
  60.7939720  58.0900860  51.8726206  59.9399614  58.5223627  51.8781710
  60.6047916  57.1828938  52.1122885  49.5105410  51.2148809  61.0730743
  49.8909855  50.7765913  60.3118944  49.7450018  50.6554747  61.8135595
  45.4543495  57.3300219  41.6413116  45.0155067  56.5833044  41.2338066
  45.9897518  56.9440556  42.3345709  43.6910105  75.0156736  29.6159053
  43.5350657  75.3618717  30.4945755  43.5784149  75.7701683  29.0377307
  56.0202169  51.1136770  44.5681810  55.3958464  51.3741112  43.8910055
  55.6826782  50.2807474  44.8976135  33.8944268  10.8478308  14.0263033
  32.9682302  10.9344733  14.2518866  34.3319654  11.5205586  14.5480585
  36.2854481  75.7697344  64.8016644  36.8210149  76.0278368  64.0514755
  36.8720818  75.2436066  65.3450632  18.1982923  62.5228548  45.1743269
  18.6695921  62.9516888  45.8886147  17.6583445  61.8613005  45.6068039
   4.6960744  13.9110649  56.0584068   5.5858254  13.8661039  55.7083321
   4.4496217  12.9977024  56.2042236  72.6787853  60.5652189  37.2200418
  73.2806015  60.7180405  36.4915538  71.8224096  60.4608059  36.8053770
  48.1642771  66.1151123  55.8610916  48.3659124  66.6937685  55.1257515
  49.0151834  65.7769680  56.1400986  72.4235725   0.7412165  36.4664555
  71.5833378   1.1986691  36.4976597  72.6389647   0.5730921  37.3838282
  23.2838082  21.3658071  38.6173344  22.5517774  21.9159794  38.8960338
  23.6137414  21.7894840  37.8249502  50.1435566  62.4455738  48.0184555
  49.8982286  61.8045568  48.6856461  49.3302107  62.6226044  47.5458479
   7.0662075  15.8473098  53.6724186   7.6707679  16.4742494  54.0695143
   7.1788889  15.0475645  54.1861725  35.6456828  14.0677166  51.5213585
  35.0456929  13.6759543  52.1559954  35.5395770  15.0113022  51.6422701
  82.2916889   8.9936310  44.6409512  82.0490074   8.5652250  45.4618073
  81.4578438   9.1557932  44.1997719  32.4620628  51.2650681  35.8663940
  33.2350636  51.8190622  35.9749937  31.8682170  51.5431499  36.5637112
  35.5056310   6.7163670  49.6672297  34.7085905   6.2005371  49.5452499
  36.1626577   6.0792786  49.9477005  13.0631566  78.1371832  43.2520056
  12.5149238  77.3817253  43.4640360  13.9374304  77.7697468  43.1221294
  41.5863943  75.5449533  26.6560650  41.9503546  76.2093735  27.2411346
  40.9906769  75.0393438  27.2089791  54.2604685  69.9556208  47.9760075
  55.0322294  70.4751778  47.7508879  54.6144104  69.1174078  48.2732677
  79.5864964  13.5737646  50.2903080  79.5278406  14.1526890  51.0503340
  79.1732788  14.0665996  49.5813704  47.6222801  62.3321819  35.4443932
  47.3763990  61.5341473  35.9122777  47.2679520  62.2120714  34.5633364
  80.5452156  23.5718322  47.2612143  79.9070930  24.1393185  46.8287897
  81.2586021  23.4879398  46.6285419  44.2034864   9.0109712  52.5342464
  44.3616343   9.6334445  53.2439995  45.0734282   8.8238567  52.1815014
  41.8756723  62.6441097  37.2222471  41.8686485  62.6621580  36.2652445
  40.9607935  62.5031042  37.4658632  63.6181355  69.7208452  56.2576056
  62.9264975  69.6791887  56.9180107  63.2181597  69.3553686  55.4685116
  60.7124186  69.3906784  36.1921024  59.8419809  69.2270565  35.8290601
  60.7482243  70.3399229  36.3099384   8.6303777   5.0323808   8.9526021
   8.6913204   4.5643008   9.7853202   8.3166033   5.9047985   9.1906452
  70.5430222  14.7638273  61.1228704  69.7624111  14.2637587  60.8845186
  70.2119398  15.6349576  61.3413811  79.5826340  46.1918402  39.1707540
  80.0921249  45.6195021  39.7444057  79.6588945  45.7919741  38.3044243
  56.8942165  59.8398209  60.8751774  56.0159874  59.9399137  61.2424994
  57.4611759  59.7251272  61.6378260  66.4096642  27.9924917  35.4980159
  66.3601208  27.4203467  34.7322297  66.3542604  28.8781834  35.1392484
  43.9215946  72.8369999  63.8129759  44.4781590  73.5886049  64.0168381
  43.4553576  73.0930710  63.0171871  64.0419722  47.6065731  35.5467296
  64.7326660  47.1460962  35.0701427  64.2007732  47.3914003  36.4658141
  22.3620105  62.2479248   7.7401042  22.4737477  61.9864273   6.8261218
  23.1773233  62.6976967   7.9619324  48.8037014  75.3063583  24.6958089
  49.1792202  74.6603346  25.2940345  48.4991884  74.7919512  23.9482188
  54.4344568  35.0762749  48.3597708  55.2930164  34.8734117  47.9883480
  53.9648104  34.2423105  48.3469057  12.2604024  46.4840078   1.4760350
  12.1981013  46.8323183   0.5866351  11.6828668  45.7206726   1.4753211
  35.3329444  74.4305325  43.8332319  34.4307423  74.1623688  44.0074492
  35.4709888  74.2209196  42.9095221   4.4057187  15.4013085  27.0769763
   4.4971138  14.7447288  26.3864803   5.2082592  15.9200859  27.0219302
  16.2395263   6.9567609  66.3529110  16.4067674   6.5105277  65.5227661
  16.5596378   7.8481525  66.2144136  25.5665612  13.8791203  41.9360781
  24.8293495  13.8395965  41.3268280  26.1933041  14.4680107  41.5157986
  74.0878677  25.2931738  37.3330140  73.8944864  24.9482536  38.2047176
  74.6971321  26.0144305  37.4905634  82.5605965  51.8510962  66.1231232
  82.4505997  52.8010082  66.0806704  82.6640224  51.6634178  67.0560265
  15.9328675  70.4581547  13.8797426  15.4072368  70.5196953  14.6773386
  15.2944541  70.5041933  13.1680262  65.8713150  32.1344399  51.9652271
  65.0675678  31.6150045  51.9449615  65.9541178  32.4120903  52.8775215
  74.5681906  30.3418541  42.6314259  75.5136681  30.4414964  42.5201702
  74.4038343  29.4138169  42.4642086  56.4526081  74.3337107  42.0348263
  56.8934250  73.5363340  41.7413902  55.9389400  74.0578938  42.7939701
  30.6516862  34.7128153  64.6310282  30.8634448  35.6201363  64.4115829
  30.4655719  34.2996502  63.7878895   9.3136519   6.4252323   3.6954659
   9.7757775   7.1511096   3.2762116   9.4743329   6.5475166   4.6311259
  66.1537981  13.2669747  53.1855679  66.4648151  13.7098122  53.9751196
  66.8181133  13.4614563  52.5244379  82.3212814  13.4318078  43.3908987
  82.6698875  13.6682069  44.2504454  81.4749432  13.8765919  43.3450937
  70.3948021  46.6078424  38.8563085  70.5554533  46.5410805  37.9150510
  70.3395653  45.7000637  39.1548371  42.4846649  69.8639154  55.2982569
  42.2089863  69.0279579  54.9222183  41.8667078  70.5022144  54.9419785
  58.1943035  30.3291559  46.5752220  58.3699512  29.9152827  45.7301807
  59.0261459  30.7338095  46.8212366   2.8648302  78.0282497  18.9917767
   3.3597592  77.4536562  18.4077191   2.9371712  77.6150131  19.8521459
  28.5515165  54.1309786  15.8256531  27.9564238  53.4450102  15.5230975
  27.9895592  54.8945618  15.9574723  63.0787897   5.7017082  22.9089832
  63.8787556   5.1766974  22.8834796  63.1978369   6.2833059  23.6598516
  32.3626709  57.5444794  27.9455757  31.5015721  57.9404879  28.0794263
  32.2094965  56.6035128  28.0312872  53.8341618  62.9535818  14.5506227
  53.8931322  62.8775692  13.5982704  54.7325087  63.1247139  14.8333228
  15.2725434  70.9614944  51.1051750  15.7553709  70.1465845  50.9672260
  14.4908154  70.8719301  50.5600929  50.8557177  67.5367260  63.9734173
  51.6333055  67.3572350  64.5019770  50.8275270  66.8212557  63.3381748
  20.8203220   1.8101692  43.0437994  20.4558611   1.1763130  43.6615562
  21.3671231   1.2865847  42.4580526  19.8092151   6.7283714  13.8877249
  19.9201941   7.0354134  14.7875261  19.9503016   7.5073856  13.3497071
  17.7604461  79.0077782  11.5192640  17.8584909  78.2211161  12.0557225
  18.5551119  79.0348339  10.9863424  70.5229712  36.4103055  49.0326834
  70.0208473  35.7030916  48.6277723  69.8672104  37.0688415  49.2618895
  51.9080734   1.7746598  42.4037075  52.1156788   1.1920165  41.6731882
  51.6935968   2.6106727  41.9898081  61.1418962   3.4557116  59.6694613
  60.7096052   3.0711296  58.9069271  60.5419159   3.2861656  60.3957605
  75.3436375   0.3727062  12.1587133  75.7830000   0.0791866  11.3605654
  74.4789219   0.6590848  11.8646348   2.6927188   2.4763350  45.5005360
   3.3992609   1.8925072  45.2245378   2.5359279   3.0380842  44.7415352
  23.9072394   6.8540817  61.0741901  24.8129678   6.8590927  60.7645702
  23.3866382   6.6847879  60.2889824  27.2095394  71.7314816  35.2653503
  27.2887444  71.7693043  36.2185168  27.3455954  72.6342440  34.9776983
  74.2477083  24.4764256  63.9668036  73.5250235  24.4927931  64.5942497
  74.7193670  25.2945137  64.1233301  18.0275345  57.8156328  12.9013968
  18.9733124  57.9234219  13.0019820  17.6993704  57.7326059  13.7967443
  22.3762965  75.2243948  55.4504347  23.2836199  75.1862526  55.1478815
  22.0958185  74.3097687  55.4823780  82.2657394  45.5861044  10.5763876
  82.4621868  44.8354292  10.0159132  82.4952221  45.2931166  11.4582789
  46.5036297  51.7851639  41.2914467  46.5765524  52.2005701  40.4321718
  45.5686092  51.6071415  41.3928366  44.0161705   1.4060467  36.2736082
  44.7844410   1.9769657  36.2803388  43.3396339   1.9200745  35.8328056
  70.4211283   2.6910645  27.0106483  69.5586109   2.8262818  26.6182089
  71.0055208   3.2559782  26.5050864  63.6615372  66.2941694  15.0026035
  62.8123665  66.6234207  14.7080863  64.2949867  66.7057514  14.4147515
  20.4974294  41.3028765   9.9267447  20.8210135  40.5891991   9.3770307
  20.6188512  40.9889650  10.8228183  80.8637142  31.4721060   3.0197734
  80.9646320  32.0861697   2.2924674  81.7507362  31.3565207   3.3604732
  72.8046799  19.0295184  43.6331463  73.5849333  19.0782511  44.1854763
  72.1358728  19.5106626  44.1204119   8.6644506  12.0152354  31.3996339
   8.2268912  11.2371898  31.0540628   7.9546714  12.6360679  31.5639853
  67.3090076  59.6543598  60.4333925  66.5002012  59.5572519  60.9360266
  67.0573807  59.4496918  59.5328236  76.9117880  10.3043854   8.2586563
  77.1449566  11.1929464   7.9897273  76.9297838  10.3311872   9.2153114
  62.7321959   1.5638164  44.3388557  63.5658121   1.8663588  43.9785957
  62.2569466   1.2166320  43.5839844  49.0334845  56.8807364  36.5847540
  49.8300266  57.1158314  37.0606565  48.7941074  57.6769018  36.1103654
  73.5402012  47.4899483  19.8532379  73.5220289  47.6524353  18.9101052
  74.3710184  47.8652620  20.1449776  40.1259041  68.5209227  44.9053192
  40.9203243  68.3667231  44.3940926  40.1444960  69.4579268  45.1000357
  55.0867414  33.4359360  64.4234610  54.1508293  33.4892797  64.2299366
  55.4195309  32.7748299  63.8164806  37.0786619  77.6779366  36.8208981
  37.2045684  76.7378712  36.6918421  36.7330313  77.9903126  35.9847212
  46.0021400  51.9683886  46.8712854  45.0637865  51.8229914  46.7505217
  46.1293650  51.9365692  47.8194618  11.4573312  20.0923705  61.9782686
  11.7241275  20.1589632  62.8951216  11.6051948  20.9682322  61.6215706
  42.3061943  69.8395920  38.1372499  41.4640570  70.1751041  37.8298926
  42.0777321  69.2053223  38.8167644  50.1067495   6.7519057  40.9809828
  50.3223991   7.6670969  41.1602974  49.2272282   6.6380769  41.3411427
  46.3537359  74.4389343  37.3649263  46.3447046  73.7261772  36.7260742
  45.7763243  75.1039553  36.9900012  34.6524549  53.8487148  16.3224292
  35.5275249  53.4681416  16.3975871  34.7098660  54.6771479  16.7984855
  35.3916311  66.9594336  41.8796968  36.1777329  66.5292454  42.2161674
  35.0427532  66.3477373  41.2313557  46.1479473  64.7423840  36.9691563
  46.5752268  64.0203524  36.5083599  46.1553717  65.4649353  36.3413882
  74.4398069  56.0841370  47.9315138  74.3288755  56.0537338  48.8817787
  75.3854609  56.0186529  47.7985525  41.3156748  15.9711719  14.1091406
  41.0786486  15.5794394  14.9497330  41.9385910  16.6622567  14.3341124
  45.8037663   9.8099405  25.1115704  45.3661823  10.4314399  24.5297694
  45.5744791  10.1046824  25.9929252  64.0025234  26.3893247  17.9099596
  63.9941216  27.2044754  17.4082720  63.2611990  26.4698052  18.5101187
  58.2042551  77.9160500  53.2342196  58.7871122  78.6323977  52.9825211
  58.1815529  77.9504919  54.1905308  72.8613138  52.7921009  17.1299434
  73.4548998  52.1388626  17.5003004  73.3549595  53.6114454  17.1648836
   0.9343661  61.4613247  31.7789030   0.3742255  62.2363997  31.7372060
   1.2068860  61.4117765  32.6951504   3.4678644  23.4371758  11.2683988
   3.5647523  23.4123755  12.2203588   4.3486390  23.2688355  10.9335399
  17.5306594  68.1298447  33.3644557  18.1418669  68.4848785  34.0099072
  17.7527201  67.2003365  33.3102632  40.1731968  46.4766216  15.0100029
  40.1652002  45.9944057  14.1831803  39.3635082  46.2144089  15.4480398
  32.6915359  71.2038422  49.3626928  33.5374570  71.0702944  49.7902632
  32.8618026  71.8713713  48.6981297  13.8780046   8.5078388  32.8708601
  14.2675424   9.2588210  33.3186531  14.5435309   7.8223711  32.9295182
  16.6085660  25.5135775  22.8482413  16.7855251  24.9173260  23.5758400
  15.6737304  25.4063892  22.6726723  11.8628609   7.8863245  45.4752207
  12.2701204   8.4871757  44.8512411  12.4459100   7.1273828  45.4923725
  54.8212910  50.7604790  31.7759609  55.1222801  50.8319235  32.6817942
  55.6250572  50.6838703  31.2618351   1.1337443  30.3892922  48.6014318
   0.7198957  29.5272589  48.5583162   1.1533025  30.6912756  47.6933241
  15.5980814   0.3648639   1.1203093  14.7329724   0.3083974   1.5260552
  16.1486304   0.7764895   1.7864108  25.0178432   9.5030069  24.9515462
  25.1599121  10.4438567  24.8473835  25.8974934   9.1256624  24.9439335
  16.9985068  66.7907095  67.2285414  17.2196674  66.1363077  67.8911686
  16.3829947  66.3442802  66.6471004  15.1952326   2.6169199  17.4829221
  15.8362734   3.1810686  17.0504451  15.3489232   1.7492712  17.1090269
  83.6720848  78.4847116   5.1599592  84.1982746  77.7501392   5.4758102
  84.1335106  79.2623520   5.4739529   3.0903915   6.7029101  44.2170763
   2.4629028   6.0420716  44.5099592   2.6115105   7.5297534  44.2739487
  61.2899733  15.1665640  34.5927715  60.3952408  14.8831010  34.7807431
  61.6832542  14.4269001  34.1296697  13.7986302  58.1278324  36.2002444
  13.2306385  58.4991884  35.5251789  14.6835053  58.3740091  35.9307551
  66.2254906  49.5013046  65.3422308  67.1594572  49.7098970  65.3629971
  66.1830330  48.6319590  64.9439049  77.5967693  69.2438602  53.4759188
  76.7972612  69.5976162  53.8656378  77.3189020  68.9055300  52.6247120
  40.0880194  47.3170376  35.3265810  40.0837851  46.9179392  34.4565606
  39.5234752  46.7506695  35.8526492  81.6416454  19.3437552  66.9303656
  81.0916233  20.1236105  66.8559551  82.1693897  19.3457961  66.1318016
  77.1116924  42.9240417  39.3936539  77.5608015  43.0721378  38.5614276
  77.3930264  43.6502409  39.9501801  16.9585848  72.8369617  46.1509562
  16.2542248  73.2222080  45.6297112  16.5516937  72.6392698  46.9945097
  75.4150867  77.4754000  31.6365719  74.8108530  77.8411198  32.2826219
  76.0794210  78.1543684  31.5186906  26.3290739  53.4470844  36.3107133
  25.8789539  52.8657913  36.9236755  25.6362820  54.0048122  35.9568620
  81.9001961   7.0849603  46.7209053  82.6447678   7.4273539  47.2154808
  82.0651436   6.1440206  46.6604376  17.8075719  31.5840769  66.5036011
  17.2283316  32.0206928  67.1281624  17.2798955  30.8697367  66.1465168
  62.0031071  55.7918501  60.6534958  61.3572311  56.4505339  60.9088755
  62.4351740  56.1652851  59.8853207  20.9340143  13.6783683   3.3866483
  20.8582759  12.7738011   3.0829164  20.6311727  14.2054451   2.6472503
  70.2247620  44.3330765  26.1069846  69.4366503  44.8448896  25.9248900
  70.2085352  44.1972017  27.0543528  64.6237612  44.1639805  67.5208521
  65.5751419  44.2550850  67.5737953  64.2841578  44.9785662  67.8914690
  40.0372553  70.8135700  37.0030141  40.0685120  71.7579651  37.1558690
  39.6130109  70.7229519  36.1497641  72.6546431  57.0331001  33.3247256
  71.7720509  56.9606686  32.9613900  72.9870129  57.8631020  32.9828763
  78.4069490  63.4518909  65.8202076  78.6550665  63.3385515  64.9026966
  79.2260599  63.3478928  66.3044310  39.9955225  64.3101740  45.7679462
  40.4136801  64.0961885  46.6019630  39.2508626  64.8616552  46.0079050
  71.8615389  23.7366939  17.2681487  71.7282963  24.6273780  17.5924325
  71.4811993  23.7421989  16.3897753  61.0503721  71.9874239  35.6302977
  60.6258917  72.5847769  36.2461042  61.9860983  72.0890903  35.8043909
  43.5712862  71.8959236  44.4118690  42.7542162  71.7742634  44.8954201
  44.2478609  71.5499830  44.9939346  77.2765207  56.1678076  47.3050547
  77.5026035  55.4220724  46.7491865  77.5324869  56.9347525  46.7926979
  83.2444859  13.5626590  40.7364273  83.7641907  14.3285847  40.9803629
  82.9162407  13.2211506  41.5682077  21.1821198  52.7413940  42.5768566
  21.3313317  51.8419504  42.8683472  21.3801813  53.2778978  43.3444309
  47.3210526  64.3938732  16.5212750  48.0710506  63.8110828  16.6399968
  46.7688322  64.2324400  17.2862720  37.2287607  47.4284124  38.1318188
  36.9112968  47.6832533  38.9981341  37.1757913  48.2303333  37.6118708
  40.1104784  71.0252619  20.5389833  39.7606897  70.3538322  21.1246967
  40.9869480  70.7134676  20.3135633  27.1502066  63.2012510  28.4148312
  26.9995737  63.6750746  29.2327762  27.2861862  63.8878202  27.7618647
  35.0661588  47.5692892  34.3863034  34.4818878  47.1820211  35.0381351
  34.4931984  47.7894354  33.6518073  70.3267241  45.4403830  18.8706541
  71.1088753  44.9031973  18.9967644  69.9421978  45.5123758  19.7442591
  79.5783854  15.4200256  52.4912739  79.6899319  14.6951282  53.1063414
  79.6724701  16.2066257  53.0285263  32.7715087  72.9360342  18.7255919
  33.7198734  72.8127909  18.7662113  32.5668883  72.9135942  17.7907884
  45.0072479  59.1677427  47.3970366  45.8440876  59.5161724  47.7044916
  45.1366472  59.0265417  46.4591932   5.2917421  25.3622293  34.0404391
   4.7276694  25.3898001  34.8132873   5.6439906  24.4722342  34.0326357
  51.3460684  67.9877329  25.5758190  50.5478573  67.9158545  26.0991979
  51.6656685  68.8736391  25.7468700  71.9670916  10.5701196  49.6544552
  71.3508320   9.9742615  50.0803804  71.6578627  10.6285119  48.7504625
  35.6921196  38.2672358  33.6422896  35.9392715  37.6676726  34.3463302
  35.2533865  38.9919591  34.0878487  81.6576385  62.2662783  68.0736542
  80.8493137  61.9639301  68.4876823  82.1982670  62.5748920  68.8007832
  81.6637135  29.8615670  53.1522512  81.3004303  29.6484923  54.0118170
  82.2612476  29.1391754  52.9590034  78.7106848  73.0043888  31.9808650
  79.0425205  72.7223253  31.1284828  78.9479446  72.2942257  32.5771952
  42.5609732   5.8729690  11.8357098  41.9797087   6.4293182  11.3172114
  41.9794130   5.2271342  12.2368515  63.1182194   7.3971695  15.5352759
  63.7304831   6.7082101  15.2770174  63.6762094   8.1050652  15.8573937
  48.6833668  67.8286648  26.9449711  47.9262781  67.2429705  26.9417548
  49.0846777  67.6966333  27.8038931  73.6349344   5.6328332  31.9854665
  74.2441940   6.1481762  31.4568305  73.6199045   4.7734979  31.5641022
  81.6738987   6.7476958  19.1576457  81.4023972   7.6111358  18.8462162
  81.4266205   6.7379278  20.0823021  72.2926092  29.6374488  36.3351440
  72.4964714  29.4583678  37.2530770  73.0123806  30.1917768  36.0336804
  82.2034550  31.7767978  32.5476909  81.4912319  32.1747065  32.0470548
  82.8691292  31.5676999  31.8924189  25.2024174   5.1996118  51.2122726
  25.6152058   5.3738004  52.0581436  25.2471519   6.0351229  50.7473516
  73.6190033   5.5557317  39.3427205  74.1372824   4.8715591  38.9190197
  73.7762070   5.4303521  40.2785635  29.8965502  75.4222918  26.2427235
  30.5031753  74.7180700  26.0140133  29.2851162  75.0206661  26.8600368
  56.6299868  56.5151739  14.4477713  55.9416676  55.8722830  14.6184623
  56.2861109  57.3344755  14.8037541  18.9061999  75.4605341   1.9772689
  18.1464148  75.2778959   2.5300831  18.5514724  75.9548903   1.2383424
  69.9461031  39.7955990  38.2724714  70.4855585  40.2008009  37.5934792
  70.3027630  40.1323366  39.0944409  83.6380768  31.2520885  56.3974619
  82.7340794  30.9374142  56.3981867  83.6804771  31.8571448  55.6569624
  28.5910153  78.9911413  57.0113707  28.6193395  78.9837885  57.9681253
  28.7558913  78.0824089  56.7598820  38.4660244  68.0951166  34.9074173
  38.6046338  67.1486425  34.9420810  38.1555080  68.2592583  34.0169835
  20.5067682  75.6355143  37.1003127  20.8614111  75.7444859  37.9826880
  21.1721468  76.0148764  36.5262151  81.2161446  53.8442469   9.0347797
  80.3104019  53.5689497   9.1764879  81.2300301  54.7652864   9.2950141
  76.1147022  36.9944406  57.1382761  76.7991972  37.3990965  56.6054058
  75.3327036  37.0248652  56.5871048  77.2723913   6.3089687   4.9449313
  77.3760796   5.6087011   5.5892187  77.3573494   7.1160048   5.4525805
  70.3722334  11.6210818  61.7003250  69.5626831  11.1605108  61.4795589
  70.5860472  12.1207237  60.9123707  38.3013511  72.2915125  29.5241165
  37.4275231  72.2431517  29.1364121  38.2054710  72.9015875  30.2554488
  71.8521261  63.9128208  17.7888417  71.8752718  63.1784678  17.1753132
  72.6706457  64.3831205  17.6304734   0.1398449  15.9201336  41.4044523
   0.7802141  15.6523061  42.0635653   0.6464377  16.4283061  40.7709265
  53.4700441  71.2472725  44.4689989  52.9703140  71.4096785  45.2690744
  53.7408876  70.3317451  44.5374584  41.8033838  17.6518691  40.6898499
  41.8982792  16.7022145  40.6164789  41.6344023  17.8045726  41.6195583
  18.0365193  16.9932592  58.1211376  17.7302337  16.6234708  57.2930813
  18.8974488  16.5973461  58.2563591   8.0903387  33.5546303  55.3656769
   8.5948104  34.3215871  55.6368208   7.6679420  33.2496595  56.1686754
  74.3117809   0.7039934  39.0204453  74.6845293   0.2114560  38.2892132
  75.0053024   0.7149716  39.6800995  52.2528267   6.2518799  50.1844358
  52.6316786   5.3913462  50.0050354  52.1114397   6.2586910  51.1311150
   3.4283444  32.6537895  31.6238666   3.2883251  33.2025766  32.3955250
   3.7301159  31.8167663  31.9767952  36.3384485   6.4283770  45.4845953
  36.4652038   5.5825019  45.9143162  37.1294808   6.9247043  45.6947374
  79.9204969  34.2218590  42.2188997  80.3798485  33.7266827  41.5406466
  80.0347805  35.1378322  41.9655895  21.9389844  13.5540509  20.9619927
  21.9988394  14.2527831  20.3105164  22.7953291  13.5513294  21.3896585
  26.3058209  25.4334402  17.2796810  26.8646264  26.0834146  16.8536532
  25.4135656  25.7245779  17.0916557   4.5221168  24.1096926  20.2019954
   3.7172428  23.9687061  20.7005262   4.8075581  23.2302713  19.9542594
  41.2674141  20.5603194  34.0420508  40.5358076  19.9751103  34.2382932
  41.6362810  20.2179050  33.2278490   1.0357711  58.2237196  22.3415542
   0.3253862  58.8432312  22.5082636   0.8696602  57.5004721  22.9461622
  68.4521341   1.3273114  51.0157013  68.3042526   1.2717405  51.9597721
  67.7661896   0.7801312  50.6331968  48.3483124  74.8738384  34.5214105
  49.1913176  75.1320028  34.8941374  47.8636074  75.6946087  34.4340968
  32.5903296  59.7323704   8.5428631  32.5623941  58.7866116   8.3979845
  33.0809641  59.8353767   9.3582773  80.6637859  15.9449923  21.8752384
  80.7906723  15.2997434  21.1796927  81.2243080  16.6796458  21.6255808
  29.5336962  30.0151753  39.6010566  29.9785519  29.4161320  39.0014887
  29.9615550  30.8593082  39.4574904   9.8234421  74.3382692  11.2921381
   9.9570930  75.1254749  10.7642376  10.5495906  74.3419647  11.9157779
   6.8207192  53.1754780  32.0902777   6.9531178  52.2919083  31.7467594
   7.6737124  53.5994339  31.9959617  81.1888695   0.1942564  10.5081427
  81.4725208   1.1030696  10.4089844  80.8731651   0.1389364  11.4100873
  33.1870103   2.5035670  22.4954772  34.0923977   2.2262761  22.3554254
  33.2607293   3.3299229  22.9729009   9.4734669  23.5929704  11.2842309
   9.0360147  24.3553448  10.9052169   9.3092656  23.6654615  12.2244513
  49.9597073  37.6875281   9.2086518  49.6377659  37.6599407  10.1096642
  49.9238777  36.7776608   8.9135420  71.0799789  62.5413990  49.2621756
  70.2575588  62.2937393  48.8396597  70.8533192  62.6426363  50.1866293
  62.4464798  23.7075615  26.7299223  62.5442171  22.8168988  26.3931751
  62.2930908  24.2425728  25.9511614  44.3485785  78.0535698  58.9061546
  44.8572922  78.8642931  58.8931322  43.4363985  78.3428001  58.8837576
  13.3692622  12.4445784  37.9247427  13.4088635  12.4709940  38.8807583
  12.4373198  12.3538315  37.7260447  78.1295633   1.5695736  59.4905424
  77.2366428   1.8566754  59.6815681  78.6416149   2.3780076  59.4688654
  49.0147591   4.2325550  35.7226706  48.1737280   4.0332988  36.1339974
  49.6669102   3.9782789  36.3755679  56.5688419   6.2840515   9.6890128
  56.5341663   6.8504518   8.9181554  57.2328472   5.6286693   9.4750029
  39.0157747  10.0737667  65.3690290  39.0838265   9.1784739  65.7007694
  38.1949067  10.4030681  65.7350445   0.4268109  23.7416196  24.8921371
   0.3632392  23.4916592  25.8139348   0.5632543  22.9152465  24.4287539
  43.4904528  70.8973122  41.8843889  43.5395908  71.2229919  42.7831411
  43.2896423  69.9660826  41.9777346  28.9092517   8.4616798  18.8799930
  29.4134259   9.2750037  18.8566685  28.3593655   8.4982252  18.0973566
  45.8111095  31.7676735  18.9657187  45.1980782  31.8026543  19.7000253
  45.2539682  31.7848730  18.1875610  40.7512522  72.6179314  34.3313479
  40.7944727  73.0164433  33.4621239  41.6616249  72.4167967  34.5481539
  73.5867739  16.4983940  24.6355581  73.1077242  17.2783518  24.9155712
  73.3535194  15.8299208  25.2797365  54.3361950  77.6424932  62.0781517
  54.8816824  77.7035141  62.8623438  53.9303350  76.7774916  62.1354294
  80.2766895  14.8794663  28.0058551  79.9018764  15.2580154  27.2105908
  81.0266209  14.3702960  27.6983213  51.5862799  78.0356216  64.7465515
  51.7788506  78.1305265  65.6793690  52.3761702  78.3488131  64.3058538
  77.6086760   3.1725493  36.7099142  78.5486984   3.2898903  36.5727139
  77.4873877   2.2234866  36.7382216  16.6638470   1.9830678  41.4188719
  16.3353360   2.2514100  40.5607891  16.4952886   1.0415636  41.4561510
  84.3164062   5.8791453  43.5479689  83.6814308   5.2441788  43.8794136
  84.3658257   5.7005835  42.6088715  34.2305112  76.2268686  37.1674204
  33.3495474  75.9921503  36.8758011  34.5808244  75.4199553  37.5447893
  49.1655302  79.0716743  57.2440863  48.7649632  78.2281256  57.4543428
  49.2191458  79.5273781  58.0841351   5.7046837  31.9059348  18.3148563
   5.3512740  31.6801953  17.4544048   6.6542923  31.8887544  18.1957769
  72.5857115   1.0168876  15.7653058  72.4097681   1.1226439  16.7002332
  73.3378744   1.5845989  15.5974221  26.0296392   6.4986074  21.4314222
  26.4133620   7.2788614  21.0311794  25.1932597   6.7986667  21.7873216
  54.1319561  41.9987249  57.2113609  54.8591518  41.4138603  56.9983959
  53.7188435  41.5984726  57.9764557   9.3142337  16.7053294  46.1470652
   8.9673376  17.5704479  45.9291983  10.1849794  16.6894436  45.7498455
  58.8800335  14.5451021   2.4755272  59.3844318  14.3452942   3.2641280
  59.0831709  15.4613090   2.2870214  77.4820280  31.0776114   0.9700151
  77.2707224  31.0858488   1.9035637  76.7865992  31.5938616   0.5624698
   2.0491362  15.1904261  43.4351206   1.3002898  15.3182602  44.0174580
   2.8036028  15.4801643  43.9480162  13.9534354  26.3886738  48.9293098
  13.7474442  26.6894102  49.8143864  13.5413766  25.5269432  48.8671827
   7.0937228   5.3654820  59.5395803   7.8772098   5.6919968  59.0971231
   7.3823845   5.1821864  60.4336214  15.4068923  46.8339205  32.3087406
  14.4575572  46.8285751  32.1864009  15.6993949  45.9962797  31.9495296
  22.0230532  78.1031322  28.5429192  22.2358680  78.8986683  29.0308356
  21.6494989  78.4193897  27.7203202  64.9851942  71.9313574  55.6841183
  64.9025106  70.9959412  55.8695698  64.3353415  72.0985603  55.0015068
  49.2342567  67.6050091  50.3290606  48.3382607  67.9417515  50.3233862
  49.3900871  67.3236275  49.4275188   8.5118461   7.6328766   9.8672730
   7.9221350   8.3158851  10.1866031   8.9115351   7.2722626  10.6587517
  46.2080002  58.7129211   6.9682759  45.7751608  59.4909096   6.6166919
  46.4883089  58.9710093   7.8463686  43.0139589  71.0206699  50.3950739
  43.3096361  71.2513161  51.2757587  43.7733698  71.1862850  49.8364210
  68.6837196  21.8120527  27.1569300  68.6316919  20.9306860  27.5266838
  69.6014738  22.0624781  27.2629571  35.1177502  61.3162327  42.2851324
  35.2641797  62.1353149  42.7583122  34.1655469  61.2225580  42.2574425
  20.3486109  59.9781704  59.4467831  20.1924562  59.9055338  60.3883600
  20.3551984  59.0733385  59.1345835  66.4911366   8.8571203  42.3602867
  67.0892763   9.0516704  43.0818176  65.6179667   8.9668679  42.7368021
  55.7936096  59.3082857  29.7219515  56.0413027  60.1212740  29.2815733
  55.7850981  58.6516476  29.0255427  15.2617407   6.6392654  43.2731581
  15.5561006   7.5003147  43.5701036  14.3555105   6.7777598  42.9978466
  71.0329819  55.1466560  48.8637972  71.4058018  55.0952578  47.9836845
  70.7101774  56.0449600  48.9350843   6.8288010  41.8175364  15.4239488
   7.4656558  42.4173546  15.8123589   6.8022043  42.0624971  14.4990063
  32.3267865  41.3448381  21.8426824  32.5786567  40.8927155  22.6479030
  32.9234815  42.0914745  21.7905521  42.0735216  12.1726394  38.4852290
  41.5249538  12.9234791  38.2581925  42.7951384  12.2046030  37.8571558
   6.7868614  27.8207517  37.9037333   6.5397996  28.3888125  37.1740079
   6.3197017  28.1818151  38.6571431  76.7809010  20.3049707   6.8279403
  77.6571321  20.1278305   6.4857763  76.2827730  20.6043339   6.0673600
  18.3090305   0.8437458  46.4471388  17.6253927   1.3062316  45.9623957
  19.0927935   0.9394263  45.9060383  42.0565033  72.8165340  31.5975046
  41.7177820  72.6713800  30.7140851  42.0309448  73.7666702  31.7107034
  73.9590788  79.4387484  52.5961781  73.4473944  78.6844778  52.3038006
  74.5740461  79.0779543  53.2348347  43.5411739  75.6272840  62.5782967
  43.2082605  75.6436777  63.4755850  44.4166231  76.0092926  62.6406193
  25.2817035   0.5375104  43.0430317  25.0918555   0.8463651  43.9289188
  26.1102819   0.9589744  42.8148651  16.4363670   7.4835497  32.1235085
  16.5949297   6.7069286  31.5868998  17.2164261   8.0241156  31.9989014
  78.1052446  10.3011918  58.1422567  77.1617031  10.2549088  57.9879141
  78.4123373   9.4029164  58.0196762  21.7196560   3.3913225  28.4061956
  21.9252467   4.1773224  28.9123273  22.4038124   3.3509871  27.7379656
   0.5463415  36.7940187  46.1704874   1.2195921  36.8795848  46.8454981
   0.3454325  35.8583689  46.1498308  66.3577271  13.9416647  30.4498911
  65.9598827  14.8044348  30.3333569  66.1465359  13.7003696  31.3517809
  72.5538063   6.3910645  27.4230433  72.6126432   5.7367754  26.7268562
  72.5030422   5.8784568  28.2298207  65.7009840  61.2786865  53.3506775
  66.1966324  61.4553738  52.5510836  64.8319960  61.6414261  53.1788874
  15.1029825  22.3225045  24.1338444  15.8037281  22.6483226  24.6986723
  15.0650537  21.3836718  24.3165684  37.1529222  47.1888447   6.0524583
  38.0392742  47.2094297   5.6916463  36.6086316  47.5876474   5.3735363
  18.8705862  15.8754599  33.9759636  19.3267047  15.0364280  33.9110565
  17.9432523  15.6415272  34.0154505  76.7308664  45.3263474  21.0790491
  76.6363573  46.2219524  21.4033771  77.0081377  45.4292965  20.1686883
   6.8012851   6.4092147  49.2930031   5.9826255   6.7206669  49.6790409
   7.4852711   6.7792040  49.8511267  67.4710035  30.0406528  10.5780756
  67.6651096  29.1033602  10.5840325  67.5151920  30.3002524  11.4983404
  65.4978275  22.3406053  47.9213095  64.9747419  22.9865360  48.3960629
  65.2656889  22.4732184  47.0022011  15.4959369  22.4282551   6.9183350
  14.5625770  22.2192931   6.9558597  15.7018280  22.4378943   5.9835905
  31.8758488   4.6200916   0.9130710  32.7767777   4.3353713   1.0663424
  31.7082691   4.4015461  -0.0036552   6.6412550   9.7713512  11.1121535
   6.6719741  10.6224000  10.6751132   5.8972156   9.8362643  11.7108381
  65.2552271  58.3719063  10.6333637  65.7381058  58.5257483  11.4453936
  64.8154211  57.5330257  10.7714963  12.0477438  16.7723846  65.1426125
  11.8976903  16.6550553  64.2045546  12.7379990  16.1442137  65.3551674
  17.3016107  12.9092455  33.4205246  16.5891767  13.1629002  34.0073180
  17.0362556  13.2428074  32.5634623  73.9198828  65.7082081   8.1604087
  74.8142004  65.7253027   7.8196299  73.8586378  64.8767805   8.6307383
  70.8683395  71.1517954  35.2732539  70.2217770  70.7169533  34.7172856
  71.4156628  71.6457462  34.6627736  75.3654289  40.5903721  13.3863568
  75.0223732  41.2321186  14.0082133  74.8891449  39.7845674  13.5865092
   4.8226461  17.6564550  32.8537464   5.4018050  16.9589806  32.5466061
   4.0042558  17.2099876  33.0708551  63.1747723  75.1657772   5.4928064
  63.0062532  75.4809856   4.6048447  62.6487207  74.3696547   5.5682230
  81.3229942  51.5854454  33.7423849  81.5573788  52.2676086  33.1131387
  81.9766045  50.8994722  33.6065340  12.4389827   3.5694835  26.3000774
  11.6655827   3.1541517  25.9185243  12.7784359   4.1302049  25.6025147
   3.8622442   0.9693675  53.3748484   4.6015880   1.5645494  53.2509041
   3.1598347   1.5265360  53.7101316  67.0616293  39.4138622   5.3621376
  66.8814850  38.9524603   6.1812162  66.2019348  39.5263934   4.9565536
  83.8597965  72.9685926  36.5175343  84.4580650  73.2017136  35.8076382
  83.0105686  72.8605366  36.0893083  21.1928225  34.0245533  26.5772963
  21.4937425  34.8744607  26.2558389  21.6087556  33.9317155  27.4343920
  11.8408382  36.7710161  60.8302021  11.7438936  35.8380175  61.0208559
  12.6663780  37.0163345  61.2479734  66.3483000  74.5570993  17.7945733
  66.1920547  74.1413832  16.9466352  66.5864563  73.8344574  18.3753502
  27.5605655  17.6490438   4.5867538  28.1148434  18.3921766   4.8249966
  27.7417684  17.5030494   3.6582699  34.7894812  15.7852185  57.8512955
  35.7071280  15.8829629  58.1054688  34.5466232  16.6406798  57.4971247
  83.0116940   2.6816627  20.8998513  82.5705051   2.0267141  21.4407992
  83.8453197   2.2749278  20.6634808  25.2847695  27.4835801  52.4565458
  25.8462358  28.2158327  52.7110910  24.5103717  27.5710726  53.0123186
  47.7150631  57.9889965  33.5183549  48.5896301  58.2897186  33.2715201
  47.4358702  58.5990047  34.2011213  14.9651217  30.2157259  12.0545995
  15.0276339  29.7592378  12.8936124  15.7365167  29.9271321  11.5668559
  10.3743005  21.8150115  28.8275194  11.2724102  21.7002034  28.5169530
  10.2899110  22.7572680  28.9733505  83.1400204  32.1203518  44.6314526
  82.2059345  31.9494653  44.5110226  83.3630657  32.7352738  43.9326286
  67.6323843  46.7001486  36.1028934  67.7891636  45.9823275  35.4893899
  68.3705950  46.6610670  36.7109609   3.8320729   1.4548051  29.2404914
   4.4639194   2.0794812  29.5965552   3.0425197   1.9737859  29.0872073
  80.2447224  12.9837739  25.4542589  80.2971745  12.1896446  25.9860849
  79.7616005  12.7168357  24.6722293  82.7585125  67.4688435  10.2599132
  82.7721500  67.2185278  11.1837018  83.4818649  66.9792509   9.8683900
   6.1467814  18.5840654  44.3027782   5.3891587  18.0341685  44.5024109
   5.9358639  18.9855552  43.4598351  74.6367359  16.6551960  59.9446487
  74.7492361  16.6536677  58.9940834  75.0383425  15.8361554  60.2346802
  51.0513496  51.3056278  64.3699360  50.4362154  50.6316900  64.0807247
  50.4964209  52.0418215  64.6274376  59.8549080  16.6393220  16.0558605
  59.5463419  17.4442625  16.4718997  59.9823380  16.8779242  15.1376772
  62.5106621  56.7653513  49.1656160  62.5501823  56.2405729  49.9651623
  63.4152269  57.0391560  49.0138769  77.1490383  31.5058374  24.0099692
  77.5997639  30.7294941  23.6777472  76.3255787  31.1711049  24.3650770
  54.2347670  23.1959486  25.0514770  54.5114756  22.2853827  25.1541066
  54.3388414  23.5775948  25.9231114   5.2484006  24.6511889  54.6527863
   5.9875649  25.1762915  54.9596024   4.8137987  25.2052140  54.0043926
   4.0178573  62.7149582  35.4650021   4.7188437  63.0674553  34.9167347
   4.4179112  62.6120520  36.3284826  34.1426802   3.1813246  40.4051638
  34.4603920   2.3919392  40.8435249  34.7440219   3.3060628  39.6709538
  74.4310904   8.6608219  18.2429004  74.7690916   9.0685993  17.4455893
  73.5132742   8.9301348  18.2790959  84.4439983  43.2057190  45.7154083
  84.0633297  42.4765682  45.2258539  83.7156487  43.5560608  46.2282515
  22.3794174   5.5718124  29.7788453  22.8197336   5.6890529  30.6206346
  21.8154287   6.3405919  29.6944308  38.1008482  74.3700552  66.0878134
  38.9523101  74.5099354  66.5021563  38.1002045  73.4431934  65.8487225
  27.1052766  71.6515446  14.7310197  26.5153718  72.2101164  15.2372265
  26.6893864  70.7895231  14.7446549  44.1294050   4.5602116  14.8196840
  44.3509531   3.9755976  15.5445123  44.4685888   4.1168460  14.0421164
  38.8573265  12.6672447   8.9795238  39.7642183  12.3933589   9.1165167
  38.3734274  12.2619498   9.6991134  22.9283547  76.6742945  35.9503794
  23.4235930  76.1118460  36.5458822  23.5974383  77.1353054  35.4443812
  72.3683119   9.5018363  57.1840382  72.9544973  10.0766063  56.6918421
  72.0528221  10.0439155  57.9071236  70.5593109  71.3826418  16.6139436
  70.8065844  70.5328417  16.9785380  70.2763605  71.8950367  17.3713243
   0.5332980   0.4054337  49.0553331   1.1748011   0.6132509  49.7346830
   1.0253056  -0.0991896  48.4076309  19.6139801   5.4338032  20.5436778
  20.3385520   5.6868494  21.1156869  19.5313466   6.1604410  19.9261010
  74.7092342  76.8315935   1.8057668  74.4502115  76.0070419   1.3943565
  74.0415621  76.9859219   2.4740726  71.9648027  52.5527668  31.0219455
  71.7415237  52.8151321  30.1288915  72.7430725  52.0043802  30.9229732
  60.6534147  57.6697636  64.3260717  60.1109409  58.1887341  64.9198914
  60.7538986  56.8268776  64.7684288  19.0777683  32.6426911  40.6835556
  18.5438013  32.3639035  39.9396539  19.9733901  32.6506972  40.3458691
   2.3948728  23.1336284  64.8872089   2.7076778  23.6879253  65.6021500
   2.2219202  22.2868729  65.2987003  69.7324991  79.2122364  21.9359517
  69.2480516  78.7611866  22.6273966  69.1069174  79.2878866  21.2154293
  76.5125656  72.1358156  53.8642740  75.9246492  71.6962624  54.4785881
  77.1952772  72.5164318  54.4167852  38.7245941   1.4507225  27.8476024
  39.5067883   1.9655821  27.6492953  38.4880471   1.7080306  28.7387061
  35.2319384  52.1338797  67.8061342  35.9345365  51.6076279  68.1877708
  34.6372557  51.4929819  67.4164724  19.2753172  17.3626423  24.7640729
  19.6016669  16.7439485  25.4174829  19.7589612  18.1704617  24.9365449
  52.3156548   4.7655529  64.6058702  52.1326113   5.6546670  64.9095201
  51.7946434   4.6728399  63.8082552   4.6284419  26.2321329  41.5810108
   5.4823768  26.6479182  41.6999674   4.2796704  26.1432815  42.4679661
  41.8962765   1.7392169  41.2262821  41.8713808   1.8183760  42.1798801
  41.7772150   2.6342285  40.9084606  47.6904964   7.5542331  20.7462168
  48.3978415   7.0064580  21.0865664  47.4367619   7.1344143  19.9242675
  69.6218109  14.0615594  18.9312184  70.5714750  14.1785145  18.9047980
  69.2967701  14.8420131  19.3800747   1.3013984   8.5223472  19.9461687
   1.6463263   8.9699942  20.7187414   2.0254275   8.5327351  19.3201447
  61.7173004  33.3169961   4.3407130  61.4891243  33.9645743   3.6737725
  61.1289358  32.5812173   4.1713384  57.5931740   7.3864436  29.4107676
  57.2794724   6.8244576  28.7022519  58.0083323   6.7842346  30.0281978
  36.7761469  27.3484588  44.9090719  35.9466362  27.7328229  44.6255064
  37.0117545  27.8406525  45.6955004  82.9551983  22.6645565  58.3541822
  83.0678368  21.9551373  58.9868546  83.8044071  22.7335024  57.9179287
  30.6080842  56.6633177  32.3523092  30.3730226  56.2433195  31.5249157
  30.3948021  56.0120487  33.0205846  78.1474829   2.1969374  50.3545523
  77.2104168   2.0279530  50.4524374  78.3384609   1.9677880  49.4450188
  80.4198265  32.7018285  30.6594706  79.9305296  32.9904008  31.4298892
  81.0629845  33.3949804  30.5107331   7.1540415  34.7666192  26.5002632
   6.6430873  34.6923208  27.3062634   6.5075785  34.9722409  25.8249569
   2.8360501  63.9963627  38.7884235   3.1949177  63.2094002  39.1984630
   3.3227772  64.7175503  39.1874480  72.8990746  15.5293560  20.9911418
  71.9871235  15.5256653  21.2819362  73.1314135  16.4566898  20.9431529
  45.2983189  57.0428085   0.6726159  45.2257681  57.3418713   1.5789989
  44.6640062  56.3292122   0.6043536   4.6631098  31.2578821  15.5261779
   4.3220553  30.6276083  16.1607397   3.8835156  31.6165280  15.1021051
  80.9920502  16.2794578  43.9927101  81.9026852  16.0304415  44.1507006
  80.9408188  16.4122570  43.0461550  33.2139325  23.6568880  17.7051818
  32.6803064  23.9043927  18.4603083  34.1080928  23.6216784  18.0449915
   7.9154140  41.1612368  57.4299812   8.3590579  41.5450287  58.1863642
   7.1296990  41.6960096  57.3163843   8.4374052   7.5786602   6.5360010
   7.8305197   6.8403447   6.5890366   8.3610803   8.0129457   7.3855907
  36.1520600  14.2186093   7.9114407  36.3202000  13.7798166   8.7453604
  35.2027345  14.1665435   7.8005332  54.3210745   4.2744213   9.4199687
  53.6620331   4.7430038   8.9077914  55.0958395   4.8353687   9.3838602
  27.1705429   4.8286486  -0.0241909  27.0387451   4.0827131  -0.6093750
  27.5577013   4.4488382   0.7645359  81.7261600  10.2766347  47.6738119
  81.4287663  10.6832492  48.4877253  82.4877357  10.7940018  47.4119425
  75.7105446  71.1986208   9.9925578  75.4398727  70.4361963   9.4810092
  75.3259754  71.0556030  10.8573616  60.3874540  73.6195660  40.1253128
  60.1414680  74.1096306  40.9098911  59.6933985  72.9685068  40.0221682
  56.5659380  47.3896933  42.8361845  57.2311878  47.7218151  42.2333813
  56.8462229  47.7004719  43.6970520   0.8798114   9.9052507  59.1665602
   0.7767827   9.1269982  59.7142315   1.5850027  10.4000854  59.5837879
   8.2712436   1.0728221  34.5567703   7.9066902   0.7789786  33.7219119
   7.9951328   0.4067904  35.1863694  15.4315662  14.3849719  23.0776644
  16.0306597  15.1157689  22.9251671  15.3893328  13.9303303  22.2363853
  18.0973411  35.5544758  34.9731994  18.2919598  35.9358978  34.1171193
  18.1159019  34.6091509  34.8240352  17.2936249  23.9411283  24.9622631
  18.2425344  23.9233422  24.8378158  17.1388507  23.3604813  25.7073307
  66.5546989  37.8995705  62.6389265  67.0055962  38.7428761  62.5970125
  65.7581472  38.0784488  63.1386662  63.8446283  22.7008152  56.5611649
  63.4728241  22.4701428  55.7098198  64.0735912  23.6266422  56.4796066
  38.6035371  35.9781694  68.7084055  38.3533931  35.2542257  68.1343269
  38.4925771  36.7610168  68.1688976   3.7437427  32.9916430  38.6784911
   3.7462878  32.6750016  39.5817995   3.1170440  32.4254847  38.2279968
   9.5882362  25.5045223  39.3688583   9.0577829  24.7096539  39.3137860
   9.4993061  25.9119892  38.5072923  77.4303007  43.7880564  11.5827298
  77.0933723  42.9992437  11.1578882  77.8869534  44.2590570  10.8856928
  20.8886743   1.6768485  56.6272402  21.7196345   2.0883052  56.3896704
  20.9839535   1.4631458  57.5554037  69.7616100  52.4943495  53.4212255
  70.5809259  52.2802496  52.9750061  70.0125551  53.1314135  54.0901089
  25.6009769  66.6917992  18.0345511  25.9459162  65.9505224  18.5323036
  24.6957469  66.7801523  18.3328581  47.3151922  18.7548971  17.6816165
  47.7965069  18.1749642  18.2717407  46.3953066  18.5320508  17.8243935
  36.2605166  13.4368038  10.7014203  36.7279649  12.6508784  10.4184973
  36.1296582  13.3122921  11.6414225  22.1596670  27.6623034  48.3383894
  21.6333914  27.2459030  49.0209389  23.0617285  27.4248290  48.5531569
  33.8179088  17.3708785  19.8679852  33.6646962  17.8328562  19.0437675
  32.9662633  16.9976842  20.0952744  71.6722250  71.1124849   2.9491249
  70.8745527  71.4846420   3.3252192  71.5434408  71.1767483   2.0028076
  15.9103370   2.5854406  47.9908657  16.5884972   3.2244968  47.7719212
  15.8622575   2.0149031  47.2237921  10.1868427   6.1659688  27.6453233
  10.0531149   6.2311852  26.6997576   9.9559081   5.2617359  27.8580761
  78.8860846  25.9729791  20.3933358  78.8955021  26.9294667  20.4289913
  79.7943258  25.7182837  20.5559969  27.8353953  79.0289783  59.9128675
  27.5631809  78.3171225  60.4919958  27.1177387  79.6608877  59.9564028
  48.5113764  10.5832160  16.3629329  48.2275438  11.0505414  15.5772626
  48.4208536   9.6575207  16.1368227  72.7116728  59.9302626  11.6191280
  72.4451208  59.4767761  10.8194220  73.1120348  59.2486477  12.1588874
   7.3795843   7.6883042  15.4390693   6.9336480   7.0112848  14.9301314
   7.6367104   8.3444864  14.7913480  81.9135666  14.5457673  37.0865464
  81.4551067  14.2775285  37.8828502  81.4404964  14.1080511  36.3788390
   1.1768000  56.1815214   3.4446713   0.5652116  56.9175339   3.4228215
   1.2998050  55.9999037   4.3763986   7.1676314  74.2424917  55.3443336
   6.4046264  74.7354460  55.0425863   6.8395859  73.3538342  55.4818439
  78.7238550  19.4084823  14.8636949  78.6214685  18.6769521  14.2549157
  77.8565216  19.5191121  15.2532196  75.3841305  29.5277500  24.9337268
  74.6552992  29.5602393  25.5533910  75.1921606  28.7727380  24.3775487
  15.6340277  72.4068642  21.3575792  14.8736262  71.9918394  21.7647362
  15.4492164  73.3448315  21.4054394  28.5646844   9.2243850  49.3108368
  29.2828798   8.5942990  49.2523670  28.8685107   9.8759019  49.9428558
  15.1437283  20.9846401  38.5788345  14.4442964  21.4842057  39.0000963
  15.8637655  21.6090035  38.4896851  25.4403830  21.4117360  18.0088246
  25.3384686  21.9433188  17.2193539  25.2972126  20.5128956  17.7124786
  21.0317016  35.0168920  33.7868571  21.4417052  34.1738367  33.9802122
  20.1782632  34.7891927  33.4180355   4.5420972  40.9707785  19.0067971
   5.4515564  41.2612629  19.0755963   4.2214748  41.3761711  18.2011378
  69.1325092  15.4159558  33.3831286  68.4132385  15.6713367  33.9607668
  69.6132851  16.2285340  33.2256436  27.1876216  11.7843544  37.1311665
  26.7274427  11.7634881  37.9702330  28.0079937  12.2402775  37.3191953
   2.9723310  37.2978163  33.1673002   2.6903263  38.1139851  32.7542949
   3.4787753  37.5777459  33.9297867  44.4681835  22.3315930  49.8715019
  45.1823282  22.8929019  50.1734400  44.8182964  21.8956280  49.0945911
  23.5191631  10.0404298  44.7411013  23.6886120  10.6425178  44.0165281
  24.3640542   9.6226215  44.9079180  37.4438000  19.6923125  12.5374007
  37.4570346  18.8510311  12.0809984  36.8822098  20.2487564  11.9977522
  40.7049465  54.9617243  19.8522627  41.5168190  55.4321432  19.6630335
  40.1833820  55.5802536  20.3637528  11.5978384  35.2322364  26.9546247
  12.4550056  34.9302101  27.2550845  11.5746546  35.0016189  26.0259104
   6.9000810  61.1772156  39.0201330   7.3946941  61.4051104  39.8073149
   7.2669750  61.7374182  38.3361793  15.6109488  23.2195306  19.5127332
  16.1171770  22.8800178  18.7746978  15.3676903  22.4414849  20.0144315
  75.3823137  74.7001839  31.0985899  75.1270962  74.2348814  31.8952012
  75.5402708  75.5992699  31.3865590  25.0601411  77.4580145  10.8492494
  24.6416759  78.3179283  10.8085036  25.8304381  77.5396156  10.2869177
  84.2023277   8.7506902  51.9137335  83.5132599   8.6634541  51.2550974
  84.2756081   9.6937686  52.0602417  32.1604919  20.0845838  53.4787083
  32.3231769  19.1609228  53.6700630  31.2090254  20.1758170  53.5299063
  70.8415699  31.1740613   6.1616850  70.4768419  32.0489907   6.2947458
  71.2229443  30.9422278   7.0084679  20.0171566  26.2791061  49.4929647
  19.3130815  26.6280317  50.0395536  19.5680010  25.8962321  48.7393713
  82.4528408  18.4643126  24.5209193  83.0477428  17.7155352  24.4802141
  82.5389862  18.8854277  23.6656570  56.4512825  26.8747497  55.3816891
  56.3225174  27.4714541  54.6444035  56.5311480  27.4489212  56.1433840
  21.3588357   6.4033902  40.5496740  21.0334897   6.7208618  41.3920450
  21.3192797   5.4497200  40.6216526  82.3084164  31.5496135  40.0209188
  81.4073467  31.4763093  40.3354454  82.3390675  32.3973012  39.5773911
  22.1219850  59.9163294  37.2856188  21.7149472  60.7814646  37.3313618
  21.7115784  59.4207668  37.9942918  20.4615116  24.1221452  62.6293421
  20.1432657  24.4919062  61.8057966  19.9709868  23.3065057  62.7310705
  60.1821518  65.9612751  37.6976728  60.2499533  65.0538540  37.9946971
  60.9265041  66.4032459  38.1061316  36.9995499  69.9149942   8.8365519
  36.7401552  70.1522732   7.9462457  37.1959209  68.9794397   8.7875110
   2.8435344  74.8315668  55.6210709   2.7557641  74.6883821  56.5634203
   1.9429162  74.9021578  55.3046274  10.4881823   7.4044859  47.9470110
   9.9957997   8.1368858  48.3176613  10.9401560   7.7781683  47.1904993
  15.0253022  74.5806742  44.9198294  15.1618981  74.5263147  43.9739895
  15.1114011  75.5125046  45.1211023  20.1870942   9.5224768  43.7268114
  20.3002620   9.6841824  44.6634388  20.6822824   8.7203383  43.5606956
  39.0042377  26.7281985  10.4907310  39.3970847  26.9988418   9.6608782
  38.6075592  27.5264478  10.8395505  32.5772762  12.2946250  39.3674755
  33.4906602  12.4965084  39.5704699  32.1409941  13.1465077  39.3539429
  20.1064420   1.4322397  50.0311232  19.5083690   0.7474680  49.7317410
  20.9785914   1.0941255  49.8279858   6.2662715   4.8390669  45.9852695
   7.0132869   4.2421603  46.0288858   5.7242525   4.5997539  46.7370510
  42.3929596  14.8776531  40.5788469  43.0312395  14.1964817  40.7905912
  42.1123219  14.6739221  39.6866751  83.6979234  59.9594831  -0.0470648
  83.5019386  60.8823203   0.1147928  84.5743787  59.8334240   0.3164807
  19.5231354  65.4607010  28.1719708  18.8835537  64.8464537  27.8116012
  19.1111588  66.3193369  28.0757904  26.2358785   0.1141076  24.1139340
  26.8963456   0.7569490  23.8555360  25.5054045   0.6393267  24.4407129
  56.1036253   6.0743576  48.2430840  56.9088030   6.4293754  47.8664064
  56.1711073   6.2676346  49.1781330  14.6191001  31.8945408  21.9764280
  13.6791956  31.7675781  22.1056271  14.9509382  32.1263433  22.8438282
  60.3887463  40.5312490  65.9230852  60.3205776  39.6725035  66.3403893
  59.5217609  40.9212685  66.0346699  12.3715580  39.6676183  14.6809554
  12.0643592  40.3299189  15.2999997  11.9405138  39.8922658  13.8563561
  21.4540648  18.7877619  21.4949679  21.6110659  19.5364869  22.0702863
  21.2585902  19.1773701  20.6427789  22.3613954  76.4161158  11.3391483
  22.1665835  77.1470976  11.9256175  23.3007288  76.4885855  11.1699307
  29.1375709  32.5017238  25.9677124  29.3818712  31.5777874  25.9139657
  29.3106222  32.7426744  26.8777823   3.7716925   9.1580820  26.3058567
   2.8173494   9.1543424  26.2320542   4.0788764   8.8422775  25.4560709
  56.1162233  76.2387896  35.8195567  56.8025875  76.0304022  36.4533639
  56.2760305  77.1530390  35.5853748   1.8035619  61.6381884  27.7318120
   1.4728329  62.3872566  28.2275462   2.3268074  61.1450005  28.3636451
  11.5405476  65.6006336  30.4763746  10.9104371  64.9651957  30.8160973
  11.5349650  65.4607201  29.5294714  33.7515163  16.0557675  27.2003746
  33.6247444  16.9955921  27.3303413  33.0655384  15.8048463  26.5817428
  67.0965481  35.8645797  32.7071476  67.6509142  35.1138473  32.4942827
  66.3319397  35.7662272  32.1397567  16.7207348  38.4835505  31.8969107
  17.0133471  39.0960884  31.2220716  17.4542403  37.8781796  32.0052028
  36.2269187  58.3052349  23.9784479  35.7805920  57.8905296  23.2401752
  35.7822442  57.9591465  24.7522187  13.5922897  67.5998783  30.1527476
  14.5472741  67.6612329  30.1310349  13.4131026  66.6598463  30.1742935
  24.8817992  15.1833725  19.8198378  25.1389265  15.3218102  20.7314038
  25.4901266  14.5182145  19.4977593  19.6512818  10.5914104  33.7511635
  20.3744864  10.2004957  34.2414618  19.0102470  10.8312416  34.4203329
  68.3257294  74.6299553  66.4400768  67.4244452  74.7992277  66.7144346
  68.7720537  74.3543100  67.2407293  12.1064663  31.9306779  61.4818335
  12.2194004  31.2774014  60.7913923  12.9975390  32.1997356  61.7050600
  55.4882050  14.6117294  21.9396496  56.2903309  14.6697891  22.4587417
  55.7400608  14.9309564  21.0731077  36.0142374   4.0342742  68.4854746
  35.7425499   4.0629125  67.5680876  35.2073455   4.1814083  68.9789391
  12.9227781  12.9032922  10.4345047  13.7832904  13.1608343  10.7652950
  13.0822790  12.6468050   9.5262063  82.6924706   0.0119129  13.3265650
  81.7874146  -0.2841977  13.2295346  82.6591778   0.6562155  14.0336704
  35.0925446  12.9988587  38.9685464  35.3544092  13.8101733  38.5333157
  35.6463146  12.3255277  38.5733318  36.6836333  24.0172100  39.1564202
  35.9298730  24.4403839  38.7453246  36.8203068  23.2206511  38.6435366
  10.0261462  70.8644724  31.4706850  10.0440633  69.9076223  31.4892936
   9.1347992  71.0820770  31.1979580  79.3513107   0.4275567  23.3898449
  79.3253279   0.1743653  24.3125844  78.4377909   0.6022959  23.1636119
  38.1856155  74.7776365  54.2670250  37.6011014  75.5344439  54.2244101
  37.9744768  74.2676020  53.4850311  66.3221645  59.5335531  38.6012053
  66.7822981  60.2963400  38.2509732  66.9823456  58.8405657  38.6138487
  42.7011156  53.9272356  24.3040848  42.6276541  54.7526932  24.7830987
  43.4116173  54.0749407  23.6799026   4.1973811  14.1250920  18.7497449
   4.0174124  14.9198163  18.2474923   4.7234645  14.4243932  19.4912887
  33.8331079  35.7974005  20.6516981  34.3509817  34.9932575  20.6890106
  34.4609690  36.4954901  20.8379650  22.1404815  13.9462936   9.8265803
  21.4976430  14.5314956  10.2272379  21.6223359  13.2140672   9.4925141
  18.8427198  70.2748823  29.6920824  18.9945400  71.0418606  29.1398811
  19.5739496  70.2759361  30.3097653   4.1925773  13.3688319  46.5049839
   4.1538396  14.2215335  46.0718203   4.3454316  12.7459562  45.7944250
  35.5773163  32.8351760  42.2996187  36.2759757  32.4623895  42.8373337
  35.3529119  32.1390057  41.6821909  15.8292711  75.3683615  62.7248955
  15.9119534  75.5373573  61.7863655  15.0127161  74.8759508  62.8085661
  10.1818144  36.7125416  28.8355541  10.6192780  36.1141491  28.2299280
  10.7217467  36.6907597  29.6256375  15.8000720  79.0373325  61.9661617
  16.7489564  79.0642357  62.0891523  15.5260396  78.2259846  62.3937702
  46.9247675  15.9503639   9.6094388  47.0559120  16.8872380   9.7553831
  46.6850281  15.8831918   8.6851853   7.5817740  21.3325262   7.4331588
   7.6435924  21.2279224   6.4837021   8.4429526  21.0714984   7.7594531
  19.8344541  35.2862358   5.4398239  20.3867483  34.7338581   4.8865771
  20.3039050  35.3367019   6.2724715  40.4138517  39.6588063  25.6089091
  39.6357536  39.7486329  25.0587010  40.9747219  39.0467048  25.1324797
  31.1350846   4.7793001   6.9805664  30.3946567   4.4212061   7.4702287
  31.4943123   4.0290734   6.5069151  13.5267842  28.9083147  23.0824995
  13.0120456  29.7081041  22.9747367  14.3137050  29.0574956  22.5583506
  79.5224476  21.5292859  48.3627272  79.8109818  22.2943497  47.8650761
  78.9564037  21.0496807  47.7579117  76.3092709  73.3311749  28.9543653
  76.1762524  73.8990450  29.7133541  75.5220079  72.7877331  28.9209342
  21.8605113  65.4907513  32.9471779  22.6471257  64.9466753  32.9852962
  22.0938039  66.2832880  33.4305930  68.2654190  21.1999822  30.4820180
  68.1790257  20.7461190  31.3203359  68.4660482  20.5063248  29.8536706
  76.6502333  23.1432176  41.4355516  77.4958467  23.5696793  41.5744877
  76.2736750  23.0666709  42.3122358  40.1563168  16.7945266  59.5171690
  40.7319546  17.4301410  59.0918875  40.5345345  16.6740966  60.3881931
  11.6628480  75.8395767  43.9895582  11.1814225  75.4863596  43.2414246
  11.7658043  75.0944662  44.5815372  71.1823511  63.5622168  36.8823671
  70.3595257  63.0933666  37.0215511  71.4567804  63.3080244  36.0012841
  11.6169846  43.0945539  18.2863879  12.0404148  43.6899948  18.9047658
  12.1677577  42.3117065  18.2923102  40.3455591   7.4478751  54.8658323
  41.1749554   7.6893842  55.2781534  40.4977369   6.5689957  54.5184946
  29.2041230  73.0726337   6.0949564  28.4369063  73.2956123   5.5678004
  29.7835755  72.6089668   5.4904062  47.0305443   7.2557360  56.6774893
  47.4657059   8.0015618  56.2644386  46.4459562   7.6484543  57.3257637
  21.3896656  51.0028839   2.6189801  21.9500875  50.2323294   2.7106622
  20.6571388  50.8382940   3.2127360  53.2584715  72.3875761  34.7668600
  53.2201338  73.2521486  35.1758504  52.9580164  72.5334311  33.8698196
  78.1454945  75.5429935  32.5555277  78.7146664  75.8051348  31.8319535
  78.0632401  74.5937586  32.4637699  76.0107422  64.2396164  11.3995838
  75.4541969  63.5339069  11.0702503  76.7712641  64.2359495  10.8183563
  13.4324324  16.4536846  42.0040512  13.1359076  16.8554842  41.1874342
  13.1728566  17.0747173  42.6846170  44.0982819  41.2567186  18.2355869
  43.5705328  40.9228420  18.9610076  43.7064981  42.1041965  18.0245793
  20.8112454  19.6579111  12.2709656  20.1383305  19.6717274  11.5903556
  20.3710794  19.2863798  13.0354583  16.1221457  31.1075664  36.8769193
  15.2722526  30.7556295  37.1415973  16.7381096  30.3928852  37.0383239
   0.8473216  24.0931964  11.3694084   1.7686158  24.0064788  11.1246037
   0.8221036  23.8537502  12.2958314  11.1374938  24.3916559  34.7400761
  10.9392905  23.9352727  33.9223599  10.5123615  25.1160026  34.7676945
  83.0884075  29.2642069  14.6403086  82.4403000  28.6514521  14.9877656
  83.1337929  29.0606213  13.7061107   3.0615243  40.0347662  20.9571409
   3.2766214  39.1047096  20.8867073   3.8007036  40.4833221  20.5464792
  37.2682214  35.9759545  29.4419932  36.8527198  36.6387200  29.9936533
  38.0723858  35.7465243  29.9077344  73.6585283  40.1513910  20.0208974
  74.1871786  40.9387541  19.8912072  73.4610653  40.1470709  20.9574986
  13.9344406  39.6090484  30.1180148  14.8356307  39.9125862  30.2273440
  13.5985470  40.1170015  29.3795085  38.9797306  16.6239512  46.1063528
  39.2898798  17.5198615  46.2382030  38.6878157  16.3415527  46.9731140
  34.7582793  29.0439963  25.4004025  33.8584042  29.3684816  25.4344988
  34.7129583  28.1708336  25.7899666  28.6643362  11.2540197  40.1547527
  29.3506289  11.3257098  39.4913554  28.3661175  12.1536100  40.2890444
  17.3166871  31.0933137  20.4999352  18.1379974  30.6332731  20.3266001
  17.2572815  31.7478204  19.8040009  31.7596102  34.8120880  30.7214785
  31.1877060  34.5853329  31.4547849  32.5806189  35.0823760  31.1327195
   8.1028020   4.1534078  11.6177702   8.7737173   3.8622868  12.2353077
   7.3014832   3.7212852  11.9133890  76.3899517   6.4990884  64.9132681
  76.0933447   7.3872012  64.7144938  77.0115423   6.6095722  65.6327486
  81.0772610  28.2788324  24.5657396  81.4025211  27.7008343  23.8755560
  81.8478203  28.7711453  24.8487592  80.5024338  35.0084949  26.2510395
  80.4369831  34.1215277  25.8971524  80.7310009  35.5511928  25.4964089
  80.4900360  66.7293167   2.7440241  81.2309456  67.3072815   2.5616944
  79.7624493  67.3234320   2.9280725  30.3548002  49.0728807  67.1839380
  30.1658177  48.7914324  66.2887859  30.8510160  49.8847961  67.0800161
  20.4511833  24.4041705  53.6633539  19.5310795  24.4653606  53.9200592
  20.9261084  24.8460865  54.3671942  12.8771472  15.3195679  33.0768776
  13.3899653  15.8560181  33.6814189  12.0185864  15.2437353  33.4932351
  73.8114214  73.9694786  67.6597786  74.6096230  73.4893942  67.8803015
  74.0880728  74.6027756  66.9974899   4.3874332  70.5518389   4.3058494
   4.5201194  70.2172518   5.1927972   3.4763488  70.3392410   4.1034645
  -0.0873058  47.7194452  34.6494102  -0.3420045  46.8515682  34.9626946
   0.4742824  47.5460768  33.8939023  41.2903690   7.5839275  24.1628265
  40.7360697   7.7551126  24.9241924  40.8852530   8.0840629  23.4543204
  14.8681009  12.8240049  46.1743689  14.9011171  11.8986201  46.4168644
  15.6851149  12.9764688  45.6995249  36.2825489  33.3359051  45.6158876
  35.8595777  34.1908503  45.5359316  35.6157756  32.7749228  46.0120487
   0.9372453  11.8071878  31.7589736   1.2319297  11.4470911  32.5954700
   0.1558710  12.3145866  31.9785929  81.6613770  27.9320765   7.9064941
  80.8205700  28.3749962   8.0209184  82.3128319  28.5850143   8.1624568
  80.3815365  42.4863482  16.9338381  80.8634663  43.3052063  17.0497978
  80.3719330  42.3461056  15.9870172  65.3502560  40.1851320  56.1180496
  66.0538864  40.2600288  55.4734373  65.3656101  39.2656398  56.3836288
  31.8729758  44.2553377  24.4376874  31.1160994  43.6724758  24.4980454
  32.5905037  43.7574959  24.8295331   4.7198948  43.0168676  22.3486495
   4.2467687  42.6507425  23.0958700   5.6404895  42.9843521  22.6088047
  30.4715824  32.8859854  46.2909031  30.1389575  32.8176689  47.1858501
  30.0977349  33.7018800  45.9580612  81.2101173  26.1084414  30.2449584
  80.3672695  26.5381527  30.3905177  81.7811394  26.8048167  29.9205685
  21.7056465  29.3759441  46.2069130  21.8363237  28.8693786  47.0085049
  22.5909662  29.5615101  45.8938456  20.9471297  22.6267076  28.2021260
  21.6620660  22.2234082  28.6945152  20.1527786  22.3253083  28.6430287
  31.7656541  17.7757192  23.0190682  31.8856978  18.6778760  22.7225304
  30.9790349  17.8052723  23.5636687  79.2316341  19.1511226  22.1181870
  79.1936636  18.1986547  22.2053361  78.3751106  19.3937838  21.7664528
  23.7852621  39.7888899  11.9871879  23.9802098  39.4416070  12.8576040
  22.9882741  39.3311954  11.7196846  39.2428470  19.5268917  36.1515808
  39.6269703  19.1410184  36.9388437  39.3150544  18.8402629  35.4885888
  50.7603931  16.5207565  31.5935946  50.4891300  15.6028092  31.5889549
  51.7134380  16.4884543  31.6765785  57.7643156  78.7519646   6.4679444
  57.7948618  78.6622334   7.4204391  57.3355627  77.9513597   6.1655730
  48.4436560  23.1067276  49.6643257  48.3471775  23.4915233  48.7932014
  48.3414173  22.1655416  49.5230818  28.2122016  35.0993705  31.5947843
  28.2472754  35.0999761  30.6382275  28.5313582  34.2325044  31.8456101
  37.9385829  28.8486242  15.2478468  38.0895972  29.6084595  15.8100522
  38.5753798  28.1993699  15.5464947  20.6038308  42.9687548  25.3614306
  20.1681232  42.5761318  26.1178946  20.3198862  42.4362516  24.6184325
  79.2756081  76.8951559  16.2708056  79.5323181  77.7096224  16.7032123
  78.3192968  76.8932343  16.3119709  20.9683347  18.0849171  51.5500832
  21.7768788  18.5319185  51.2997246  20.8727765  17.3838234  50.9054375
  15.4932714  22.8530693  12.9723620  14.8769844  23.4278631  12.5184524
  16.3300776  23.0044341  12.5329578  79.1991234   3.1813085  17.3839366
  80.0866699   2.8248540  17.4218297  78.6709833   2.5631511  17.8890920
  83.9210987   3.9784327  59.7896242  82.9863548   4.0339154  59.9881315
  84.1208267   3.0434746  59.8364830  22.1369576  31.8247819   8.8591570
  21.5095401  32.5218582   8.6676824  22.4129534  31.5080571   7.9990727
  10.6101429  65.3891182  18.9885652  11.1861384  65.0533199  19.6753705
  11.1310792  66.0586786  18.5452342  35.9410620  17.2072816  34.7711444
  35.7383871  16.5073836  34.1504240  36.2134433  17.9427004  34.2223287
  35.8613086  36.8859220  36.1264229  36.2950683  36.1547685  36.5663123
  35.0617003  37.0296383  36.6325903  23.2174683  47.3149586  13.1018841
  23.3163404  46.6845274  12.3884332  24.0188146  47.8376532  13.0724025
  59.8141003  71.7103148  30.0438833  59.7452450  72.1033001  30.9139729
  59.4004059  72.3463917  29.4603658  39.5311689   0.9581178  43.8820171
  39.4054198   1.5676580  43.1547737  40.2297449   0.3740415  43.5869217
  15.8931065  35.0050569  30.7373667  15.2435291  35.5711031  30.3203869
  15.3907204  34.2511845  31.0464263  23.2150245   3.0385822  19.6399152
  22.6407576   2.3104063  19.4028306  23.0851340   3.6825341  18.9437222
  27.5801063  20.0367880  34.2595935  28.0359292  20.2927566  35.0614262
  26.7455411  19.6789157  34.5623469  31.1022520  24.2597675  26.0673642
  31.5269709  23.6412501  26.6617370  30.1703811  24.1896534  26.2745667
  11.3972759  58.5669899  51.7172909  12.1664453  58.0280972  51.9022369
  11.4866197  59.3202877  52.3010683  36.2685418  25.8963966  56.8411970
  36.9589543  26.2156630  56.2601376  35.4695749  25.9520316  56.3169956
  69.3208647  41.5251637  14.7997534  69.8922443  41.9794559  14.1805792
  68.8064623  40.9276772  14.2569506  23.2945895  70.7984209  19.8986137
  23.2407951  70.4498386  19.0087652  23.3094573  70.0227070  20.4592228
  39.3801713  74.9088573  12.8545833  40.1906729  74.9751949  12.3496842
  39.3954873  74.0229940  13.2168591  73.9479876  26.8005872  32.3654032
  74.6258783  26.1260867  32.3235321  73.8143730  26.9480705  33.3016872
  34.0311432  28.1466246  47.0794821  34.7760820  28.4929276  47.5707769
  33.9850450  28.6949348  46.2962437  28.1549287  14.0955639  40.3375244
  28.4170914  14.6277332  39.5863271  28.8618588  14.2124152  40.9722137
   4.8284841  66.2161589  42.9875469   4.1491622  66.5145445  43.5922956
   5.6509715  66.4612675  43.4114218  15.6562567  17.7442944   9.3835849
  15.9159577  18.2877374  10.1275313  15.1913118  18.3437204   8.7998497
  31.0477161   7.2344041  13.8102090  30.8651638   6.3670295  14.1715515
  31.9873309   7.3572618  13.9453495  30.1134777  12.9830647  26.1963367
  30.3863668  12.7542782  25.3078437  30.6701398  12.4488676  26.7628980
  21.0160398  44.1058493  40.1269388  21.7657971  44.6904993  40.0161028
  20.3625751  44.4347000  39.5096302  23.6808658  15.8039856   6.6979629
  22.9293799  15.2645826   6.4519060  24.2197490  15.8387744   5.9076285
   9.6079838  49.8646116  64.8097658   9.0768415  50.1550055  64.0682840
  10.3414369  50.4791689  64.8342514  56.8194103  43.1885862  51.2009573
  55.9539270  42.7832794  51.2547493  57.2068310  43.0414629  52.0637941
  65.8830690  47.9558277   2.0119683  66.0940981  48.7934589   2.4243665
  65.1410675  48.1508684   1.4395839   2.1464717  29.2216539  43.4288597
   2.3642221  29.2044091  42.4969149   2.4738275  30.0671816  43.7356997
  24.6558785  30.2880454  42.5734138  25.2496767  30.3642726  41.8265390
  24.6360946  31.1659980  42.9542542  36.2520432  45.4482365  27.1420407
  36.2720156  46.1315584  27.8120422  37.0418859  44.9319744  27.3028445
  42.3487568  10.0190055  36.1029434  42.9325485  10.7327092  36.3599396
  41.9362593  10.3259218  35.2955508  76.0759592  35.3743553  47.7426243
  75.9567595  36.3174796  47.6306534  76.9833422  35.2803731  48.0325460
   3.0372477  26.7679977  48.0467606   2.3069841  26.2062955  48.3064508
   2.9222912  26.8898964  47.1043396  43.3732700  13.0717516  56.1738253
  44.2294884  12.7981555  56.5028620  43.0490017  13.6864626  56.8320131
  27.2378612   4.5642689  25.5100989  27.3581266   3.7449455  25.0300169
  27.7075195   5.2171528  24.9910617  11.3284957   1.1010496  44.4108200
  12.0228326   1.7595491  44.4333267  10.9755254   1.1554283  43.5227394
  10.4921198  10.1768982  33.6877632  11.1333990  10.7114458  34.1560078
  11.0175252   9.5292628  33.2179236  22.3791814   6.2096953  51.4858103
  22.1884871   6.0545927  52.4109125  23.0241299   5.5398726  51.2586308
  54.5091772  79.1228771  32.2788620  53.6204052  79.2430544  31.9443822
  54.4141197  78.4877777  32.9886818  55.5374479  46.0363150  60.3629923
  55.6598043  46.9610119  60.1480484  54.9495173  46.0417509  61.1183310
  39.1245937  51.7230463  20.9787440  40.0324202  51.5895605  20.7062316
  39.1426110  52.5376844  21.4810133  28.0573678  14.2863190  16.0174310
  27.9499841  13.7848389  15.2092123  28.3586192  13.6437547  16.6597629
  38.0305290  47.2083092  31.7299104  38.5731387  46.7235327  32.3518395
  38.2350731  46.8192816  30.8795857  36.4314055  17.3377144  16.6455805
  35.8432531  18.0860090  16.7473865  36.1226964  16.7009962  17.2901905
  30.8821630  10.6609571   6.4772993  30.4814053  10.3268468   5.6748050
  30.3080511  11.3759065   6.7520273   0.9086800   8.9275718   9.6217185
   1.6395488   8.8759434  10.2376699   0.6239279   8.0203962   9.5113522
  18.1364715  38.7467051  40.1687956  17.4761558  38.1838417  40.5730247
  17.6447332  39.5057392  39.8552799  16.5154445  12.8591299  27.7180123
  17.4018848  13.1959844  27.5876832  16.0087490  13.2329941  26.9970989
  37.1331573   9.1289836  39.2818809  37.3902822   8.4734529  38.6334991
  36.4518476   8.6996818  39.7993231   5.8429205  19.1625595  21.8904448
   5.5378348  19.3133783  22.7851009   5.3198987  19.7593975  21.3552213
  18.8239157  20.1727343  32.4959922  19.6945763  19.7774005  32.5395250
  18.2228327  19.4476867  32.6669788   9.6127599  30.2766442  37.5540018
   8.6621022  30.3761125  37.5031233   9.9575442  31.1258912  37.2780752
  71.6146135   9.1271293  18.2351673  70.7634926   9.5051032  18.0139041
  71.6469193   9.1531342  19.1914690  22.0943427  41.8002605  63.3675337
  21.7634344  41.2136650  62.6873636  21.5481663  42.5830126  63.2952547
   5.8428198  20.1898336  46.7520618   5.7468176  19.9310255  45.8355284
   5.0338829  20.6599402  46.9541836  34.7814488  21.5261483  40.8594513
  34.9784946  22.3838186  41.2360191  35.5154228  20.9728837  41.1266756
   8.9862365  50.2030182   7.4793327   8.7695128  50.1566124   8.4105194
   8.4612560  50.9312677   7.1472406  29.1095567  49.8713350  40.4319620
  29.4885635  49.8990965  39.5534348  29.0974522  48.9413595  40.6583166
  75.7485962  20.9649825  15.4192984  75.2304983  21.2838817  16.1582911
  75.1203585  20.4939198  14.8718953  40.3286695  39.5725012  22.0768738
  39.6084452  39.7504282  22.6817322  40.9142542  38.9939284  22.5653124
  49.8811150  12.4663305  38.2712221  49.7866631  12.7462065  37.3607397
  50.0169516  13.2788312  38.7586880  51.6637611  44.5269918  67.0761013
  52.4076319  44.1095209  66.6418123  51.9120121  44.5573282  68.0000496
  22.9522943  42.4370956  11.5826035  23.0537915  41.4980316  11.4274156
  22.8666639  42.5149536  12.5327802  32.6051712  49.0969276   0.2739538
  33.5078406  49.0121365   0.5809211  32.0754576  49.0406466   1.0692319
  75.2669764  33.3417225  60.8105659  75.9528446  33.9810348  60.6179523
  75.0994968  32.9103470  59.9726534  65.5049229  73.0748177  64.5331049
  64.7390509  72.5787497  64.8222208  65.9322739  73.3499289  65.3442240
  59.8479176  68.2031918  49.6873569  59.0547848  68.7019730  49.4914293
  60.0429344  68.4124756  50.6008148  36.9252086  21.6911578  37.8127551
  36.3062620  20.9654427  37.7322936  37.3613071  21.7295027  36.9615316
  34.5353031  33.7329388  25.3776240  34.1234827  34.5217586  25.0249219
  34.6145082  33.9033151  26.3162041   9.9318784   8.3303982  63.7474632
   9.5279628   8.0899286  64.5812845  10.2676630   7.5052887  63.3972168
  19.3172979   2.1192202  33.4714246  19.7530067   2.9605255  33.3350611
  19.1377199   1.7965771  32.5883150  38.2845283  54.8306084  25.0229836
  37.6403356  54.1229916  25.0000811  38.1325555  55.2657986  25.8618784
  60.1480675  70.6702757  66.2485504  60.1839256  71.5888691  66.5152645
  61.0651922  70.4061699  66.1752892  19.9299288  30.7905889  22.0939326
  20.2876806  30.3489161  22.8641081  19.3040061  31.4217782  22.4489737
  25.0108624  39.3346858  40.3108549  25.6030393  38.7337494  39.8587132
  24.3148232  39.5073175  39.6768522  37.0630884  16.7165565  31.9708204
  37.1120334  17.6049662  32.3237562  37.9697061  16.4915502  31.7618990
  17.9891562  41.1013603  42.6659966  18.8456893  41.1116934  42.2388220
  17.3836386  41.4191866  41.9962454  34.2313790  69.3047762  61.8467379
  33.4255934  69.0869093  61.3782597  33.9709377  69.9850988  62.4676800
   4.6636736   7.8654838  34.7693920   4.8497623   8.8025540  34.7102165
   4.0308344   7.7916086  35.4837370  14.0789664   2.4624667  57.1223974
  14.9443781   2.3709983  56.7237377  13.5014427   1.9431356  56.5629387
  29.8855519   2.6386532  39.3813562  29.5489049   2.6544833  38.4854484
  30.8199215   2.8250355  39.2894483   2.4349897  23.5613060  33.6173224
   1.8744519  24.3116856  33.8146973   2.4887452  23.5472870  32.6617360
  35.3792262  15.4005945  18.4975231  35.9197903  15.0891471  19.2234850
  34.8050714  16.0576081  18.8911140  22.0909429  15.9600520  19.5905638
  21.9792342  16.6224623  20.2724481  23.0340600  15.7983196  19.5659661
   4.3867958  42.9556561  36.9796395   5.0169688  43.1532240  37.6725173
   4.4776207  42.0138597  36.8346977  18.5590005  41.2433243  26.7398739
  18.0712330  40.6954908  26.1248970  18.8709116  40.6335115  27.4085093
  22.4783540  39.9727726  25.7356739  21.7645693  39.8672843  25.1066947
  22.1001792  40.4974127  26.4413428  22.6763749  76.5879440  19.1108370
  22.7737761  76.9562769  18.2327271  23.5736895  76.4793539  19.4259024
  18.0984056  33.2867074  38.2577491  18.3351052  34.0942526  38.7139010
  17.6948237  33.5821104  37.4416065  50.9523630  36.6961956   6.0176831
  51.0350704  37.3928022   5.3664297  51.3946867  35.9449911   5.6223691
   5.7751232  56.6076088   6.9971728   5.6739700  56.0376692   7.7595168
   6.4486241  57.2365904   7.2560406  49.4248533  43.9149141   8.2256287
  49.6215963  42.9883766   8.3636421  49.6671581  44.0780258   7.3140824
  14.8148036  25.4016495  30.8946896  14.6351230  25.8177352  30.0515890
  14.2568064  24.6239471  30.9017253  17.8359354   4.4330496  26.5983295
  16.9344401   4.7249803  26.7336583  18.2336879   5.1224804  26.0666251
  12.7658093  27.7357793  57.5775480  12.2465467  27.1926880  58.1705523
  12.8094971  27.2300506  56.7660332  15.4982209  51.8368292  41.7491817
  15.1914775  51.0750818  41.2573624  16.0813642  52.2941351  41.1433411
  20.0700808  16.5419137  66.1491299  19.7741127  16.0820079  66.9347000
  20.6212902  15.9061885  65.6927824  18.0529475  75.4862213  27.4467254
  17.5022483  76.2022495  27.7633786  17.4327338  74.8185587  27.1538210
  27.5978494  31.8619704  43.3377266  27.1137190  32.6426363  43.0686283
  27.4235511  31.7835093  44.2756462  24.7247648  18.9980364  48.1950426
  24.9239254  19.2861056  47.3042107  25.5685091  19.0156424  48.6467266
  38.1522107  55.2409983  32.7913666  38.7463331  55.9896374  32.7386069
  38.5857677  54.6328831  33.3900833  12.4114048  38.9182067   2.3435993
  12.8126800  39.5099401   1.7071542  12.5820959  38.0423832   1.9971463
  31.8473244  54.8061466  28.1223774  32.1899748  53.9447021  27.8841853
  31.3553834  54.6535254  28.9291811  27.5292206  72.6966810  17.9867578
  27.4791694  72.6350451  17.0328569  27.6541948  73.6296940  18.1602514
  21.3255811  17.8217220  57.1608305  21.3579822  17.8086114  56.2042713
  21.2404633  18.7484217  57.3849201  18.7455475  72.9680109  30.9061337
  18.8654816  72.4033308  31.6696644  17.8539944  73.3048534  30.9950304
  26.5147185  54.8908758  32.9822564  25.6470251  54.6364355  33.2962656
  26.3406038  55.4965734  32.2618103  16.1858237  44.2566013  31.2430835
  16.5402055  43.6094952  31.8529153  16.7851472  44.2360067  30.4970145
  52.6348162  58.9538574   6.6015244  53.0149794  58.0802584   6.6938621
  52.9641342  59.2707014   5.7604575  27.3476529  13.4213758  44.0067196
  27.2569132  12.4849439  43.8303852  26.6884160  13.8350141  43.4494591
   4.4556043  38.3896780  23.5831380   3.6449605  37.9736471  23.2898688
   5.1501811  37.8890014  23.1552172  14.2303777  51.5618134   0.3048920
  13.7936759  51.1079121   1.0256525  13.5156488  51.9323111  -0.2129141
  28.5191727   1.8114173  24.4639492  29.1480279   1.0897734  24.4629550
  29.0575719   2.5983989  24.3801808   8.6830896  14.9170983  40.4242229
   8.5074431  14.9703062  41.3636637   9.6173245  14.7169244  40.3661919
  81.6356277   4.1326344  46.9043350  81.4605808   4.3564442  47.8183937
  81.8244648   3.1943679  46.9194221   5.2315867  28.3055115  48.6066246
   4.4645387  27.7708340  48.4017086   5.2128035  29.0096402  47.9584885
  49.1368675  26.2186146  10.9385335  49.6634007  27.0091248  10.8198547
  48.2662201  26.4611864  10.6233108  35.5565333  61.5244102  37.9238844
  35.3537726  61.3956738  36.9973063  34.7250319  61.3752747  38.3739877
  40.2041006   2.9449522   2.5549203  41.0610771   2.9119006   2.1298042
  39.8289967   2.0770738   2.4055287  25.1082349  25.5944538   5.9998608
  25.4620886  24.9298096   6.5908486  24.1800976  25.6478953   6.2277567
  22.2226644  33.5651398  19.3742156  22.4341464  34.4780874  19.5692313
  21.7915511  33.2446504  20.1664662  11.0415065  75.9697723  27.8055215
  10.1067185  75.7683420  27.8482676  11.4273131  75.2210283  27.3508072
  21.9840384  39.7187567  32.6975799  22.0061827  39.3092084  33.5624552
  21.5606213  40.5646515  32.8439021  50.0606728  42.9743195  55.2428293
  50.8158398  42.4583817  54.9604034  49.4202566  42.3237467  55.5306721
  17.7714479   1.0097081  57.6912260  18.6569238   0.8648378  57.3577929
  17.3625827   1.5838173  57.0435667  33.4954405  34.5105624  42.8024292
  34.0618753  33.7747526  42.5701237  32.6102471  34.2016125  42.6095104
  63.5584021  23.5470605  19.1539168  63.2673216  24.1065836  18.4338892
  63.6675882  22.6830173  18.7567484  77.5427151  47.9602957  38.3334541
  76.8199682  47.7760267  38.9333844  78.2827187  47.4706221  38.6924052
  33.3776999  77.5717306  65.5946350  33.0533838  77.7948856  66.4671326
  34.3122339  77.7762651  65.6269360  29.9614072  47.6118088  27.8113556
  30.5968618  47.0055532  28.1919980  29.7694254  47.2464752  26.9476962
  21.3030386   6.6348201   2.6867190  20.3521562   6.7440379   2.6756096
  21.4361525   5.6887132   2.6284567  29.9855590  49.9609995  34.5701718
  29.3395114  50.6657696  34.6165252  30.7432318  50.2988338  35.0476980
  37.5529599  19.8234236  22.3158073  36.6156054  19.6295547  22.3191404
  37.9683542  19.0020704  22.5785995  43.0854368  31.1633325  11.8888175
  43.4932709  30.5735731  12.5229180  42.2573757  30.7386184  11.6648316
  31.3060617  41.5194941  63.6306953  32.0397687  41.8769407  64.1308308
  30.6868625  42.2461414  63.5613346   2.4780490  39.2126036  31.3747048
   3.2203501  39.3625546  30.7892680   1.8233836  39.8549414  31.1007571
  14.3315470  29.8683810  68.2944918  15.0170410  30.1425409  67.6852560
  13.5348809  29.8460078  67.7643490  50.6915474  57.0246363  65.9231758
  50.8694553  57.6704741  65.2394533  51.4994240  56.5153027  65.9875917
  66.9902658  61.6249704   3.2880431  67.9455757  61.5703630   3.3131194
  66.8045855  62.2554874   2.5921947  63.3381367  63.0359602  53.4399366
  63.2201862  63.5899305  54.2115831  63.3912086  63.6516428  52.7089405
  30.7621765  51.3811636  30.8515334  31.2391162  51.4689589  31.6767931
  29.9899101  51.9360065  30.9610152   9.1926849  45.3368998  46.5505457
   8.4975624  45.9942532  46.5201569   9.7616607  45.6228399  47.2652006
  37.6099181  39.9430871   2.0601815  38.5117865  39.7110581   2.2816044
  37.2184730  39.1229010   1.7596860   9.7342104  42.1768856  20.3920221
  10.1133621  42.6179314  19.6317887   9.4420356  42.8890133  20.9610081
  51.8453217  61.8046808  37.1995330  52.5430536  62.4581194  37.2487545
  51.2180996  62.1705484  36.5758610  11.7907965  58.9701080  42.7916241
  11.4988434  58.1745672  42.3465300  11.5948772  59.6753168  42.1747589
  41.2551451  59.0112638  20.9544754  40.5132771  58.4756756  20.6734014
  41.3055182  59.7111893  20.3034759  25.6324506  22.0971179  21.1331439
  25.1609731  21.2877560  20.9359789  26.2603617  21.8492866  21.8117714
  19.2169309  26.5149903  13.4860826  18.3448637  26.9094896  13.4960651
  19.4471765  26.4662957  12.5582635  40.5361462  58.0644417  42.0568991
  40.8102465  57.2927380  42.5524521  40.5312920  58.7730360  42.7004099
  42.0401192   4.3497688   4.3946221  41.5578318   4.3178365   3.5684198
  42.9360819   4.5709828   4.1405511  20.2939391  41.8900537  41.6214752
  20.3717780  42.7712011  41.2557602  20.7690024  41.3322544  41.0055161
  22.7804470  49.2540550  40.4860401  22.7651596  48.3158350  40.2969790
  22.0820737  49.6192646  39.9427843  50.7308865  60.2278233  44.6912146
  50.6338787  59.5958328  43.9788866  51.1260319  60.9955645  44.2780972
  36.5460086  58.5490656  38.9390182  36.5553880  59.4982481  39.0622544
  37.0856643  58.4030771  38.1620431  26.5277314   8.9776957  10.4045928
  26.0869789   9.8261154  10.3581834  26.4534831   8.7191516  11.3232183
  47.0787001   5.9671980  39.1389775  47.0535946   5.2212203  39.7382450
  46.2080240   6.3589269  39.2075706  40.7394457  23.3866858  22.5953889
  40.7608128  22.6666570  23.2257342  41.6292715  23.4244442  22.2446537
  40.4428864  46.5652180  21.5574718  39.8494983  46.8388224  22.2569442
  41.2771130  46.4069128  21.9993353  29.2141891  59.9438906  38.5239840
  29.4974065  59.4380569  37.7623057  28.8743162  59.2888546  39.1336131
   3.7404758  13.4369075  11.9213831   3.9834839  14.1667330  11.3517046
   3.3533445  13.8529170  12.6916409  27.7481174  76.6406918   4.7793898
  28.6476779  76.8911743   4.5689663  27.3968291  77.3904610   5.2596736
  37.9558754  42.9086018  42.1436787  38.4723949  43.0878830  41.3579941
  37.5362182  43.7437630  42.3501539  36.3077617  38.5849237  26.2599087
  36.6864753  38.8284779  27.1045899  36.7143679  37.7445626  26.0484982
  21.1942005  28.2786322  23.1267500  21.7987442  27.6762605  23.5602331
  20.3876662  27.7740073  23.0214477   7.0881051  42.5941658  12.8863645
   7.6301849  41.9676733  12.4068999   7.6695299  43.3362246  13.0522633
  41.5533972  66.7087746  40.6978655  40.9292221  66.2081623  41.2232447
  41.1399412  67.5647879  40.5859518   0.5293134  41.2545252  43.5000467
  -0.2056606  40.6557417  43.3677340   0.8511400  41.4374304  42.6173210
  48.0040407  70.5382872  26.2174129  48.0219078  69.6056652  26.4321876
  48.4152603  70.5933380  25.3547978  51.0229254  61.7337084   3.7433565
  51.8669891  61.5287113   4.1455555  51.2478352  62.2098827   2.9440427
  72.4765015  65.1822996  59.5663738  72.6607180  66.0799551  59.8429775
  71.7468357  64.9058056  60.1207829  33.7065983  28.1455708  66.2088108
  33.4854937  28.9279270  65.7035780  34.6595693  28.1763721  66.2932348
  47.9843950  63.1436729  46.2244368  48.5784388  63.2412815  45.4802465
  47.3971128  63.8969946  46.1625195  54.2726326  63.9091778  37.5872755
  54.8728132  64.6452618  37.7064323  54.4536018  63.3302879  38.3277965
  29.2254949  65.8869648  16.9513226  29.4408560  65.9984207  17.8772974
  29.1123652  64.9425840  16.8437147  39.8272276  43.4691858   5.1587439
  40.2018881  44.1042900   5.7690716  40.5793810  42.9692698   4.8415989
  35.7994032  51.7019081  38.4967875  35.0721025  51.0797834  38.4817958
  35.5313015  52.3686028  39.1291404  48.9722729  72.1793318   2.3643200
  49.1320753  71.3185740   1.9772856  48.0753231  72.1304846   2.6949614
  33.5865450  57.3959446  33.4501553  33.1020713  57.4846935  32.6293969
  34.1487479  56.6331005  33.3151436  30.4880929  26.0275030  58.7438965
  31.2439537  26.3662601  59.2236328  30.7481456  25.1451015  58.4793663
  31.3440728  48.4615326  22.4799585  31.9082785  49.2143679  22.6564384
  30.4659510  48.7594414  22.7174067  28.8743138  58.3661127  25.9199858
  28.0406713  58.7538958  25.6537223  29.5145011  58.7321234  25.3097177
  39.7483516  65.6349707  34.8049402  40.1663017  65.5399752  35.6608176
  40.4672050  65.5584383  34.1775441  16.0355628  39.6631169  46.6832829
  16.9433594  39.8415112  46.9288683  15.5782437  40.4892492  46.8401098
  21.2907338  51.6483593  46.5925169  21.7451954  52.4902010  46.5608788
  21.5972209  51.2410212  47.4026871  60.4816675  62.4181414  67.4477959
  59.6884680  62.3298597  66.9193411  60.2615881  63.0823040  68.1010056
  61.6040277  51.2677765  46.3498926  61.2607193  52.1315765  46.5784121
  61.8141747  50.8632231  47.1915627  17.2281706  71.6432858  66.5096998
  17.7613771  71.1692142  65.8715916  16.8459141  70.9584045  67.0583820
  36.4908361  49.7247410  34.6556187  36.0486269  50.5196571  34.3576384
  35.8178782  49.0454578  34.6115828  15.9774137  75.3048897  59.7075033
  15.7321131  75.7609749  58.9024925  16.8243349  74.9058723  59.5081568
  71.0584354  41.4774227  36.4820623  71.4953518  41.8257570  35.7048893
  70.4489183  42.1675396  36.7437053  19.2417610  13.5479391  27.4397945
  19.6057570  13.1457925  26.6511130  19.6477687  14.4139981  27.4762630
  72.5438881  62.2241735  39.5015383  72.7475452  61.7300034  38.7074661
  73.1185961  62.9886150  39.4619226  29.3061805  40.4692888  28.8012409
  29.8582697  39.7047806  28.6370659  28.5372210  40.3327131  28.2478142
  39.3299389  44.1220808  39.7555017  38.5506248  44.1933966  39.2043066
  39.6698284  43.2451582  39.5774174  47.9561996  48.9902306  48.4651279
  48.0968904  49.4390297  47.6314497  47.3340845  48.2924366  48.2594919
  70.4019260  42.4448156  29.8178530  69.7417545  42.9223680  30.3201938
  70.2806664  41.5299320  30.0718546  40.3516054  65.1326799  23.6381030
  39.7038937  65.5882788  24.1758132  41.0043907  65.8015251  23.4313583
  35.2030754  19.2323446  36.5775394  35.4616928  19.0956080  37.4889421
  35.6438851  18.5323906  36.0958958  24.4004822  31.0903215  15.1070201
  24.7815204  31.6371107  14.4199514  25.0447822  30.3961205  15.2455521
  18.7051260  59.0958786  23.2563663  18.5071611  59.8349810  23.8314915
  17.8511941  58.8083363  22.9333329  35.5750728  60.9015226  35.1051545
  35.2520037  61.0189342  34.2118049  36.1765265  61.6337538  35.2405143
  39.4350767  17.7013075  29.8398399  40.0722361  17.3455298  29.2204213
  39.9644589  18.0242491  30.5690145  71.7378616  71.5152025  61.4247084
  72.4417067  72.1615553  61.3693190  70.9746742  72.0162296  61.7123699
  41.7986822  58.9959383  23.8092923  42.6306534  59.3632364  23.5107183
  41.1854935  59.1828680  23.0984592  35.7156634  48.7806225   9.0321833
  34.9874234  48.1630659   9.0994120  35.3647423  49.6028996   9.3741572
  72.3621893  48.4644318  29.9082637  72.0593739  47.7464294  29.3523812
  73.3133936  48.3611155  29.9359798  78.9446306  38.3106828  26.9045472
  78.9255524  37.9823685  26.0056162  79.8576355  38.5589528  27.0495296
  26.0350728  50.3445482  19.4982851  26.4950061  49.8003578  20.1374626
  25.4039812  50.8426285  20.0177789  50.6565857  67.7402020  20.1964140
  51.1535072  67.5955534  21.0016322  50.9319258  68.6068296  19.8974538
  51.0356855  71.1357212  58.7637997  50.3034496  71.5547514  59.2159939
  51.7451620  71.7764711  58.8118982  30.1667809  68.5048866   2.1286480
  29.3809319  68.2962656   1.6235228  30.8301926  68.7042618   1.4680691
  62.3241425  71.9508886  15.0744534  61.8768978  72.4047899  14.3601871
  62.1880388  72.5124979  15.8375406  82.5412750   1.6835544  15.5604386
  82.6659584   1.0605602  16.2763739  81.9250488   2.3280874  15.9083951
   6.7611551  28.0040336  51.0329533   6.0574722  28.3216143  50.4670858
   6.3971579  27.2250414  51.4535618  82.2016525   6.1010760  14.2891419
  81.5147591   5.6393677  13.8082731  83.0154037   5.8286822  13.8650537
  53.1512213  31.1243415  51.5485001  52.2899628  30.9896970  51.1531115
  53.1250477  32.0220566  51.8796492  46.9151068  36.5623856  19.6900904
  46.7891932  37.5097299  19.6361232  47.6077080  36.4495230  20.3410888
  34.0456438  79.1101408  46.3772726  34.6316051  79.5370436  45.7522631
  33.3229351  78.7818861  45.8423185  60.2459574  53.4677887  28.9344621
  60.6606865  54.0791941  29.5430803  59.7522879  54.0258503  28.3335567
  48.8235426  74.7657442  47.8986740  48.4221506  75.3334427  47.2407722
  49.1748810  75.3691292  48.5534430  72.9445887  77.2840166  30.3482747
  73.8262939  77.4135733  30.6976128  73.0185843  76.5077639  29.7931242
  53.8600636  68.3142567   5.5558747  53.3294153  67.7914095   4.9548158
  54.1529179  69.0591049   5.0308269  54.5677519  47.7022123  41.0410500
  55.1862669  47.7912140  41.7661333  54.5497990  46.7633581  40.8554173
  63.4781170  61.4823198  43.5349751  62.7025890  61.2618637  43.0190468
  63.2713699  62.3303938  43.9277315  27.0932627  64.1894722  50.3746319
  27.3871875  64.7666693  51.0793877  26.2871075  63.7956047  50.7081223
  24.5799088  64.7781897  25.8932304  23.6391187  64.9050617  25.7705569
  24.9741316  65.5927229  25.5812120  36.5046620  23.3537102  16.2454867
  36.7414689  23.5960174  17.1407187  36.1363077  24.1535926  15.8703363
  40.7477808  53.8240528  14.7612298  41.4234257  54.3377638  14.3186951
  40.6094027  54.2765427  15.5932975  26.8571020  60.8802199  68.6259366
  27.5839925  60.7766437  68.0118245  27.2781587  61.0132480  69.4752001
  53.0413198  64.9502134  41.9291449  53.1326199  65.8803129  42.1360540
  53.9333057  64.6059752  41.9749355  42.6302481   9.7384536  26.8329501
  42.5940084  10.1500607  27.6963711  42.5122595  10.4620337  26.2175298
  31.2684894  63.6090231  13.9009905  31.6436839  62.9909420  13.2737410
  31.6383123  64.4562960  13.6528182  24.5211577  73.5351753  43.9134312
  23.8648891  73.9420414  44.4791174  24.0814853  73.4366989  43.0689049
  16.5449011   5.2540565  30.1573396  16.4754105   4.3539125  29.8393106
  16.5102386   5.7911021  29.3657517  62.0795536  52.6470613  15.5294347
  62.6901484  53.2211351  15.0670052  62.4156857  51.7645073  15.3734076
  26.0937071  50.1472092  30.4386210  25.6285334  49.3112326  30.4072404
  26.7509222  50.0817585  29.7457886  50.5183315  59.0374660  22.9315877
  51.0741568  58.4833670  22.3836207  49.7054434  58.5411835  23.0272579
  68.4402704  55.6862974  28.3193064  67.8581429  54.9609566  28.5456681
  69.1485977  55.6341553  28.9610100  81.9702435  62.7265263  44.0166426
  82.1518517  61.9731474  43.4547949  82.8226566  62.9642296  44.3814898
  38.5841131  66.8658018   8.9445311  38.4732413  66.2195873   8.2471448
  37.6917601  67.0799923   9.2166668  18.7854695  22.6147413  33.7457776
  19.1210115  21.8053126  33.3604646  18.0160952  22.8300118  33.2185650
  45.9603643  74.7562313  51.5276527  45.9071589  74.3664169  52.4002647
  45.2065420  75.3443384  51.4816809  82.6545143   6.6710496   5.1498222
  83.2495689   7.2630900   4.6897963  83.2314491   6.0602570   5.6084090
  61.9958830  78.1539583   4.9203953  62.1704149  79.0789652   4.7468024
  61.1148930  78.0076838   4.5758817  56.5108204  67.9856777  12.0184112
  55.7541895  68.5619450  11.9104540  57.2097015  68.4126329  11.5229225
  73.4497023   2.3038989  24.2986774  73.1403732   1.7091554  23.6154318
  74.2073917   1.8590185  24.6784449  22.8916979  60.3605938  50.6180143
  22.5347161  61.1580324  50.2270079  23.5219502  60.0391150  49.9732971
  33.4875536  31.4881802  23.8644123  34.0423608  32.1998000  24.1838121
  33.1822443  31.0480022  24.6576738  57.6613760  69.2516232  56.8161535
  57.7143002  70.0298643  57.3709297  58.4937334  68.8003111  56.9566011
  60.1503372  59.6204281   2.7215362  60.6438303  58.9571762   3.2040238
  59.4417906  59.8703337   3.3146131  32.0111680  32.0385933   3.3519560
  31.9139004  31.6071153   4.2008361  31.5978217  31.4396954   2.7301049
  73.7503338  58.1408739  13.3268905  74.3479204  58.5931015  13.9223814
  74.3215942  57.6103592  12.7715063  73.6492205  61.4333248  56.3606834
  74.4153500  61.5554285  56.9213676  73.2644749  62.3067188  56.2873030
  60.4142857   6.9345140  16.1043489  60.6636190   6.6896605  16.9954777
  61.2466049   7.0504504  15.6460524  46.3932133  64.7641611  39.4869709
  46.1169386  64.4995213  38.6095476  46.7258692  65.6546783  39.3749261
   9.6075886   1.8143827  30.5629230  10.2794671   1.1485591  30.7095194
   9.4213992   2.1627906  31.4348054  66.2589502  61.0106087  35.7523322
  66.3012409  60.3079367  35.1037240  66.1855316  61.8115330  35.2333260
  41.4649916   8.1733286  18.3389175  41.6279459   8.5966873  17.4960387
  42.2669554   7.6830196  18.5196888  24.5695019  78.6309814  37.9129481
  24.4984627  78.3511305  38.8255644  23.8014889  79.1845465  37.7716994
  45.4915190  50.3768015  22.2240376  44.6744776  50.8708143  22.2920036
  45.4148340  49.6941853  22.8906631  83.8780117   4.1695386  27.0933175
  83.7637424   4.4884938  27.9885507  83.2910061   4.7137159  26.5684175
  62.9604149  55.8862257  40.8301640  62.6119757  56.4875031  41.4884090
  63.5225677  55.2896261  41.3244152  74.1445684  20.2173543  34.3688488
  73.4215879  20.5563831  33.8410306  73.7347317  19.9458015  35.1901460
  27.7742314  58.5237980  67.1219969  27.4830031  57.9977942  67.8668070
  27.0617414  58.4543705  66.4865637   3.8340366  46.0778332  27.1306443
   4.4116780  46.8330050  27.0198631   4.3617311  45.4413700  27.6130199
  50.1581001  34.5123267  48.8647747  49.4367075  34.7624326  49.4420719
  50.0542450  33.5681009  48.7469435   0.1677862   8.2288539  63.9096260
   0.9397049   7.7937478  63.5476065  -0.5703992   7.8280109  63.4506702
   0.5898146  -0.0283145  29.9618673   1.4863209   0.1296426  30.2577710
   0.0668482  -0.0131606  30.7634330  14.1773951  63.6347580  37.4349093
  13.4128702  64.0023756  36.9915223  14.5224190  64.3587971  37.9573631
  30.9694600  71.6357565   4.2572957  30.1627350  72.0022440   3.8951996
  31.1016917  70.8215237   3.7717286   1.0075046  43.2030106   7.0210820
   1.5526791  43.7880182   6.4949811   0.2262177  43.0590296   6.4871413
  32.2362661   9.0264159  34.3852067  31.6238427   8.3816147  34.7393274
  32.7799058   9.2760146  35.1324606  82.0549107  17.6091850  46.7776537
  82.9064751  17.5638938  47.2124243  81.4529991  17.9059470  47.4601936
  44.2959595  32.8755140  51.4358091  44.8590279  32.4699759  52.0951462
  43.8923550  32.1375751  50.9788847  57.9530096  59.9442530  23.6991405
  58.7345076  60.3901434  23.3725166  58.1304598  59.0145350  23.5564280
  50.4661846  30.6322980  59.6350002  50.7328558  31.5090275  59.9115229
  51.2127256  30.3012085  59.1357136  66.3900328   3.3280626  27.7681875
  66.0056925   2.7007991  28.3806062  66.0931301   3.0345201  26.9068456
  17.5361097  70.8884525  42.1356535  18.3819664  70.8551359  42.5824738
  17.6702189  70.3871870  41.3313055  58.9350796  58.8099194  66.5738487
  59.6875000  58.2494688  66.7635489  58.2176399  58.4265804  67.0783949
  82.4091148  38.5440993  20.9712505  82.3226452  37.8167486  20.3550386
  81.5314484  38.9231062  21.0190892  80.4641914   7.9850119  63.2140970
  80.4040432   8.1284350  64.1585779  79.5684767   7.7808201  62.9453278
  20.5865645  57.5929689  13.9476645  20.8745623  56.8364906  13.4367597
  21.3663363  58.1432247  14.0212178  38.2476163  77.8796387  43.5166264
  38.7479186  77.3202038  44.1107273  38.8251114  78.6234188  43.3447981
  72.9116488  13.7033832  36.7077923  73.3895874  14.4933724  36.4553499
  73.5922861  13.0431736  36.8385196  32.8952646  73.2814980  43.9938545
  32.0291209  73.0933666  44.3552923  33.2188988  72.4323559  43.6931133
  51.0924673  63.1575537  23.6253428  50.8337545  63.8011837  24.2849183
  51.4426661  62.4240541  24.1308832  49.4919252  48.7757254  41.6949272
  49.2491484  47.8520346  41.6309929  50.3207541  48.8389301  41.2202930
  56.0778284  75.9756804  31.7344093  56.9906521  76.2455940  31.8350959
  56.1283255  75.0832939  31.3918686  19.9039769  36.7298746  66.9634342
  20.7792664  36.7706585  67.3487043  19.3477166  36.3964009  67.6674223
  30.6530070  72.1423864  44.7290277  29.8570585  72.4491930  45.1632690
  30.3688765  71.3874865  44.2136383  16.6474116   2.5913113   6.1064094
  17.5141966   2.3857705   5.7561672  16.5193045   1.9600150   6.8144244
  62.0598364  30.7482719  58.4899378  62.3655081  30.0563812  59.0765238
  61.6847324  30.2810454  57.7434587  27.0821357  21.7307162   3.1072083
  26.3652778  22.0050383   2.5352877  26.6494918  21.2937212   3.8407511
  56.2142467  74.9806261  28.9448094  55.4900742  74.8757172  28.3277202
  56.2344265  74.1573000  29.4326186  60.3636646  53.9984035  17.2277594
  60.8378124  53.7673187  16.4290023  60.2712345  54.9501514  17.1845615
   0.3429982   9.3964100   0.8563240  -0.4054803   9.3172944   0.2649252
   1.0828841   9.5920402   0.2814069  65.7417154  79.1153002  26.3451481
  65.8793688  78.4055376  25.7178330  64.7940874  79.2502356  26.3499999
  56.7021370  58.5524082  41.1616564  55.7551622  58.6739635  41.0931683
  56.8561125  58.3902884  42.0923805  80.9122562  73.9148378  15.8191609
  80.5928040  73.0157566  15.7427013  81.5190792  73.8913012  16.5590525
  68.1191492  70.2974033  66.2862682  68.9057779  69.8376369  65.9929085
  68.1826353  70.2952623  67.2413588  59.3901920  59.0719175  33.4479618
  58.6546612  59.6279097  33.7050653  59.4061804  59.1226673  32.4922419
   0.8397967  20.1504660   5.9721512   1.2010273  19.6968257   5.2106035
   1.3316427  20.9703493   6.0181081  76.2070370  67.1114397   5.0000364
  75.8038616  66.3880730   5.4800552  75.9636497  67.8931284   5.4959762
  81.7248440  13.6664271  11.6575742  82.1396732  13.5536480  10.8023405
  82.3929405  13.3923256  12.2858548  22.2306585  41.4483309  21.3821316
  22.1066785  40.7568550  20.7319617  22.7578044  42.1085072  20.9321117
  23.7889266   1.2652354  65.7471418  23.8008237   0.3473727  65.4758120
  24.7076178   1.4786050  65.9105825  69.3588829  69.1356897  29.7273088
  68.6697578  69.2258072  29.0691185  70.1285219  68.8562012  29.2315483
  43.4532642  65.4408932  37.7283168  44.4010973  65.3555918  37.6255131
  43.1795931  64.6126270  38.1224132  79.5228004  15.9300518   9.0374982
  80.1739788  15.7228005   8.3672363  79.8597622  16.7184150   9.4631410
  68.0604029  63.4388828  24.7882652  67.1575403  63.2334137  25.0308609
  68.3629322  62.6647329  24.3134975  41.5661764  66.8373346  13.6752844
  41.5231657  67.6250744  13.1332052  42.4732161  66.5417862  13.5967565
  27.3164678  17.2187257  31.9276309  27.0429015  16.4317381  32.3988461
  28.2729030  17.1808684  31.9331360  64.7959042  64.4315529  25.1219821
  65.3594065  64.8001671  25.8022928  65.1493454  64.7799206  24.3034768
  42.7580547  67.2249126  62.2837639  43.1143570  68.1122255  62.2395563
  41.8274450  67.3495007  62.4699783  22.1139526  23.3510566  65.6144190
  22.2388315  22.6472259  66.2510157  22.0923162  22.9064822  64.7670031
  79.6486902  72.5786638  22.0275331  80.4247379  72.8595638  22.5123835
  79.0759468  73.3456039  22.0270872  52.5953150  44.7000027  11.9811618
  52.0236778  45.0036955  12.6863074  53.3196497  44.2647028  12.4307060
  35.9278727  25.1710129  66.0975695  36.0712004  26.0463738  66.4573383
  36.6642070  24.6541619  66.4245415  64.3570518  72.2121811  35.5468273
  65.1078415  72.3410797  34.9672246  64.7398138  72.1330929  36.4205956
  72.1052504  71.1155939  53.9851570  72.7747869  71.7045116  53.6371279
  71.9329262  70.5007887  53.2720280  -0.0990994  77.8763294  62.2573757
  -0.3579552  77.5385952  61.3999605   0.5662219  78.5367060  62.0637751
  38.0669546  10.6555843   3.2448283  38.3767915  10.7731712   2.3468274
  37.8156829  11.5345657   3.5285300  24.2814016  13.5565412  58.3244324
  23.4863877  13.5426712  57.7915192  24.7024751  12.7151561  58.1483650
  61.7729759  12.7407813  11.0670984  61.9512701  12.0735598  11.7298651
  61.1584854  13.3404613  11.4902020  38.8197947  57.3772240  24.1612387
  37.9435372  57.7562618  24.0924335  38.6723256  56.4917898  24.4936419
  53.5781240  68.5766602  10.1064157  53.8787651  69.4451332  10.3740096
  52.7080774  68.4935999  10.4967403  74.2827415  74.4143629  44.2333841
  74.8979521  73.8427496  43.7740278  73.8674307  73.8467169  44.8826313
  25.9629893   6.4726174  27.9291034  25.9866881   6.4387918  28.8854122
  26.1509299   5.5755854  27.6529813  21.3760114  10.5984855  46.2914228
  22.1101260  10.4061019  45.7080746  21.5323448  11.4959812  46.5851831
  58.6710405  62.1563482  33.4821272  58.6167240  62.1267796  32.5269270
  59.5302677  62.5381756  33.6614633  71.7057991  68.1340837  28.5008979
  72.5786209  68.2982254  28.8579321  71.8365812  68.1033802  27.5531721
  45.3009844  70.7992172  33.8033438  45.1090145  70.6634951  34.7312212
  46.1686039  71.2034416  33.7948942  33.8121128  25.4626155  62.7870035
  33.2291150  24.9307084  62.2453213  34.5540237  24.8880649  62.9759264
  50.2764654  63.7215137  30.5062199  49.5480633  64.0239716  31.0486054
  50.9271479  64.4208765  30.5673814  61.6335011  67.7901554  33.0051255
  62.0840645  68.0603027  33.8052797  60.9548187  67.1853971  33.3049464
  44.4801950  56.2120676  11.3617873  44.7075272  55.6213427  10.6437397
  43.6679316  55.8532286  11.7191219  18.2864261  14.8665571  37.9291177
  18.3507633  15.7527959  37.5732064  17.3642087  14.7702515  38.1667542
  46.6911411  58.5304689  50.4750299  46.6495991  59.4867659  50.4763794
  47.0643616  58.3081484  49.6220827   5.6629997   3.2333565  12.2427976
   5.5137318   2.6027846  12.9473042   4.8008803   3.3575255  11.8458533
  52.7751684  10.9336293  66.0843420  53.2254362  11.0360110  65.2458906
  53.2893372  10.2766776  66.5536785  65.0797987  71.0233021  30.7687068
  64.4635439  70.8054161  31.4679813  65.9285975  70.7257414  31.0961604
  78.6432314  66.8912220  35.3445268  78.6536789  67.0675945  34.4037724
  79.5368481  67.0769167  35.6329656   8.0557418  74.9848843   8.1108910
   8.9107144  75.0950146   8.5269743   7.8199130  74.0737963   8.2856262
  43.0642653  18.9687693   5.8700693  42.7022839  18.8904262   6.7527139
  42.3083735  19.1693187   5.3181267  75.9650040  65.5446911  15.1503110
  76.7073965  65.7158232  14.5708299  75.5644083  66.4033270  15.2862990
  75.3165817  78.4294844  48.2689381  76.1117601  78.0951691  47.8540182
  74.9518633  79.0413332  47.6295233  40.8274078  74.6430922  63.8456583
  40.9297848  73.9209843  64.4655943  40.2676630  74.2882729  63.1549883
   5.6033909  52.2548056  10.0425887   5.8856106  52.1613789  10.9524548
   4.6552128  52.3741055  10.0969708  49.2033529  37.5530195  12.1205354
  49.2953396  38.1770730  12.8404844  48.2775021  37.3102689  12.1308088
  79.8359060   6.1907834  26.3116312  79.1916895   6.4152867  25.6402063
  79.3268776   5.7570457  26.9964600  66.3146973  25.9330225  44.2163277
  66.9757223  26.3040042  44.8008347  65.5728769  25.7358074  44.7882032
  67.7732468  66.2556410  30.4093289  68.1966305  66.7753553  31.0926127
  68.3904791  66.2732744  29.6779299  56.4198208  25.0463152  44.9235630
  56.5570211  25.0612307  45.8707619  57.1951437  24.6053886  44.5761585
  41.9643641  16.6975176  55.9106970  41.1919022  17.2535992  55.8091736
  42.6316786  17.1124125  55.3640795  11.4294457  63.8351297  36.8220544
  11.2385678  63.7516260  35.8878016  10.8966005  64.5763111  37.1100688
  12.3180044  35.1300216  17.2056603  12.1554327  35.7909513  16.5326273
  13.1638908  34.7498512  16.9686389  39.8096609  58.4901428  35.4465222
  40.2003574  58.3251095  34.5884109  39.4152713  59.3586922  35.3670883
  41.5148401  78.7318039  17.1620619  42.2672796  78.6414289  16.5773427
  41.8993855  78.8580227  18.0294859  61.1424160  51.1011505  29.5458961
  61.1014175  50.6799746  28.6873174  60.6967211  51.9393015  29.4230437
  68.7368679  49.6588850  53.5294437  69.0549326  50.5360365  53.3157301
  67.7997208  49.7754049  53.6856842  69.7117758  57.5579977  41.0411453
  69.7588682  57.0051384  41.8211222  70.5733919  57.4708319  40.6334019
  58.3244276  52.4204111  57.1784163  57.3892879  52.6135588  57.2450304
  58.7412310  53.0476809  57.7692127  23.7572598  33.1675649  58.6959362
  23.5219646  33.6176133  59.5073080  23.6257887  32.2395134  58.8900137
  77.4051571  10.0777340  19.4621706  77.5594950  10.6063390  18.6792350
  77.7220488   9.2052829  19.2284179   0.3395195  14.6554172  47.5756407
   1.2378190  14.3388188  47.6708031  -0.1497744  14.1964841  48.2584333
  68.0050468  25.5351973  29.1149092  68.1076765  24.8161244  29.7383142
  68.8474751  25.5823755  28.6628890  63.3649445  67.4715948  35.3371382
  63.8289452  66.8821096  35.9316516  62.6327848  67.8063917  35.8549047
   9.9104244  19.8339188  25.7510257  10.3369308  20.6882167  25.6839585
  10.5781758  19.2618835  26.1293316   1.1592121  35.5170178  50.3496456
   1.3334073  34.5921564  50.1749372   1.8403693  35.7759571  50.9702969
   9.9293745   3.6791375  13.6774004  10.8581388   3.4784943  13.5617673
   9.9201447   4.5494404  14.0757966  50.2215481  49.0274000   7.4135423
  50.1071453  48.5513067   6.5910584  50.4866505  48.3571386   8.0433869
  58.0407953  47.5729132  53.9541626  58.6189938  48.0943680  54.5109415
  57.3773050  47.2298145  54.5527411  53.4578371  71.4712000  29.1441059
  53.1479120  70.6240606  29.4643068  54.4020653  71.4554358  29.3003416
  27.5481629  34.1871691  56.4575577  28.0234551  34.5867014  55.7290602
  28.2309985  33.9327788  57.0782423  18.3722448  32.1139550   3.1854755
  18.5649574  31.6233230   2.3864931  17.6593888  32.7031541   2.9386675
  30.2592587   7.2022039  35.1775837  29.5985794   7.6579809  35.6991220
  30.5637956   6.4929223  35.7436275  54.3937588  71.6535950  61.9205284
  53.7246466  71.5991545  62.6028442  54.7017622  70.7534933  61.8147516
  42.7305603  62.8878689   5.1668453  42.3307943  63.3288050   5.9165114
  43.5377932  62.5087309   5.5144894  13.9510846  21.7649364  49.0116549
  13.4676647  20.9406495  49.0672112  13.6332595  22.2794724  49.7535944
  37.9468536   7.0318812  27.4889803  37.2143793   6.4248961  27.3827529
  38.2964563   6.8355888  28.3581638  54.1536999  70.3148222  56.6763783
  54.7510958  70.9724426  57.0325899  53.4888840  70.2021313  57.3557568
  40.0575113  76.3155746  55.6680632  39.3707514  75.7993793  55.2460051
  40.8726978  75.9804106  55.2947378  54.8473024   6.6442209  31.1258006
  53.9245653   6.5132660  30.9075308  55.1564837   7.2844911  30.4849482
  43.3940125  78.5404396  23.3321714  44.1001987  78.9443970  22.8278375
  43.7469530  78.4624767  24.2185068  76.0738611  49.5556974  43.1149960
  75.2539062  49.7047424  43.5858393  76.7414713  49.9747658  43.6580515
  65.3538084  58.6217594  53.0071259  65.3248310  59.5726299  52.9011202
  65.5415773  58.4899712  53.9364290  79.8593950  49.9365139  61.4767981
  80.5941582  50.4212284  61.8528318  79.8835230  50.1504993  60.5441332
  10.7935202  15.5276215  49.2984724  10.1486897  16.0376084  49.7887135
  10.9526348  14.7562945  49.8425007  46.1840725  70.2561092  20.0999570
  45.7964993  71.1198664  19.9587405  46.3182878  70.2056360  21.0463572
  68.5796547  76.2356663  52.8703356  68.2372999  76.0881376  51.9887114
  69.0460825  77.0693398  52.8097486  36.2797952  66.1129379  56.9540071
  36.4801931  65.1831770  57.0618010  36.3423824  66.2636566  56.0108232
  10.2675593   0.8583374  23.4604955  11.0359657   1.4171021  23.3440161
   9.6075588   1.2342298  22.8779697  49.3635082  15.1136708  14.8123598
  50.0227976  14.4242632  14.8916614  49.5158815  15.4923439  13.9465535
  35.1625729  54.0555906  26.8511009  35.3235698  54.9990368  26.8659782
  35.5131793  53.7660408  26.0088015  23.0918455  56.8189955  62.7861547
  22.6854038  55.9603405  62.6689053  23.9691281  56.7212868  62.4159431
  24.3558550  30.7710361  67.6721382  23.4865379  30.4167438  67.4850607
  24.3176150  31.6757631  67.3619127  79.4112158  33.3986068  33.2395530
  78.9731026  34.2242217  33.0330396  79.7971296  33.5418606  34.1037154
  72.5883293  67.7632380  56.5783405  71.8137693  68.3147907  56.4684486
  73.0502653  67.8297710  55.7426262  62.5399828  45.8069944   0.7362159
  62.7738237  46.7350435   0.7195912  62.7033234  45.5349827   1.6392998
  35.3784323  39.9918532  19.0756249  36.2278056  40.3733301  19.2976058
  35.5307889  39.5320582  18.2500291  79.7761393  61.7963028  38.3169603
  79.2095661  62.4008083  37.8375864  80.6554413  62.1606684  38.2154346
  50.1166821  19.5749044  65.3774023  50.7344580  18.8712490  65.1787710
  50.5530882  20.3701305  65.0717974  72.1295595  49.1540909  55.6566238
  71.5199757  49.8101711  55.9945488  72.1984720  48.5070801  56.3586664
  61.6694355  60.2466154  60.8866310  62.5509024  60.4862690  60.6006050
  61.4329100  60.9205294  61.5239143  39.9425769  60.9679985  23.2485104
  39.1377234  61.3562727  22.9054570  40.5733919  61.0535860  22.5336838
  74.8254442  37.4190068  31.4548039  75.6757879  37.3403692  31.0224104
  74.5659256  36.5162253  31.6388345  29.7603059  66.4728928  22.0856905
  29.4362831  66.1864424  21.2317657  29.2226410  65.9962177  22.7180886
   5.0487739   1.2005848  48.4897852   5.4748440   1.6386178  47.7530193
   5.2075058   1.7783545  49.2362547  32.2961831  66.3125181   9.3025613
  33.0681396  65.9965706   8.8329911  32.2418046  65.7534027  10.0775909
  61.3939524  67.5405550  58.3535814  61.1972141  68.0630255  57.5760508
  60.9044981  66.7278814  58.2261992  54.8591280  51.4403152  35.3758454
  54.1697598  51.4695072  36.0392857  54.7759056  52.2708178  34.9072647
  76.9320440   5.8292115  10.7626927  77.0376110   4.9953055  11.2206113
  76.0130167   6.0611284  10.8962381  21.9914603  78.9244652   2.8691053
  22.8678346  78.7163401   3.1929660  21.4075446  78.6893845   3.5902226
  83.5977936  26.8538094  53.7862635  84.2897606  26.9357514  54.4425344
  82.7845478  26.9408536  54.2835474   7.9172319   1.3115709  49.8335266
   8.1004405   2.2163448  50.0866079   8.4473723   1.1702299  49.0491724
  43.8558769  10.5644202  44.4052696  43.0828476  10.5038083  43.8440371
  44.5354700  10.9290564  43.8383245  71.7338228  69.1301870  17.1065187
  72.3797846  68.8927794  17.7718008  72.2370291  69.5985842  16.4404690
  12.0894897  78.3942413  20.7023430  12.4548185  79.2735958  20.6048751
  11.3342631  78.5111713  21.2787056  17.3527408  77.2425270  64.7575283
  18.2251430  77.0968533  65.1234818  17.3663247  76.7853260  63.9166832
  38.6993861  26.8232584  68.2833529  39.1866231  26.0237026  68.4822035
  38.9256287  27.0218897  67.3747349  54.3478203  54.1126776  35.5148840
  54.2012215  54.8026562  34.8678350  53.5208559  54.0532970  35.9932470
  65.4938650  59.1042805  33.5840750  65.0612783  58.6149263  32.8843355
  65.7368660  59.9369001  33.1792068  10.3016818  47.2750521  22.0875382
  11.1195636  47.0319748  22.5213766  10.1147437  48.1580591  22.4062562
  69.6449614  61.1439896  61.4754534  69.6108055  61.6463280  60.6613827
  68.8579273  60.5996037  61.4541769  25.3710747   0.2019253  46.4380503
  25.1168609  -0.7156935  46.3401604  24.5689368   0.6443815  46.7156076
  80.0903511   0.5941906  31.1355782  79.6812534   0.3626946  31.9694138
  79.6739292   1.4189234  30.8852959  28.1259894  15.7226765  29.3798900
  27.7447820  14.8710871  29.1660953  27.6019979  16.0420203  30.1145220
  74.4714689  74.3373203  54.7739220  75.0964212  75.0479364  54.6300745
  74.5908594  73.7574434  54.0217781  63.9691925  60.2805424  29.2772436
  63.5616875  60.4222202  30.1317024  63.8224649  61.0990906  28.8032365
   9.7221172  77.7431059  22.9425049   8.8698959  77.7855778  22.5087452
   9.6132463  78.2669163  23.7362337   6.7815697  59.5704460   5.3446466
   7.4847937  59.1466045   5.8366507   6.7290866  59.0753031   4.5271435
   6.4611721   2.9627565  24.9270535   5.9567147   2.3038846  24.4499350
   6.0036421   3.0559272  25.7626486  72.5065517   0.4769268  11.2756383
  72.9682064   0.2851678  10.4593444  71.7435837   0.9876876  11.0050142
  22.9422450  15.5608201  67.6413107  23.8230062  15.5440784  67.2668600
  22.7890038  16.4818954  67.8519440  14.8289454   2.2172941  22.7703333
  14.4872868   1.3702020  22.4840879  15.3178251   2.0207246  23.5694504
  70.1022625  58.8301420  54.9125242  70.1775980  58.8247871  55.8667421
  70.8110285  59.4028902  54.6195221   1.7470752  27.3871064  17.2779715
   1.5107869  28.2155371  16.8607175   2.6535839  27.5106716  17.5594056
   1.4518683  77.1751261  58.7461329   1.5790707  77.1536589  57.7976656
   2.1547291  77.7388144  59.0693569   7.9034644  44.1036129  62.6155710
   7.1522009  43.8015270  62.1050978   7.6679891  44.9910927  62.8860474
  59.7576857  42.5772429  63.2677937  59.9463606  42.6896667  62.3361301
  60.4687691  43.0376720  63.7134314  61.5212393  46.0603666  52.4953318
  61.6902208  46.5627337  53.2923937  60.5695581  45.9602976  52.4725294
  10.3728139  18.5129356   2.8215405  10.5925834  19.4163799   2.5941145
  11.1333036  18.0036438   2.5413448  65.7845783  63.2779741  11.5781784
  65.0503683  63.2882595  12.1922338  66.2713957  64.0786600  11.7734933
  30.3417993  20.6954002  19.8046339  29.9730730  21.2399244  19.1091001
  30.0817323  21.1334062  20.6150341  10.2381384  10.8767724  60.2214098
   9.3669528  10.8612823  60.6176758  10.4010653   9.9689031  59.9655581
  12.1263087  77.1442509  32.4491501  11.3803267  77.1758556  33.0481029
  12.8069568  76.6821957  32.9384899  72.7346230  60.4331303  49.9627018
  72.3237991  59.8003340  49.3736172  72.1380138  61.1816549  49.9638796
  68.9205122  21.5893579  12.3697639  68.6161041  21.0420179  13.0936360
  68.9361143  21.0011029  11.6148174  33.9310646   4.6925613  12.0205808
  33.9780211   3.8747746  11.5253520  33.1748748   5.1512051  11.6544473
  46.9483948   1.4419040  36.2119436  47.6511812   0.8412299  36.4599609
  47.1732140   2.2654153  36.6449761  27.7821660  30.4448533  47.4161482
  28.4789324  30.2546668  46.7879915  27.3538566  31.2273788  47.0691061
  28.1006360  18.5400248  52.3424196  27.3604417  18.7787759  52.9003954
  28.1216407  17.5834167  52.3687267  72.1845007   1.8355823   7.5880289
  71.2278748   1.8081477   7.5693470  72.4225092   2.3960058   6.8494427
   5.2319062  48.3823586  37.8654861   4.9564537  49.1549110  37.3720026
   4.4141179  47.9861736  38.1662989   9.7325945  36.8210530  45.4970837
   9.8052299  35.9419966  45.8688593  10.2222621  37.3781943  46.1021042
  65.0861406  43.5443830  33.7247968  65.2824879  44.4806957  33.6931372
  64.2480516  43.4908104  34.1841078  54.6174860  43.0855894   1.0960889
  54.1337872  42.6800537   1.8156767  53.9388037  43.4193993   0.5094111
  65.1990271  76.1167479  30.3706622  65.3638363  76.4626503  29.4934964
  65.9600258  75.5673027  30.5583405  13.7725401  29.0422010  26.0278940
  13.8123143  29.0951705  25.0729895  12.8556788  29.2177248  26.2395287
  21.2013125  62.8642130  45.0894499  20.4077148  62.3331833  45.0227976
  20.9434223  63.7232971  44.7552347  12.5154865  25.9890699  65.6430960
  11.7015207  25.4891968  65.7048702  13.1654572  25.4441643  66.0867691
  77.6993847  19.0213323  59.1830587  76.9158554  19.3433285  59.6287394
  78.3580446  18.9551163  59.8744488  63.1493473  71.4080858  32.7020431
  63.5728550  71.1655331  33.5254741  63.3410358  72.3402882  32.5996256
  82.2626114  47.5652361  28.4514809  82.0639992  46.9024086  27.7900815
  82.9712772  48.0817127  28.0677223  54.3502045  57.0650864  19.1012061
  54.6515989  57.1563864  20.0051188  53.6013746  57.6578856  19.0373838
  25.2302694  32.5920463  48.4163713  24.4029641  33.0701733  48.4728527
  25.3605628  32.2342515  49.2945719  76.7849541  19.2866659  42.8998089
  77.2341061  18.5643971  43.3389235  76.8382025  20.0140738  43.5197067
  20.5484080  22.6437593  12.5573778  20.4222250  21.8158054  12.0939100
  21.2051725  22.4467039  13.2252574   1.3682047  64.7110367   6.4848769
   0.4383136  64.5708895   6.3062906   1.7823622  63.8758945   6.2675172
  72.6641512  32.6905322  55.2143288  73.2672787  31.9489121  55.2640200
  73.0896521  33.3798742  55.7242203  35.3855348   8.5314596  30.8846498
  35.9259534   8.7001193  31.6564870  34.5461798   8.9457828  31.0847735
  45.1148272   8.2775772  21.7899942  45.1412296   9.2027271  22.0341945
  46.0088444   8.0774617  21.5126538  45.0672102  15.3778517  15.9955347
  45.8983517  14.9733114  16.2441027  44.6010876  15.4954934  16.8232536
  53.8421297  74.7095442  12.4743307  54.4983292  74.3686771  13.0821466
  53.0461693  74.2200947  12.6819789  43.4152555   4.2355224  45.7601213
  44.1951847   4.1845325  46.3127041  43.0510330   5.1023984  45.9392929
  27.5315571  18.0452836  22.3942780  26.8509054  18.4214115  21.8361807
  27.9128289  17.3432851  21.8669605  78.4178209  69.3163443  41.6627645
  77.9606199  69.1080236  40.8480263  78.0215836  68.7379026  42.3144102
  11.1880183   9.3415862  14.6508789  11.7548668   9.9968457  14.2440021
  10.3009260   9.6117836  14.4136167  23.1465197   4.8610610  17.5309682
  22.8259468   5.6383109  17.0734251  23.9862609   5.1312011  17.9025781
  15.6620872   7.1408302  27.8700876  16.4543080   7.6780587  27.8718972
  15.5890203   6.8248665  26.9694996  82.3684883  66.0318184  57.5070143
  83.0030346  66.3857698  58.1301451  82.8416920  65.9994602  56.6755962
  11.7545950   9.9346083  29.3146586  11.1322773   9.5791262  29.9491549
  12.5812066   9.4974220  29.5191407  49.1030979  72.0007944  39.7259712
  49.6721697  72.5338316  40.2811861  48.2155180  72.2486210  39.9848509
   9.0863931  19.6795142  10.6512940   9.5761746  20.4318643  10.3191566
   9.7125381  19.2107463  11.2030470   5.2839512  11.5196204   4.6227515
   5.1379651  11.1657667   3.7454218   4.4164562  11.7983532   4.9159959
  45.1508474  70.3143930  48.3627415  44.7485161  69.7867060  47.6728821
  45.3118515  71.1636496  47.9515648  37.4110389  22.7258801   7.4392402
  38.0503416  22.6388359   6.7321688  37.8079128  23.3515167   8.0452943
  43.8775730  53.3652306  36.3316727  43.7902927  52.4142456  36.2664914
  43.4389782  53.7001657  35.5495691  46.0395479  70.8056164  37.8291154
  45.9407282  71.4756727  38.5054946  45.1851416  70.7717133  37.3989129
  48.8602591  12.1459401  12.4226201  48.6419153  13.0096602  12.0725548
  48.1771374  11.9700587  13.0696464   1.5073639  66.9516230  16.8943441
   0.6787561  67.0728064  16.4307106   1.9601248  67.7895260  16.7986643
   7.8155500   7.4610966  24.4101644   7.2417712   6.7394567  24.1527820
   8.5968018   7.0328093  24.7600889  33.3887768  79.2554903  55.3365898
  32.7695632  78.5259295  55.3600359  32.9788160  79.9348974  55.8719110
  51.1326122  63.3538961  27.4301076  50.8096170  64.0437126  26.8504047
  51.0684586  63.7294436  28.3082175  77.8265905  59.1192007  38.2981920
  77.2716999  59.1864681  39.0752387  78.7202024  59.1195202  38.6412549
  78.2783651  58.0372715  23.9523101  78.5587072  58.1101274  24.8646331
  77.3232079  58.0867243  23.9905739  16.1735082  16.5038919  27.7409172
  16.4519799  15.7478034  28.2576537  15.2355886  16.3690650  27.6054168
  17.0206189  74.4297123  10.0913692  17.7653682  73.8319063  10.1562488
  16.5745258  74.3489647  10.9344077  38.6270785  11.7556477  45.6259871
  39.5638132  11.5928543  45.7367039  38.3858395  11.2485957  44.8507881
   8.9250594  56.2362814  53.2029486   8.8465524  57.0755148  53.6565542
   8.0649936  55.8283329  53.3034325  43.3344936  71.4117479  19.0130556
  42.7280188  72.1502781  19.0677953  43.0533314  70.9279919  18.2364225
  65.6513309  26.9581151  20.0387812  64.9540567  26.5595555  19.5180213
  66.3478184  26.3015795  20.0489354  69.1506052  73.4712696   6.2218559
  69.1115236  74.2075682   5.6114709  69.6915722  72.8192759   5.7763278
  75.0008106  76.2925673  38.6348462  74.7733688  77.0456076  38.0894732
  75.8050728  76.5552378  39.0825057  52.3391438  77.9882193  28.8761735
  53.1929111  77.6962852  29.1956758  52.0257998  78.5930967  29.5486140
  81.3714027  10.3976643  34.4259048  81.8463802   9.5666462  34.4315457
  81.4995193  10.7527447  35.3055263  20.6853271  18.0695307  33.5033107
  20.6601191  17.7283406  34.3972802  20.8625865  17.3023331  32.9590511
  58.8779545  76.3418102  31.7721367  59.7475386  76.0719156  32.0674610
  58.9653730  77.2782660  31.5942502  81.7479610  17.1288180  29.8884940
  80.8183384  17.1730554  29.6647406  82.0841312  18.0026078  29.6891999
  24.3880367  53.5580778  61.3817930  23.7212467  52.9453850  61.0715723
  24.5851994  54.1033173  60.6201696  53.0044603  55.4923153  66.7095327
  53.5877085  55.2370930  65.9947538  52.5094080  54.6979666  66.9099569
  32.1921206  22.4238849  66.1031008  32.4422216  23.3478332  66.1033201
  31.2417197  22.4330401  65.9895849  56.6783094  71.9428253  14.0436912
  57.4051428  72.5607061  13.9651227  56.9207001  71.3801622  14.7791409
  45.3693962  13.4715390  66.4631701  45.3427601  13.6552703  67.4021912
  45.1349926  14.3024468  66.0497952  48.7914801  66.4547300  23.7255144
  47.8889322  66.5432882  24.0317869  49.2579126  67.1794939  24.1419172
  14.4386458  24.1505623  22.4544024  14.5880461  23.4108973  23.0433083
  14.6164155  23.8011646  21.5811610  77.2241402   1.4035498  21.8520474
  77.8871775   2.0165226  21.5344381  76.4175510   1.9180310  21.8829823
  78.9985895  63.0915356  42.5354242  78.9492559  63.8073444  43.1689978
  79.9338818  62.9938459  42.3567677  57.3802376  59.1478348  48.4883738
  56.5462828  59.3441963  48.9152145  58.0360985  59.5847607  49.0316772
  71.0922003  63.4084415  22.4315310  71.9732809  63.7767029  22.4971390
  71.1732483  62.7071428  21.7851257  66.6196156  70.2728939  38.3162260
  66.6147947  70.9803772  37.6714921  66.9336367  70.6846285  39.1212702
  66.2433481  73.7605143   9.7417676  66.9910240  73.1641960   9.7015005
  65.7609940  73.5948849   8.9317465  41.5534544  12.2467089  14.3511546
  42.4017429  12.6606584  14.1921353  41.1459160  12.1958816  13.4865391
  41.3781452  12.0847416  43.7468576  41.4008951  12.9165173  44.2199993
  41.1683178  12.3277926  42.8451204  42.5617123  76.0351801  31.9334579
  42.7110815  75.8288908  32.8561521  42.0253611  76.8278456  31.9490361
  69.9610090   6.6759449  26.4958787  70.7162285   6.8388903  27.0609713
  70.1568127   7.1546710  25.6904507  50.8587790  76.9924307  24.2223644
  51.4449072  77.2851992  24.9201989  50.2632618  76.3782167  24.6517086
  10.8547604   8.0444962   2.1124448  11.8013453   7.9079080   2.1518481
  10.5792511   7.5848365   1.3193247  25.2823067  58.7238169  29.3567419
  25.0453472  58.3741760  28.4977698  25.8562231  59.4651222  29.1635752
  40.2767706  43.4233999   1.2192796  40.8582878  44.1746998   1.3359630
  39.4233131  43.7314939   1.5241067  15.2950072   9.5747358  40.8723545
  15.0162339   9.2458552  41.7269611  16.1358094   9.1458040  40.7132912
  17.4047065  58.3202028  43.2529640  16.4855587  58.0887651  43.1194019
  17.6764417  58.7108946  42.4224520  14.1687763  27.4850059  32.9953480
  14.2751324  26.9409490  32.2150111  14.2854440  28.3812666  32.6801658
  22.9384136   1.3038041   2.3746480  23.1169963   0.5246836   1.8480448
  23.0375719   1.0089427   3.2798862  65.6707716  74.3729019  61.9957829
  65.4523373  73.8177443  62.7443266  66.4071512  74.9042654  62.2984791
  73.2815695  68.3779669  19.3295658  72.7979469  67.7663374  19.8847675
  74.0978956  68.5373640  19.8033106  24.5946336   2.6630631  16.5587699
  25.4548931   2.6994753  16.9769311  24.0462041   3.2418400  17.0883679
  24.7753716  16.4296567   2.6118916  25.1288056  16.0760355   1.7956391
  24.2525077  17.1837986   2.3396502  78.7322569   7.0097762  37.9735589
  78.1508493   6.7158979  37.2722507  78.6487770   6.3386178  38.6509132
   9.2035425  54.9979019  63.3035755   8.7080532  54.5060825  62.6487207
   9.0634561  54.5181847  64.1199541  11.2388670   8.1128263  31.9036007
  11.2612665   7.3498672  31.3259983  12.1234632   8.1653154  32.2654915
   0.6534795   2.7273512  14.1922748  -0.1867589   2.5845811  14.6279895
   0.7529466   1.9734715  13.6108935  32.9560184  -0.2110757  50.1750183
  32.0507407  -0.0823750  50.4581070  33.3144951   0.6740151  50.1091337
  64.9473524  74.9342680  21.9166183  65.2391481  75.3288126  22.7384591
  65.7389069  74.8839808  21.3807583  37.8285980   5.6670558  55.3649950
  37.9591990   6.5109146  55.7975197  37.5474262   5.0794202  56.0663223
  10.4694712  27.3395181  23.9259076  10.1649380  27.7215433  24.7490406
  11.2577832  26.8521571  24.1652250   0.8958559  22.7733397  27.5850677
   0.3565851  22.0611906  27.2411776   0.3570867  23.1737328  28.2674503
  62.6974916  14.4309032  30.5911541  62.9349756  15.2084661  31.0963535
  62.9784298  13.6960185  31.1363602  41.2765932  12.3550165  17.0306230
  41.4662170  12.1947408  16.1061847  40.5199003  11.8000984  17.2196174
   6.3315994  67.8186131  15.4545283   6.4427465  68.0834007  14.5414209
   7.2159022  67.8423977  15.8201432   8.7134522  67.5275326  65.7924509
   9.6365565  67.3495913  65.6123209   8.3544177  66.6817570  66.0607672
  68.9305162  19.5619845  50.9214306  69.0767765  18.9401531  50.2085733
  68.3440876  20.2202249  50.5485296   1.3270263   1.5958458  20.1858807
   1.6573174   1.1106781  20.9420228   1.6984680   2.4726719  20.2830338
  64.0698576  15.5464280  35.2474070  64.2019987  16.4021504  34.8393488
  63.1281090  15.3903174  35.1769042  38.8324046  54.1336012  29.5489383
  39.2764807  53.8358355  28.7549853  39.4160533  53.8735914  30.2616644
  43.2323217   7.8615761  37.6103091  42.8568029   8.6241829  37.1702528
  43.3944654   7.2342360  36.9057631  35.3791666  37.4988031  68.1633854
  35.0488567  36.8146777  68.7457085  35.7614160  38.1500483  68.7515974
  71.7661285  65.3856611   6.2677050  71.0488462  65.5686092   6.8745530
  72.5560522  65.4485035   6.8046445  21.9468737  15.4090238  37.7002120
  21.4465070  15.0253260  38.4203792  22.5755620  14.7295618  37.4566674
  60.4234028  21.2522054  42.5867701  60.3243828  22.1763420  42.3578596
  61.1682081  20.9545350  42.0643806   8.6649507  22.3286128  40.9803772
   9.2256820  22.8613853  41.5442610   7.8235424  22.3016930  41.4359426
  41.0484791  21.0502005  18.1428838  41.8695974  20.6498957  18.4288204
  40.6985760  20.4408741  17.4928689  35.5611134   4.1389236  38.0514312
  35.7290721   5.0143552  37.7026582  36.3413763   3.6351103  37.8199291
  19.7252977  76.8788242  48.8161325  20.3158569  76.4480114  48.1981754
  19.1053617  76.1955070  49.0710592  77.2753334  70.3360939  45.3742838
  77.5824976  69.7450829  46.0617352  78.0081558  70.9341383  45.2274942
  12.6966739  70.1640558  19.9702549  12.7705479  71.0003757  20.4299760
  13.5454607  69.7419643  20.1030326  33.5449171   8.5328048  58.8337851
  32.8024626   9.1334724  58.8985109  33.9775443   8.7741303  58.0147457
  32.6208425  36.6398287   5.3508914  32.7990794  35.7279968   5.1206183
  32.5401139  36.6346145   6.3046664  36.6241455  33.6707139  23.2910991
  36.4327407  32.9171467  22.7327704  35.8784294  33.7213039  23.8890815
  15.7171702  70.8144236   6.6461319  15.3884196  71.6912699   6.8443495
  16.6310608  70.9519434   6.3968861   7.0620579  30.2655840  30.0282907
   7.5005710  30.0247765  30.8443499   6.9902229  31.2192845  30.0673771
  15.4558182  40.8576870  18.4091496  15.7400501  41.7693710  18.3437169
  15.4787326  40.5344296  17.5084782   7.2520399  17.0527720  36.3600039
   7.0400220  17.8979981  36.7560768   7.1563590  16.4228082  37.0743036
  81.0199642   6.8226415  21.7437625  80.0747490   6.6998321  21.6559267
  81.1134148   7.6926595  22.1317935   5.6048578  64.0808535  41.2516785
   6.3525897  64.4021845  40.7478189   5.3054571  64.8425198  41.7481232
  74.1724777  19.7461212  10.4684889  74.0091276  20.5990052  10.8711517
  74.9914694  19.4475138  10.8638561   0.4451550  43.4654808  26.7873240
   0.2661489  43.1381321  25.9058285   0.3636805  42.6953745  27.3499346
  52.5460434  13.4528160  26.2030387  51.6379738  13.7101448  26.0435939
  52.5176191  12.4978292  26.2615514  32.2763348   2.8753144   5.5217624
  32.2769523   1.9800760   5.1829714  33.2025051   3.0899650   5.6329495
  44.2039394   5.7315671  35.5408835  45.0027609   6.2025809  35.7780790
  44.2154837   5.7070863  34.5840669  26.3243699  32.3888755  13.2163811
  26.3354492  31.5577412  12.7416968  26.7681599  33.0040598  12.6325738
  13.5845029  63.2753181  18.8671613  14.0915680  63.3563423  18.0593550
  13.8200176  64.0507317  19.3765748  44.6615171  16.4334249  40.7301950
  43.7577820  16.1491537  40.5934811  44.7694445  17.1801043  40.1410866
  30.7505536   5.9126341  25.7336044  30.0564098   6.1259878  26.3572025
  31.5359306   6.3175422  26.1016560  75.9618998  60.8795071  32.4758577
  76.8519211  61.2244511  32.4043965  75.4803514  61.3111639  31.7701554
   9.3015522   7.3750162  44.3864250  10.1715779   7.1738201  44.7311068
   8.7093306   7.2107881  45.1202726  53.7060356  64.1258860  62.1132994
  53.6890221  64.9945879  61.7116785  53.6637354  63.5193491  61.3740063
   1.1769526   6.8893617  38.7278771   1.8191011   6.4436436  38.1754184
   0.6861282   6.1807537  39.1440487  16.5505207  39.4440746  54.7190952
  17.5009489  39.3808722  54.8135519  16.2875831  38.5931826  54.3682766
   9.1173446  78.2708025  34.3977594   8.4832549  77.5539160  34.3824553
   9.0625620  78.6577129  33.5239577  18.5620379  39.1851330   3.0323341
  18.6427200  39.3941426   2.1017227  17.7293670  39.5776606   3.2946575
  58.2897377  74.4850397  67.1144676  58.5493946  75.3718472  67.3642302
  58.0553579  74.5557642  66.1891031  47.5949812  64.2333221  21.8805647
  48.1038237  63.5175753  22.2613740  47.7795744  64.9846983  22.4441147
  56.1743021  17.8256261   1.5138990  56.5058804  18.7204671   1.4394030
  55.5368662  17.7465403   0.8042160  37.3788190  53.2175970  19.0424764
  37.9010177  52.6484108  19.6077776  37.2082138  52.6893711  18.2626653
  37.9791713  40.8829689  12.5626349  38.4805775  40.9904432  11.7543828
  37.1961188  41.4176607  12.4316084  45.7886267  24.9331999  44.1617298
  45.9591103  25.8637643  44.3073845  46.3272667  24.7068262  43.4035397
  33.6255479  25.4437232  20.1131296  33.4780407  26.3017821  19.7153723
  33.6779833  25.6209207  21.0523224  20.2026248  45.1436281   8.4367335
  20.2972317  45.1058245   9.3884963  19.8679078  46.0236168   8.2640761
  29.9079394  49.7863817  10.5711079  30.6390834  49.7874737   9.9533218
  29.2212605  49.2874479  10.1286495  29.5892715  73.4246063  48.0109072
  29.4748998  74.0401030  47.2868156  30.5379748  73.3475971  48.1122208
  54.3754625  36.8528748  18.6673594  54.2716074  36.3831735  19.4949007
  54.0173149  37.7236724  18.8396251  56.4514303  12.3063874   2.5975496
  55.6705713  12.8340328   2.7651361  56.7635250  12.0574450   3.4675235
   9.1588622  19.6798015  34.6102571   8.8671625  20.0705385  33.7865639
   8.4401345  19.8436499  35.2208424  42.8892994  69.8645163  66.7812538
  42.8827143  70.7881069  67.0325851  43.5452223  69.4654226  67.3528481
  32.3264790   4.2643934  42.4514341  33.0950046   3.7565053  42.1913385
  32.2684002   4.1426069  43.3990765  30.5071974  73.6320400   8.7714469
  31.4113212  73.5001087   8.4861666  29.9875975  73.0872917   8.1802624
  29.2186069  69.0437698  17.6668632  28.8186550  68.2994223  17.2171772
  29.8005342  69.4333267  17.0143008   2.3424514  20.9615445  66.9228029
   1.4507288  21.2804341  67.0619869   2.9016805  21.6962814  67.1751022
  53.9561129  51.0988522  60.9157848  53.6982822  50.2122021  61.1679983
  53.9721584  51.5869331  61.7390442  15.5611300  69.2187691  19.9930775
  15.8306777  68.4193850  19.5407927  16.0462916  69.2023945  20.8180523
  30.9186649  31.0496497  17.8709614  31.8495250  31.2425923  17.9828024
  30.4979086  31.4504838  18.6315691  39.4153118  16.8321276  18.8007379
  39.0076613  16.3071632  19.4895530  39.6021867  17.6725721  19.2190254
  70.8656073  77.9560852  27.1612167  70.4074621  77.4732876  27.8491378
  70.2666759  78.6649179  26.9265413  14.5580184   1.5444374  36.3125443
  14.0196943   1.3289176  35.5509734  14.9548638   2.3877433  36.0944152
  13.8970113  64.7042751   2.5892070  13.5568929  65.1594114   1.8188824
  14.2363310  63.8767862   2.2480915  29.4176674  23.1046176  40.6533003
  29.8996067  23.7996101  40.2050257  29.5841885  23.2590342  41.5831709
  80.4125214  73.8207150  18.8252962  79.5222664  73.4930754  18.9530373
  80.2961922  74.6722412  18.4038639  24.2547750  24.6711040  21.8200231
  24.1820288  25.3569341  21.1562657  24.6106935  23.9180684  21.3483334
  34.9365592   1.1597847  25.3920865  35.1859522   1.8584645  25.9969664
  35.7685900   0.8183435  25.0644064  21.8788743   6.7380327  21.4395785
  21.6655684   7.2674847  20.6711936  22.5453520   7.2455794  21.9026518
  77.0543623  62.5848246  48.8897800  76.3217831  61.9770336  48.7890196
  77.2393847  62.5833225  49.8289299   4.9471045   3.0766329  50.6040096
   5.4874235   3.3356735  51.3504601   4.0606606   3.3454329  50.8452511
  64.3527460  20.7126331   9.7879100  64.2392349  21.5363050  10.2621603
  65.2307367  20.7721281   9.4113111  65.2394056  68.9418364  44.8630285
  65.4886961  68.3532286  44.1505480  64.6262455  68.4314251  45.3919363
  39.7577214   7.6187813  44.4024324  39.1369033   7.1981937  43.8075209
  39.2446971   7.8108400  45.1873875  73.5814238  40.8598900  64.9006176
  72.9228783  41.5544796  64.9106789  74.0740681  41.0085964  64.0935135
   0.1606642  73.2600784  15.7730758   0.5300077  74.1024876  15.5081904
  -0.3949505  73.4677553  16.5243375  75.3235626  76.9632292  43.2783461
  75.6900454  76.7001390  42.4341249  75.4804945  76.2130690  43.8518143
  77.5643730  76.1994791  44.9939966  78.1248569  76.7169476  45.5721951
  77.0229053  75.6794262  45.5877924  73.3572292  74.2919827  26.4928603
  74.2593288  74.2982292  26.1728477  73.0284357  73.4222651  26.2654424
  36.4990950  76.4440250  32.7032232  36.0270286  76.6714954  33.5042500
  36.1989641  77.0844793  32.0582676  24.2433810  13.1472743  22.1336150
  24.9149394  12.4714994  22.2261834  24.7147918  13.9715421  22.2543859
  12.9698122  31.6575956  33.6995387  13.4485781  30.8406472  33.5594940
  12.0496058  31.4176178  33.5906148   3.2471311  66.5251541  40.1264524
   3.6696929  66.6938305  40.9686041   2.4652430  66.0193253  40.3478575
   0.6137388  54.1646385  64.1965771  -0.2108390  54.6369791  64.3114662
   0.5488474  53.7784290  63.3231592  28.2899857   4.1788876  43.7517405
  28.7480187   4.3457338  42.9279661  28.8394213   4.5903265  44.4188738
  22.1934605   0.7628953   7.5175607  22.0081449  -0.1084176   7.1672702
  22.7147293   0.5991794   8.3035052  69.6107721  74.1374731  11.5274501
  69.8459435  73.2249117  11.6952670  69.5848751  74.2065239  10.5730951
  28.6954355  79.4231796  14.1020966  28.6533952  78.4671116  14.1221261
  29.0931129  79.6630239  14.9390912  24.8650956  36.6756606  66.3747740
  24.0663552  36.6110206  66.8982840  24.6617270  36.2022114  65.5680990
  44.7250271  17.9552901  18.1782413  44.6029377  17.0328629  18.4028602
  44.1878176  18.4294784  18.8128901   5.7101613  18.9741147   4.9415481
   4.9776530  19.4595325   5.3210646   6.4846629  19.3300438   5.3770870
  12.9083192  31.9192457  14.5669854  13.0330873  32.2437000  13.6751366
  12.0178485  32.1852136  14.7962308  36.7253566   6.0094517  20.7367659
  35.8535004   5.6149513  20.7584333  37.3259401   5.2666879  20.7986665
  55.9799623  27.0198441   8.7014031  55.8794355  27.2092438   9.6342772
  55.1467943  27.2852039   8.3119869  82.6385498  19.6438336  22.0868850
  82.7132607  18.8751197  21.5214396  81.9312191  20.1588488  21.6987276
  38.9731717   8.1424892  31.5400028  39.0851974   8.8234198  30.8766675
  38.4682870   8.5654730  32.2345591  11.3797057  57.5437260  25.2902389
  10.9574342  57.0386076  25.9850574  10.7582080  57.5164747  24.5627570
  69.6479511   7.3740202  37.3871446  69.1698074   6.5468305  37.3290920
  70.3756714   7.1888709  37.9807568  31.1791492  74.6585941  20.0841522
  31.5019751  73.9580441  19.5173645  30.2274656  74.6260357  19.9868333
  23.1667018   0.7840130   4.9280941  22.7839422   0.9065111   5.7968414
  23.7209654   0.0087756   5.0177109  32.3536491  22.5223327  12.1676981
  32.1140075  22.3442268  13.0771387  31.5363455  22.8013182  11.7548835
   4.1703698  23.9285874  13.9724255   3.7806404  23.2014036  14.4577551
   3.7341234  24.7077417  14.3171597  37.4535704  29.7428751  20.4524398
  36.7928481  29.1478276  20.0980473  38.1951094  29.6620250  19.8525953
  58.1079292  49.2663860   2.9925489  57.6428843  48.9453077   2.2199720
  59.0191936  49.0125704   2.8462583  37.3298764  14.6754515  20.4205298
  37.1904325  15.4616857  20.9483767  37.4686575  13.9781809  21.0614562
  50.5566835   6.8813705  18.7808025  50.1458883   6.7060333  17.9341996
  51.2839508   6.2607592  18.8272464  74.2189980  37.6978588  51.4924097
  74.6950960  37.5251579  50.6801701  73.3895493  37.2317457  51.3875866
  48.4959364  33.3267307  63.9949512  49.2594481  33.3663082  64.5708990
  48.0679989  32.5008821  64.2209435  35.3684640  32.9370332  15.9934592
  35.0515056  33.5800672  15.3592050  35.4058623  32.1156168  15.5034482
  67.8104401  53.1193542  68.4967566  67.7328348  53.5087729  67.6257992
  67.3448753  53.7258482  69.0726423  14.8653078  49.1146755  63.5705137
  14.1610193  49.1410017  62.9228115  15.1756108  48.2093954  63.5502625
  32.2240591  45.0949144   7.0213610  31.7219806  45.4483128   6.2870187
  31.5748096  44.6420431   7.5595170  29.6240878  12.2901857   4.0776998
  30.5689144  12.2451413   4.2243573  29.4475031  11.5987766   3.4397334
  32.5525260  12.8799558  36.3380241  32.8648281  12.9698253  37.2383690
  32.0312095  13.6681247  36.1855412  15.9561718  19.2875767  22.3579860
  16.0492086  20.2331161  22.2416544  15.0143802  19.1296828  22.2921824
  28.2769442   6.6269928  39.5589399  28.7438512   6.1209905  40.2239180
  28.5696411   7.5282162  39.6944332  29.8670673  15.2213132   0.5023061
  29.7717810  16.1578441   0.3289207  30.3662157  15.1783013   1.3179249
  45.9077358  16.0986328  60.8839178  45.0378275  15.7033205  60.9406900
  45.8077240  16.8073976  60.2483988  68.6864853  23.1687522  40.7861757
  68.7491035  23.6935639  39.9881244  69.5316935  22.7236032  40.8470297
  82.6950264  61.6990280  40.9777260  82.1261406  62.4641180  40.8926582
  83.4942532  62.0384312  41.3805437   7.6390308  44.5907974  25.3988218
   7.9547834  44.2167950  24.5762324   6.7135417  44.7751474  25.2384615
  15.1028466  77.3918200   5.3591168  14.6634316  76.8103456   4.7386041
  15.1689112  76.8775463   6.1637217  20.9110928  76.3957787   7.6808447
  19.9838531  76.6151953   7.5896668  20.9275007  75.6879377   8.3249927
  48.3949566  79.2681217  30.6127906  48.4828997  78.9482450  31.5106654
  48.8016987  78.5883665  30.0754499  63.0849075  20.9223413  43.1570196
  63.1513548  20.1907420  43.7706804  62.2945213  21.3901067  43.4266806
  61.7082500   9.7606051  26.5957427  62.3044968  10.1815701  27.2150278
  61.3276100  10.4852080  26.0994625   8.3293670   3.8570827  49.4683504
   8.9239615   4.0223068  48.7366438   7.5825214   4.4330290  49.3048286
  48.8726330  74.4688082  20.3604245  48.8315487  73.8569164  21.0953617
  49.6809578  74.2388535  19.9022079  61.0078955   1.0501178  63.0437183
  60.2680206   0.4517207  63.1473494  61.3311577   1.1877519  63.9341068
  71.1475182  46.8609715  26.8872666  70.7722235  46.7964840  27.7654624
  70.8581305  46.0634899  26.4439797  53.8491917   9.6142220  29.7379494
  53.1661558  10.1181757  29.2955470  53.3741522   9.0552872  30.3528953
  57.9838943  27.4637628  12.4651349  57.5001574  26.8263197  12.9903960
  58.3755779  28.0555081  13.1075132  33.6638808  42.6989174   6.9408786
  34.4936609  43.1413603   6.7621577  32.9995799  43.3770752   6.8182540
  81.0437775  66.2190676  62.2269869  81.5105247  65.4537964  62.5627613
  81.4133263  66.9568777  62.7120686  26.4720941  27.8581285  45.1483059
  27.3152351  28.1361914  44.7904968  25.9133101  28.6316895  45.0734758
  77.9102087  21.8591261  58.2376432  77.5221252  21.0095882  58.4471846
  77.1617460  22.4222016  58.0402040  37.8404951  21.4638495  35.2020955
  38.3611631  21.8264651  34.4854021  38.3704066  20.7429028  35.5421853
  41.8182802  14.1839695  54.2946911  41.6687870  14.9634731  54.8297215
  42.4394321  13.6610508  54.8016024  36.4866900  31.2796998  12.2475588
  36.2812042  31.0804939  13.1609726  36.2531233  30.4834771  11.7703736
  37.6792121   0.3468305  32.0265293  36.9707561   0.6218361  31.4445543
  37.7699661  -0.5924616  31.8661356  24.8947883  26.8690228  10.0989985
  24.4705224  27.1831727   9.3005365  24.6807861  25.9366727  10.1330090
  32.5318170  22.6044297  27.7737355  32.9047394  21.9021320  27.2408772
  32.6691079  22.3185372  28.6768675  44.3307209   3.0684394  17.0739245
  43.4258986   2.7681679  16.9881082  44.5558739   2.8924042  17.9874611
  36.6401887  37.3662758   1.8283923  35.9290266  37.7960896   2.3035148
  36.2189674  36.6346693   1.3772199  27.0684600  69.0710258  49.8459339
  26.3847232  68.4091711  49.7425985  26.7387056  69.8325539  49.3688869
  42.3177242  78.8287115  62.1625376  41.9443083  79.5777416  62.6270294
  43.0781317  78.5767937  62.6865149  70.4805231  53.8478851  65.9152269
  69.8798513  54.5928812  65.9355116  70.1695824  53.2704639  66.6124582
  26.4428973  75.4134703  44.2146587  26.0525417  75.7681608  45.0134420
  25.7985067  74.7831678  43.8926172  12.8153217  28.7358332  65.9936810
  12.7967024  27.7835870  65.8982182  12.9489720  29.0631509  65.1041651
  17.5072396  75.2174807   4.5604658  18.0319345  74.9392605   5.3111458
  16.8533111  74.5263290   4.4559738  58.0961132   8.2896119  23.7518263
  58.3180285   8.2080036  24.6793628  58.7989092   7.8266573  23.2957745
  41.7649698   9.7325140  15.5342913  41.8211269  10.4561186  14.9102116
  42.6624203   9.6144795  15.8455479  27.7513576  65.2912998  11.3413274
  27.9711342  64.4240856  11.6817248  27.4851084  65.1327085  10.4356825
  74.7987556   4.0482587  26.3278270  75.2533436   4.8787883  26.4685440
  75.4047060   3.5303390  25.7979035  52.1589565  16.8544650   7.6489294
  51.6577578  16.0555971   7.4851006  52.8016520  16.8835747   6.9401795
  20.1074934  12.6617122  64.5860672  20.0124002  12.2242117  65.4321098
  20.6874442  13.4023166  64.7632504   4.9843791  73.8512707   4.5483381
   4.2180091  73.3813763   4.8771310   4.8130208  74.7683764   4.7623315
   4.5509902  51.6586542  68.1599236   4.0508413  51.5926409  68.9733839
   4.1672698  50.9937286  67.5882006  37.7729702  24.3269253  27.0389700
  38.1802726  23.9271116  26.2705374  38.3847618  25.0136065  27.3043180
  33.2505918  35.9130335  24.3773580  32.4844980  35.9479403  23.8045454
  33.7478590  36.7016864  24.1605973  74.6569204  65.3810310  17.6641774
  75.5037212  65.1021290  17.3157954  74.8354769  66.2236691  18.0816782
  60.2223444  21.0773706   2.7449062  59.8378325  21.8350029   3.1857914
  61.0325813  20.9065485   3.2250851  74.8165035  16.4170206  48.4652853
  74.8436165  15.5245721  48.8102961  73.9573574  16.7486918  48.7262344
  25.3216839  75.9727573  19.1973007  26.2201405  75.8110142  18.9094663
  25.0179315  75.1250935  19.5219934  19.1045654  70.3935385  64.7967958
  19.8711014  70.8252096  65.1740408  19.3243134  70.2803612  63.8720608
   6.5175587  55.5545998  55.0131083   6.5003818  55.9782743  55.8712673
   5.7337576  55.8793688  54.5699263  73.0801678  11.4420354  55.2995110
  73.1145334  10.9630859  54.4714642  72.4586296  12.1522522  55.1397896
  44.2906713  66.3799906  55.7149124  43.6466885  66.5133572  55.0194073
  43.9471197  65.6440878  56.2215281  28.3444834  39.0871716   3.6572036
  28.2468057  39.7275972   4.3618643  28.6922312  39.5914984   2.9217046
  53.5984707  51.4588308  66.6204786  53.1572199  50.8603001  67.2232151
  54.5285702  51.2551212  66.7187309  33.5498762  56.7609882   7.6958913
  34.0235949  55.9661436   7.9409343  33.8628292  56.9641876   6.8144143
  78.9015579  49.8345852  59.0445328  78.9031935  48.8934278  58.8700247
  79.3913651  50.2142906  58.3150482  37.6670361  77.7012920  56.7318106
  38.6121821  77.7318525  56.5834999  37.4531984  78.5618830  57.0922089
  18.5622430  30.5877423   0.7564571  17.7296495  30.1165199   0.7253108
  19.0812802  30.2039051   0.0497039  67.2247744  74.3563843  15.1245522
  66.8181086  75.0052452  14.5502388  67.3265362  73.5797977  14.5742929
   9.0171808  54.1887474  20.2173877   8.1495875  53.7898207  20.1512671
   8.8585252  55.1264620  20.1089716  39.3124199  23.9274716  39.7725987
  38.3934093  23.9496732  39.5058370  39.3659973  24.5483851  40.4991150
  29.4477916  16.7947721  33.6800790  30.3553152  16.6034484  33.4433770
  29.5116210  17.5027335  34.3211317  15.2595234  69.8374844  36.8143916
  14.8007703  70.4818058  37.3534942  16.0086703  70.3141594  36.4569139
   5.4917347   2.9814106   8.9107919   5.7306433   2.3493011   9.5887244
   4.5768949   2.7834928   8.7104714  49.2767191   2.3453642  38.8816881
  49.9496222   2.9292688  38.5317016  48.5177851   2.9115176  39.0221334
  53.1734419   5.7316524   0.8342738  53.2279444   5.6310314  -0.1160611
  53.6692667   6.5291983   1.0195081  32.1644640  17.9359221  38.1825495
  32.0303321  17.5545478  39.0501857  32.4353361  18.8373804  38.3564305
  10.8907270  32.0340943  39.6998477  11.4180887  32.1138644  38.9050150
  11.5210414  31.8079138  40.3837919  27.2372508  46.1207151  21.2847948
  26.8766046  47.0025873  21.3767815  26.9008040  45.6440067  22.0436001
  41.6100216   9.1954839  43.4810448  41.0428715   8.4904188  43.7932301
  41.1397171   9.9983728  43.7055874  47.0040083  18.1443167  44.1771555
  46.1350536  18.3556139  43.8358307  46.9460869  18.3338451  45.1136160
  21.7819142  29.8365998  27.5101376  22.1698666  30.2849531  28.2616067
  22.5318956  29.5162678  27.0089912  29.3221998   3.6406830  20.4800320
  28.9238191   3.6796942  21.3495183  29.9173951   2.8922459  20.5226445
   4.2370713  39.6917892   9.6258980   4.4113418  40.0105333  10.5114853
   3.8152555  40.4290867   9.1846550  33.7671900  65.6946993  33.9880896
  32.9413795  65.2993870  34.2673659  33.5260105  66.5751982  33.7003565
  69.5825768  15.1151419  46.2493944  69.1173172  14.8257327  45.4645300
  70.5018330  15.1476967  45.9845686  35.9160328  45.4150391  13.4978724
  35.3678584  45.5695724  12.7285492  36.4579582  46.2009668  13.5676026
   2.4562995  72.4751997   5.5778039   2.2738938  71.7395878   4.9931347
   1.8272519  73.1486225   5.3188980  50.5029058  49.6630859  67.7819490
  50.0219297  49.2810249  68.5160589  50.3762913  49.0428925  67.0639229
   4.7251219  35.8005476  31.2062716   4.1695058  35.7178593  31.9813108
   4.8887762  36.7404056  31.1280608  59.7829294  38.1659865  57.0240498
  59.8986673  38.7136030  57.8005505  58.8941097  38.3585644  56.7254734
  16.4752650  48.5192823  14.9022639  16.1905551  47.6085424  14.8265994
  17.0911074  48.5176134  15.6350434  62.7803993  40.7540369  43.1708479
  62.9350233  41.6337013  43.5151005  61.8774462  40.7761526  42.8539515
  67.6799250  15.3847170  16.8094802  67.3768330  14.8903787  17.5710547
  67.9690504  14.7155273  16.1891389  13.8654375  25.9022784  40.2848101
  14.3878722  25.9398532  41.0859823  13.9734077  26.7665052  39.8877144
  43.1932688  23.1874681  18.1003213  42.2590446  22.9875922  18.1595528
  43.3028078  23.9787531  18.6276746  12.6032269  16.4242041  47.4018669
  11.9374096  16.6350925  46.7473078  12.1040344  16.1667836  48.1769609
  46.0494566  31.9269419  15.1084495  46.1627293  32.8118253  14.7614861
  45.5668688  32.0501399  15.9258628  53.6719608   9.8869401  56.3531113
  53.0814219  10.6084597  56.1365414  53.1080532   9.2303705  56.7619562
  46.4144135  39.6236372  19.5992804  45.4699183  39.6769762  19.4532859
  46.7418909  40.4930115  19.3686688   3.1499049  62.7447939  21.4527106
   4.0391782  63.0927181  21.3865972   3.0749837  62.4497986  22.3602343
  44.1357613   9.5631397   1.9320497  44.5311832   9.5359159   2.8033331
  43.4119225  10.1837027   2.0168145  23.1899238  69.3334866  38.8049126
  24.0846252  69.4992638  39.1019940  22.7052855  70.1206017  39.0535259
  39.2426443  57.0590067  21.0368824  38.5021305  57.6558447  21.1448336
  39.3805909  56.6883707  21.9085670  77.6615047  39.3182874  37.1620297
  77.5526142  38.7457991  36.4026666  77.8241444  40.1841688  36.7878270
  15.6215823  75.5442333   7.6888824  15.0083089  74.8097181   7.6640731
  16.3616240  75.2211142   8.2028502  27.7910233  11.9636273  65.0876141
  27.5208449  12.5543892  64.3845987  27.6915598  12.4810481  65.8867502
  47.0311737   3.8113144  20.0208640  47.7111912   3.5250705  19.4110548
  47.4136877   3.6745194  20.8875847  37.2650743  14.0283597  16.7319310
  36.9082975  13.3336544  17.2854006  37.0269775  14.8390317  17.1817672
  35.6500840  42.0779371  11.9131982  35.6621099  42.7520561  11.2337458
  35.6870341  42.5661850  12.7356827  58.4128237  42.6833534   6.4768559
  59.1396093  43.1405401   6.8999320  58.8093138  41.8952322   6.1055118
  34.6982312   1.1667763  34.1003799  34.3137503   1.7975371  33.4916544
  35.0520945   1.7034508  34.8096013  59.0997648  34.6488476   4.4381154
  58.9594555  35.3727961   5.0483972  58.4308958  34.7705531   3.7642980
  16.2136173  14.2612219  51.0420942  16.8134308  13.5188806  51.1154747
  16.5992665  14.8145175  50.3628540  40.6446171  48.1043005   8.3182669
  40.3528500  48.1929684   7.4109399  39.9946094  48.5886621   8.8273007
  36.4389992  26.6031432  17.1533680  37.2888064  26.6441488  16.7147601
  35.8550310  26.2056327  16.5074599  63.7341785  42.5041151  41.0027695
  64.5849705  42.6958752  40.6082916  63.8531256  41.6546059  41.4275265
  17.1269441  29.2732906  42.6711321  17.0604193  28.6919379  43.4286499
  18.0077195  29.6434426  42.7299070  43.0990791  14.2233455   0.8587880
  42.2223043  14.4531357   0.5510549  42.9485464  13.5851002   1.5560797
  36.1648941  67.2489834  33.3117247  36.7996836  66.5641403  33.1013322
  35.3510857  66.7759991  33.4856033  31.5351486  10.2949297  59.9702597
  30.7211876   9.8616028  59.7134924  31.2755919  10.8996904  60.6653309
  42.5209236  47.7250767  23.0264592  42.8386068  47.8711939  22.1354151
  43.2682180  47.9386044  23.5851979  44.5500422  32.5832367  21.3885164
  43.8705301  32.6514506  22.0592189  44.7932577  33.4898138  21.2009025
  47.5909090  41.7233896   1.2024840  46.6423082  41.7464828   1.3283913
  47.7045393  41.4996052   0.2787737   8.3129036  34.0512085  62.1663380
   8.5615432  33.3709192  62.7921295   8.5451537  33.6872435  61.3120461
  70.8671808  58.9573956   2.7436495  71.2618876  58.7335873   3.5864705
  71.1328506  58.2477665   2.1587756   2.5989366  38.8207817   1.4685881
   2.5933164  39.4690943   0.7643921   3.3523896  38.2631397   1.2747487
  11.0920489  34.2221642   9.6997869  10.3326118  34.6824694  10.0570059
  11.1029315  34.4612837   8.7729996  61.9495964  29.2803884  16.9666982
  61.8357754  29.8463202  16.2031543  61.0595751  29.1181755  17.2793984
   6.2416971  71.9930983   7.6053393   6.3429630  72.0573950   8.5549939
   7.1358186  72.0326233   7.2659039   1.8765838  65.1597118  25.6112480
   1.0992052  65.5522966  25.2140212   2.5477701  65.8390665  25.5462980
  16.0006261   1.3046855  33.0470824  16.3594508   2.1762565  33.2139349
  15.1349807   1.4695814  32.6733184  40.1219511  39.8867559  15.5671561
  39.7188616  40.7505417  15.6544960  40.2410412  39.5858335  16.4679849
  79.5181417  57.9549694  66.5310860  80.2826786  58.5171080  66.6564512
  79.6649122  57.5367165  65.6827068  37.2100806  73.2642078   8.9323336
  36.8456817  72.3908377   9.0761065  36.9742465  73.4764385   8.0292439
  33.4977341  40.5607843   5.2802020  33.4093380  41.2887383   5.8954263
  32.7082896  40.0364208   5.4145718  59.1115427  58.3382463  55.0525141
  58.7421942  58.3605289  54.1697264  58.5437775  57.7370119  55.5345821
   9.7571433  27.7370882  57.1684313   9.5815772  27.0228529  56.5558290
  10.0265479  27.2992945  57.9758883  47.8045702  15.5184340  28.8559675
  47.0971632  15.2427816  29.4389081  47.3845816  15.6222737  28.0021191
  29.4467807   6.0778642  67.1577358  29.8145533   6.8403780  66.7110300
  29.6833777   6.2015885  68.0769444   6.8659800  33.3386707  21.8831539
   6.2819159  33.1150341  22.6077819   7.0501637  32.5016427  21.4568996
  43.0147600  44.6634340  14.8914838  42.7274036  44.1100979  14.1652083
  43.7253571  45.1897335  14.5250177  14.9979782  23.6861539  59.0205431
  15.4798508  24.3287873  59.5411682  15.0417233  22.8799987  59.5347738
  73.9818192  78.6275482  22.1009159  73.1509876  78.1634760  21.9980335
  74.0943480  79.1026354  21.2775946  70.5836201  15.7652485  10.6962156
  69.8479795  15.7542777  11.3085425  70.8576059  14.8501730  10.6345737
  57.1358013  31.8185449  21.2122846  57.2711992  31.5838289  20.2942371
  57.0304060  30.9796047  21.6609550  31.2740231  15.6913757  25.5805421
  30.6226516  15.0484693  25.8609319  30.8881712  16.5376174  25.8068728
  70.0604010  23.0654454  30.1638317  69.4662428  22.4942636  30.6506205
  70.6332874  22.4647141  29.6872282  18.7320423  72.8095055   0.5417993
  19.4397342  72.1710873   0.4533564  19.0665603  73.4528685   1.1666346
  45.2325678  34.1526008   5.4762256  45.9131575  33.8051224   6.0526705
  44.4357824  33.6940336   5.7428288  84.1060543  76.5644646  44.2859125
  84.6886444  76.4624929  43.5332966  83.5916424  77.3466349  44.0863609
  55.3777838   2.2630763  21.8213105  56.1029053   1.6688988  22.0146680
  54.6177912   1.6894905  21.7231131  28.0334926  23.6513233   9.6128362
  27.5555325  24.2953372  10.1353645  27.4275208  23.4155583   8.9103794
  66.7607450  25.7401133  63.8849878  66.1884832  26.4008904  63.4949589
  66.6941261  24.9881172  63.2965183  62.4961710  21.3385892   1.0659458
  62.7616072  22.1507263   1.4974658  61.6240358  21.1556435   1.4154346
  35.2933502  26.3387251  30.7217407  35.9282112  25.7413912  31.1171842
  35.8209825  26.9225216  30.1767468  21.5516543  21.6751432  60.6111193
  21.6135716  22.4635744  60.0718832  21.4301658  20.9638023  59.9822569
  47.2757578  13.2444179  26.3322687  46.4257574  12.8680301  26.1041093
  47.0668840  14.1049957  26.6955972  14.4498968  67.6334620  53.0160618
  15.2885771  67.6028776  52.5557232  14.2838967  68.5666466  53.1496525
  57.3108435  43.5465813  10.3057313  56.6836166  42.9176855   9.9489391
  58.1678247  43.1719732  10.1020491  40.4388857  30.4883742   0.0919184
  39.9739671  31.0311723   0.7286692  40.3131294  29.5922446   0.4039589
  77.5460339  14.5259297  66.5724325  78.0495453  15.1296163  66.0262918
  77.9672146  14.5714033  67.4307823  15.7206571  57.8221941  38.7455678
  15.1512611  58.5090542  38.3988094  15.1184690  57.1700478  39.1037750
  62.4143648   0.5990332  41.7003250  63.3605194   0.6224781  41.5572357
  62.0742559   0.0833632  40.9691286   0.9575236  16.7705977  24.9654126
   1.7186946  17.2672760  24.6651459   1.2257463  16.4084899  25.8099055
  46.4232063   6.1177742  18.8562274  46.4599562   5.1788372  19.0386522
  46.9332838   6.2259507  18.0535138  40.4056549   7.4439853  35.9712481
  40.6838512   6.5738690  35.6853509  40.3769445   7.9624921  35.1671600
  46.2351084  14.5778394  41.8867111  46.0547400  13.7821579  41.3861227
  45.9042215  15.2874219  41.3360405  63.7006569   8.7940091  30.5257773
  62.9550123   8.2251215  30.3344321  63.7501144   9.3849218  29.7743726
  31.2724972  45.5943823  28.9921021  30.6533909  44.9371719  28.6742854
  32.1341777  45.2233744  28.8021255  23.6538005  28.3011699  14.0281737
  24.1804576  28.0536103  13.2681882  22.8650713  28.6947656  13.6550522
  36.1803555  10.6419230   7.5669473  35.5809617  10.9557676   6.8898517
  35.6676674  10.0044096   8.0638981  41.9570303  58.3624983   2.0988131
  41.6315651  59.1951036   1.7566580  42.3622656  58.5894918   2.9357666
  27.2803283  27.9226613  25.7697988  27.7876759  27.7735806  24.9719238
  26.6879320  27.1725178  25.8206105  37.2781658  17.8401029   8.4005898
  37.8139687  17.2998261   8.9813209  36.6819406  18.3045399   8.9879936
  50.9802580   3.9206064  37.7465844  50.9616756   4.8771259  37.7775240
  51.8779421   3.7065849  37.4924397  27.2000384  78.1289959  17.2374833
  27.0008802  78.8204622  17.8687060  28.1522083  78.1573248  17.1436715
  50.4039955  46.6823435   8.7063032  51.0089588  46.0947180   8.2535899
  49.7061729  46.1093235   9.0239918  23.0720711  28.6081529  21.4503050
  22.2394753  28.4173512  21.8822861  23.0936885  29.5627308  21.3828778
  55.2612352   3.1338388  49.4342899  54.6200800   3.3853489  48.7695360
  54.8874140   3.4466684  50.2580786  28.0396271  37.9781389  21.1100316
  28.9277744  38.2501769  21.3411641  28.0109739  37.0459294  21.3254285
  63.6756659  12.4630225   9.0285760  63.1105423  12.7438676   9.7482914
  63.9085674  11.5602124   9.2451972  76.1230564  77.5727654  57.3756742
  75.7347918  77.4176598  58.2367325  77.0662785  77.5003242  57.5216818
   3.3888027  26.5133071  63.1836319   2.7110779  25.8470249  63.0696630
   3.5886586  26.4940214  64.1195393  78.9601183  40.2457905   1.8613885
  78.7797070  41.0896492   1.4471550  79.8201036  40.3569365   2.2667231
  38.8509107  51.8269396  14.4646394  39.2816973  52.6783848  14.3892086
  39.3454933  51.2554121  13.8772917  33.4053516   9.1599333  36.8486977
  33.4562182   8.2208264  37.0268059  33.2712221   9.5597649  37.7079844
  64.5648813  19.5330811   0.6301700  64.0737009  18.7981200   0.9973288
  63.9718246  20.2803564   0.7082233  43.0065584  10.8476484  29.5762229
  42.6962519  10.2893758  30.2891541  42.9383945  11.7376435  29.9219036
  27.2992444  14.3217373  63.8153076  27.4298763  14.4471896  62.8753996
  27.2815466  15.2085543  64.1751337  75.8897352  39.6440911  53.1752682
  76.1711121  39.8115754  52.2758198  75.3738546  38.8397694  53.1190014
  40.5024958  35.6530857  19.7243464  41.3537216  35.4746723  19.3245792
  40.1377630  36.3676834  19.2022812  57.1185780   5.4098862  38.8856149
  56.7235613   4.5615107  39.0867424  57.4547672   5.3123772  37.9947162
  32.3376560  59.9274731  22.5864577  32.9108334  60.6246471  22.2676373
  32.5455880  59.1746235  22.0330930  46.7663002  53.5495090  36.0744047
  45.9350872  53.3317327  36.4961696  46.6098404  54.3984509  35.6608176
  31.7558718  47.9351854  33.6986303  31.1179686  48.6221361  33.8920450
  31.8635845  47.4681759  34.5272040   4.6761498  75.3518200  40.9129429
   4.3615824  74.7719193  41.6064835   4.7826132  76.2013340  41.3409853
  39.8606300  27.2769856   8.0949652  39.3032217  26.7921853   7.4862796
  39.7798085  28.1898379   7.8185654  31.7951369  36.6603351   8.7791353
  30.8716154  36.4188647   8.8500768  31.8399525  37.5449634   9.1419804
   6.9071835  10.5237293  17.2744167   7.0188046   9.5815194  17.4009585
   6.5989143  10.8443654  18.1219983  39.9061632  25.7262254  21.4503241
  40.1919317  24.8919249  21.8224955  38.9503002  25.6887674  21.4842987
  63.3172131  77.9573202  58.8238430  62.3719645  78.0456638  58.7016535
  63.4085083  77.3253727  59.5369625  74.5765781  46.5671158   4.5047233
  74.6287680  45.8944130   5.1836753  73.6414671  46.7557096   4.4257915
  58.7825298  11.0633647  12.1528804  57.8954124  10.7280731  12.2826111
  59.3462133  10.2972031  12.2600770   3.9187822  12.2097933   2.0628724
   3.6335680  12.7976203   2.7624041   3.3286780  11.4587498   2.1256530
   5.1218873  57.0644474  21.1954951   4.5325583  57.8171539  21.2440109
   4.5623776  56.3398123  20.9160614  48.3378839  77.0555878   6.5283197
  48.8980055  76.7723179   5.8056486  47.9786158  76.2434196   6.8854481
  68.2218695  78.1229591  68.0073833  69.0558815  77.9730225  68.4525442
  68.1318140  79.0755749  67.9819489  14.0013337  14.8693895  30.6505108
  14.1056371  15.0213170  31.5898037  13.5018587  14.0548193  30.5936527
  54.2780495  18.9573300  27.8369784  53.5009003  19.4924760  27.9978919
  54.1928339  18.2225108  28.4444404  65.1555252  79.1096687  52.4239826
  65.9683323  78.9422750  51.9469547  64.7006607  79.7678995  51.8985653
  29.4926405  12.6487219  17.6367688  29.9696541  11.9044650  18.0038786
  30.0423622  13.4068513  17.8349578  38.2706046  11.9890082   6.2750357
  38.3188963  12.6632118   6.9527888  37.5223970  11.4482486   6.5280080
  36.3384724  30.1662612  46.2094355  37.0894337  30.6227589  45.8300924
  35.9134960  30.8222795  46.7619467  74.8345613   1.0399568   9.1363645
  75.3292370   0.7572761   8.3671969  74.0047836   1.3605681   8.7829423
  48.9753199  29.3866086  13.8427055  48.1948185  28.8859558  13.6052263
  48.7169647  29.8771930  14.6229696  57.1728230  22.3609591   9.9250394
  57.2254753  21.5603161   9.4030935  56.6927290  22.9767036   9.3713230
  41.7167664  15.4484248  20.2926278  41.1846542  14.6553254  20.2287412
  41.5450191  15.9184551  19.4766581  57.4920082  64.0801334   5.9420818
  58.2019138  63.4519386   6.0748529  56.7662668  63.7348270   6.4619792
  64.6286058  77.3921967   3.8465130  63.8289499  77.6173830   4.3219855
  65.3095245  77.3722410   4.5189613  60.8061314   5.4070699  18.2756996
  60.9622478   5.4965448  19.2158341  61.2490129   4.5931208  18.0357599
   4.8150483  57.9654932  66.8656683   5.2834189  57.2012520  67.2015238
   4.6818787  58.5213041  67.6335049  46.3745928  72.6481342  39.8713446
  45.6971407  72.8102922  40.5278492  46.2721634  73.3606672  39.2404389
  36.9780755  20.3311944  27.0090818  36.6580820  20.8623719  26.2799120
  36.8870592  20.8971119  27.7756882  68.0915451  11.9448388   8.1500047
  67.7564001  11.0986972   7.8534335  68.2989693  11.8095541   9.0746152
  51.4601517  49.2939997   1.4518934  51.6429996  49.4571686   2.3771904
  52.2690296  49.5369720   1.0014360  59.9568748  54.7970295  62.7447176
  60.4404259  54.3005133  62.0845032  60.6180000  55.0415468  63.3922958
  37.2252798   9.6204793  33.1519389  37.9184389  10.2350187  33.3929825
  36.5761495   9.7057062  33.8502216  48.3433533  32.6964378  18.2476699
  47.4987459  32.5295854  18.6660409  48.3414984  33.6372185  18.0711436
  30.4045653  54.1420794  43.2238674  29.9894333  53.5854483  42.5650358
  31.2403059  54.3949080  42.8316355  22.3321748   9.0309626  58.8952303
  22.2647047   8.1026846  58.6716700  21.4248419   9.3219066  58.9864874
  23.8617897  74.4639301  13.4823549  23.2110596  74.8964357  12.9294324
  24.6845174  74.9073076  13.2755458  41.6821575  50.7400608  42.1040726
  40.9985161  50.0711298  42.1414900  41.2092400  51.5697384  42.1690273
  79.2767143  70.1858187  30.9144568  79.8050022  70.1637554  31.7123628
  79.7363138  70.7979584  30.3397536  51.4746523  20.6670427  22.3816705
  51.0665131  21.0164142  23.1738782  51.3315058  19.7221243  22.4352455
  29.1074061  29.5880508   2.3574816  29.8040128  29.3490052   1.7460653
  28.7029648  30.3635049   1.9684727  73.5073948  44.3253183   9.4234830
  73.9310217  44.8978376  10.0630069  73.7096882  43.4393597   9.7241277
   6.4065486   8.6001706  64.4043207   5.6264198   9.1293496  64.2381859
   7.0725119   9.2330563  64.6729803  33.2231951   9.3607068  19.3635046
  33.7960076   9.3019432  18.5988724  33.6626506   8.8362235  20.0328541
  23.0020857  18.9446282   1.8056247  22.8014612  19.5903337   1.1280957
  22.4403524  19.1873634   2.5416726  28.0217338  21.4451551  31.8622494
  28.7965202  21.1823964  31.3653636  28.0906248  20.9627843  32.6861477
  37.8309274  21.8303537  14.2713785  37.7053308  21.0170674  13.7824786
  36.9748592  22.0110679  14.6596098   6.8723613  75.4705191  48.1818628
   7.8138047  75.5920982  48.0588436   6.5405250  75.2690697  47.3069143
  69.2867851  58.5583973  23.7537479  69.6995831  57.9734659  23.1183863
  69.6369696  59.4244003  23.5448289  27.6520109   8.3796829  62.5852299
  26.8317485   8.1034869  62.9940319  27.6213837   8.0005908  61.7068338
  60.6091881  32.3477387  21.4461493  60.9962320  32.0070004  20.6397200
  60.1298904  31.6053557  21.8140769  51.1171770  50.9546947  11.6335154
  50.4767847  50.2824974  11.4005303  50.6548548  51.5225315  12.2499967
  14.5055616  75.9714794  20.0077343  13.8742709  75.6878901  20.6690073
  13.9767802  76.1369610  19.2271972  54.5057535  33.7565684  19.0831614
  54.1879654  34.0855622  19.9239981  54.0760279  34.3104219  18.4313858
  40.4846954  51.6397619  31.8635464  41.0595942  51.2290859  32.5093532
  39.6660113  51.1475277  31.9243312   2.6454192  45.0566816  52.0040703
   3.5637677  45.1012611  52.2703028   2.4719746  45.9064054  51.5989494
  26.2804651  78.6037636  25.1942182  27.1677804  78.9464617  25.0871587
  26.3972473  77.6569748  25.2728581   2.3733474  56.0581875  67.2070599
   2.9202050  56.6549778  67.7179575   1.5856439  55.9411669  67.7381516
  33.6624217  41.7579412  27.2581530  33.3531189  41.1298513  27.9108930
  33.3612776  42.6071167  27.5813317  36.3272858  56.2283182   1.8797049
  36.7190957  56.9658327   2.3474576  37.0747662  55.7279396   1.5524033
  40.4825211  32.6616669   6.8666887  40.4563379  33.0851912   6.0086834
  40.2642202  33.3591413   7.4848366  81.9842815  16.6384888  12.0514083
  81.7793751  16.3106084  11.1757708  81.8151283  15.8956909  12.6309514
  52.2304535  14.6857214  55.3172064  53.0305958  14.4371867  55.7800531
  52.4666452  14.6429455  54.3905926  48.5498571  45.8096647   5.2265853
  49.0254021  46.6184759   5.0370699  48.7144470  45.2513838   4.4666752
   1.6580220  20.1005363  57.9865694   1.5687853  20.2163196  58.9325428
   1.7341436  19.1538572  57.8672647  44.9952507  64.0793943   9.0936720
  45.6495619  64.0914631   8.3951318  45.2493191  63.3408833   9.6470970
  46.2781668  30.1725364   9.3839741  45.3449917  30.0735712   9.1952348
  46.3053989  30.6375170  10.2202070  14.9985921  78.2947302  40.4715681
  14.8435974  79.2192459  40.6651592  15.4368603  78.2984209  39.6206021
  59.5693636  54.9081278  10.9620631  59.7075510  54.0778208  11.4178348
  60.4478836  55.1913261  10.7086062  71.9314575   0.9433066  52.1657991
  71.4059639   0.3979051  51.5804625  71.7379904   0.6097990  53.0419159
  59.3133450  17.4753141   1.6412434  59.1533375  18.2962716   1.1757775
  60.2616978  17.4534595   1.7692353  31.5572786   3.9101759  52.6431799
  32.1619701   4.6181834  52.4211264  30.7903075   4.3546727  53.0042982
  35.4726028  18.5897911  62.4744749  35.5743527  19.0863431  63.2864571
  36.3511205  18.5685766  62.0950127   5.3599441  23.6526084  40.2932405
   5.7611585  23.8662195  39.4508457   5.4072040  24.4667816  40.7943583
  56.0686922  14.0757036  61.5221691  56.2618732  15.0131559  61.5123653
  56.9259739  13.6551845  61.5889692  80.4929829  12.8680015  16.4921963
  79.7033453  12.7962399  17.0284402  80.4133129  12.1602941  15.8526385
  41.4411879  39.6338010  12.8771579  41.4432144  40.5335999  12.5506794
  41.0968971  39.7028756  13.7676203  61.9589138  39.3736911   1.0245989
  61.3125181  38.8514328   0.5495680  61.5322161  40.2202082   1.1571648
  83.0935574  76.8338966  59.8364401  83.9521217  76.8322039  59.4132423
  82.9688835  75.9310293  60.1288700  51.3353443  33.4258223  60.6084681
  52.0612621  33.6042833  60.0106192  51.7379332  33.4124517  61.4767838
   5.9086001   9.0691793  56.7071486   6.0803139   8.1940413  56.3594723
   6.7773008   9.4391209  56.8644190  15.7853901  14.0563560  67.2453165
  16.0381937  13.1930053  66.9182873  15.3200769  14.4626236  66.5141106
  48.0690050  58.4603357  23.6575580  47.8207970  58.2255459  24.5517039
  47.3460102  59.0030527  23.3429670  80.9976864  72.9864740  64.0701103
  80.2777481  73.5665798  64.3178892  80.5685329  72.1768093  63.7935162
  28.6515498  32.5815630   8.6346155  27.8892851  33.1543088   8.7191421
  28.2927179  31.7490458   8.3273941  47.2967339  21.4315677  17.1730947
  47.5057745  20.5275869  17.4083734  46.3721418  21.4072132  16.9265831
  74.1495371  67.1232843  60.9232712  73.9090300  67.6554918  60.1648903
  74.7788191  66.4886045  60.5806112  67.7788067  19.4180703  10.6863332
  66.9313955  19.5054340  11.1227882  67.6059866  19.6612990   9.7768247
  61.7476559  68.6690664  16.3504589  61.7829323  68.4985113  15.4092371
  60.8844709  69.0580988  16.4911854  30.3923488  27.1426892  14.4107354
  29.7468400  26.7612195  15.0057399  29.9505687  27.9037261  14.0340638
  22.2175527   4.2610607  67.7541780  21.5433836   4.1335094  67.0867491
  21.7990899   4.8129430  68.4148932  77.2117949   1.9601665  62.7689409
  76.5129137   1.9468777  63.4228706  76.7544985   1.9230092  61.9288635
  17.7086794  24.4316983   5.6788939  17.7240312  25.3330541   5.3570914
  17.0800042  23.9854956   5.1115304  69.4379902   2.9242882  68.4200478
  69.3852758   3.8038918  68.0462170  70.0818586   2.4709506  67.8758478
  33.5070801  34.0827131   4.6915379  33.2698965  33.4486103   5.3682131
  33.3237934  33.6327338   3.8668212  23.8125992  73.6185646  59.4955969
  24.5825171  74.1855240  59.4506693  24.0171766  72.8899431  58.9095163
  81.0338497  72.5384617  53.6876059  81.8848133  72.9089785  53.4535217
  81.0131645  71.6888952  53.2471037  17.2599947  49.5661831  28.8643146
  16.3856375  49.1768551  28.8518167  17.1018505  50.5102253  28.8637590
  68.5565948  77.4967909  65.1220226  68.1579781  77.6756001  65.9737015
  68.3527374  76.5774250  64.9504375   6.5966487  55.2825356  23.7157798
   6.5287614  54.5079565  23.1575203   5.7506227  55.3319359  24.1607881
  29.7141004   7.2058356  43.2832289  29.4623828   7.8084511  43.9830303
  29.6190214   7.7181339  42.4802685  83.6072254  48.1016302  10.6463599
  84.4056320  47.7519751  10.2507293  82.9546547  47.4133825  10.5171812
  64.8660612  78.1303215  20.5619669  65.5991411  77.7148962  20.1078176
  64.2169809  77.4332190  20.6567097   3.9993459  70.3133488  61.2742376
   4.0538797  69.8290968  60.4503727   4.8938185  70.3077650  61.6149998
   7.3103106   9.0892220  36.7078161   7.0604914   9.7943312  36.1106205
   6.4833653   8.7936187  37.0886207  67.5475979  -0.0218014  29.2701554
  68.2407284   0.2181556  29.8851490  66.7526054   0.3565625  29.6457386
  44.6657896  18.4768689  63.7208366  44.8318005  17.5377131  63.8024330
  45.1542568  18.7395453  62.9406881  59.6080589  31.6014123  12.3090935
  60.2293348  30.9029198  12.5149083  60.1556253  32.3712349  12.1549034
  68.7910080  21.2128973   3.0129871  68.4657049  21.7216253   2.2702840
  68.7515736  20.3037286   2.7161896  19.3165112  76.4758825  62.4534225
  19.2247903  76.0589123  61.5967131  20.1809192  76.2032604  62.7611732
  65.6167650  58.9430714  25.2554655  65.2754784  58.4508371  24.5088339
  66.4028168  58.4644890  25.5187368  35.4015565  43.9951134  17.1960735
  34.7815108  44.7208309  17.1246254  35.3160167  43.6952162  18.1010461
  61.9463730  41.4149761   8.0284345  62.6423693  42.0700693   7.9767287
  62.1260738  40.8168411   7.3030549  41.2443876  49.6377230  37.2053385
  40.9064436  49.1329479  37.9450870  40.4619312  49.9571657  36.7559409
  22.4588180  42.5627375  14.1164649  21.8816066  42.0445776  14.6773279
  21.9434881  43.3379602  13.8935471  27.4701691  12.6965666  34.5569372
  27.3057938  12.3500049  35.4339242  27.4169040  13.6466050  34.6609640
  63.8379431  67.2950935   1.9453530  64.5500231  67.9060698   2.1347940
  63.5636616  66.9732666   2.8040883  57.2767162  49.0751600  17.2757328
  57.5814342  49.1803026  16.3744438  56.3485289  48.8572121  17.1908665
  40.2470827  72.9838800   3.5623714  40.7127571  72.1900892   3.2991615
  39.8328424  72.7538967   4.3940836  35.5833054  59.8354340  15.3827250
  35.3694510  59.2011452  16.0669589  36.3762069  60.2693701  15.6977439
  76.5831614  37.8387403   4.7060910  77.2859383  37.5678015   4.1153884
  75.9277773  38.2357025   4.1323996  75.8917761  49.0473652  12.0496356
  76.0235786  48.7385130  12.9460013  74.9434519  49.1488075  11.9682646
  57.8963280  62.0250034  11.7966354  57.5566387  61.8302536  10.9231853
  57.4917936  62.8604984  12.0301497  44.1199780  32.4697328  66.6915703
  44.6545792  33.0362630  67.2478771  44.3443441  31.5813732  66.9685316
  67.3890162  72.7533913  36.3362765  67.3437595  73.5127640  36.9172549
  68.2902241  72.4416733  36.4192986  77.6120710  51.9194365  43.8777208
  78.2021713  52.3237848  43.2417059  76.7661810  52.3387241  43.7199306
  48.6512041  54.7736311  16.9547868  48.4411764  55.6880760  16.7652988
  49.2278099  54.8134613  17.7177882  18.2713020  23.7773490  67.5991917
  17.6382136  24.1138220  68.2333994  18.8722062  24.5073867  67.4502325
  31.1679339  41.5250397  25.6479144  30.2141857  41.5486097  25.5701923
  31.3428473  40.7824898  26.2260604  52.6436853  42.4616432   3.0658260
  52.9709387  41.7043400   3.5512477  51.7806244  42.1907711   2.7527928
  77.1952629  11.8696094  64.3920088  77.2112274  12.6317918  63.8131714
  77.7159119  12.1339393  65.1504898   4.5421028  71.1898279  43.6770391
   5.2733517  70.9284019  43.1174326   3.9382446  70.4478598  43.6442661
   1.7639920  59.3096972   1.7568764   2.4441874  58.6760950   1.9851638
   1.1491428  59.2755079   2.4896953  48.2007217  41.5715122  15.8160186
  47.5186443  42.2137547  15.6197500  48.8233757  41.6551208  15.0938404
  41.7874336  12.9694951  65.2902222  41.0018206  12.8224576  64.7635078
  41.9797516  12.1153402  65.6770897   2.7996549  16.3331187  17.0497596
   3.3334535  17.0397305  16.6864550   1.9080219  16.5372050  16.7676759
  24.1351533   1.6512205  68.3981800  23.7471366   2.4450335  68.7663317
  23.6729622   1.5204795  67.5702190  24.3551016  14.9520159  61.0608816
  25.2759910  15.1822567  61.1841059  24.3232846  14.5475340  60.1939249
  43.8192368  38.4013748  19.5211589  43.3836365  38.9388180  20.1827002
  43.1031609  37.9872465  19.0395355  24.4187927  30.4238153  56.4854956
  24.4108152  30.2599168  57.4285221  25.2938485  30.7697606  56.3099098
  34.6543550  60.0849819  10.7175374  35.3327417  60.2590752  10.0650692
  35.1007056  59.5821333  11.3988221  60.6552744  42.7037859   3.6856845
  60.5496216  42.3148346   2.8174764  60.2163935  42.0923376   4.2770791
  40.5989265   4.6556717  58.9778900  39.9989796   4.5844966  59.7203350
  41.1089325   5.4456496  59.1569471  32.7104092  67.1901464  13.8275290
  31.7729092  67.1421289  14.0146685  33.0937409  67.5670576  14.6195030
  57.6153898  63.0346823  21.5780783  58.0569839  63.1606865  22.4179292
  56.7872000  63.5057497  21.6698861  17.8119886  12.2037554  50.3456259
  17.8005397  11.5333176  49.6625328  18.0754435  11.7346096  51.1372852
  32.7293491  34.1313696   7.8418785  31.8874907  33.9939737   7.4075657
  32.7294230  35.0594974   8.0759883   3.8712189  37.0442796   8.8363850
   3.8560817  37.9972744   8.9247376   3.4920427  36.8776941   7.9734218
  33.4348321  41.1662960  17.4731410  33.8437104  40.8418369  16.6707861
  33.6249828  40.4941511  18.1275833  60.3203821  52.8594971  12.8249323
  59.8039722  53.5042191  13.3085513  60.5014277  52.1698618  13.4635663
  75.1742983   9.9003631   2.6014835  76.1220646   9.9451452   2.4751301
  74.9324656  10.7731628   2.9112715  41.0864305  56.7478609   0.1832996
  41.4140034  57.5183439   0.6472841  41.8019390  56.1142349   0.2362230
   9.1111517  40.1857376   1.0865914   9.2339164  39.8088837   1.9578788
   9.8026055  40.8432484   1.0104275  29.1683936  44.3598843  27.5609112
  29.1081429  43.5548115  27.0466566  29.4852304  45.0168800  26.9410658
  63.0531359   0.9343593   6.8208528  63.4683466   1.2994942   6.0395014
  62.7099752   1.6961537   7.2879100  30.1285124  52.0607948  24.0397096
  30.8668494  52.6494980  23.8831139  29.5117640  52.5816870  24.5540309
  30.1267719  33.3185720  12.4456656  29.6664047  32.7551270  11.8237150
  29.7883415  33.0568099  13.3019245  83.8530827  28.0348873  57.2316790
  83.3458996  27.3585725  56.7826891  83.5339165  28.0142879  58.1338644
  62.9715967  20.2190566  51.5771055  63.4089422  21.0541964  51.7429495
  62.2236204  20.4459572  51.0245895   1.0859958  29.2622757  30.8732200
   2.0307791  29.3396688  30.7404542   0.9889073  28.5304713  31.4825368
  70.8526659  50.5885029   2.2463848  70.5170536  49.8783779   1.6992852
  70.7293987  51.3768959   1.7177318  14.6178102  24.8226070  66.8402100
  15.1715374  25.1922774  67.5279284  14.7533405  23.8773251  66.9058371
  47.2991133  67.1811485  13.3158195  46.8361330  67.1565247  14.1532397
  47.2498083  66.2830496  12.9883826  12.6875651  29.6543145  59.8409510
  12.8974295  28.8440466  60.3053331  13.4095609  29.7702622  59.2232895
  45.8088732  57.9601240  28.1817937  46.5125895  58.0612803  27.5408721
  45.1549435  57.4213362  27.7364635  13.0891991  52.3907566  66.1107874
  13.2777357  51.4620018  66.2453365  12.2663367  52.3997355  65.6218624
  22.0372558  73.8537121  27.4473000  21.3683891  73.2493734  27.7692056
  22.8538156  73.3569527  27.4991655  45.8911514  21.0262799  65.5506849
  45.1329899  20.4437518  65.5049658  46.5507174  20.5238771  66.0290098
  76.1719513  18.5928404  54.6233416  76.7932796  19.1877687  54.2035294
  76.2996817  17.7572119  54.1742945   5.9029174  78.1716871  45.8784819
   6.6766536  78.4991026  46.3371372   5.1801252  78.6955404  46.2239981
  24.5192027   8.7022412  54.1272545  24.8999643   8.7596893  53.2509279
  24.1610694   9.5747870  54.2904615  57.9795647  58.0428982  16.7243350
  58.1711388  58.4240627  17.5812137  58.6223793  57.3405838  16.6254759
  77.7314281  69.3138885  62.3987198  77.0714140  69.1459131  63.0713224
  77.2253990  69.5027685  61.6084719   0.0908614  21.7680049   2.2055054
   1.0248762  21.8574739   2.3948291  -0.3397915  21.9220376   3.0463645
  46.9437504  26.0005713   2.9351151  47.7765703  25.7178974   3.3129182
  46.7649937  25.3621626   2.2446732  72.8526068  41.1681032  23.1403112
  72.6049614  42.0241022  23.4898329  72.1782684  40.9705830  22.4903250
  50.7614231  18.8951457   6.7344791  51.1490011  18.1740785   7.2305417
  51.5030050  19.4570971   6.5097570  62.0835924  78.9027548  33.0805612
  61.7996693  79.3008757  33.9034319  61.2717199  78.7414742  32.5998497
  21.3468051   8.7966537  68.6660480  22.1093297   9.0646440  69.1788483
  21.7099309   8.2688957  67.9548216  48.5660028  26.3720679  49.6924019
  48.6953211  27.3014736  49.8813915  47.7177954  26.3332677  49.2505121
   0.5299143  79.1716480  17.7347243   1.0930642  78.6007309  18.2573581
  -0.1630955  78.5950756  17.4129558  63.9142179  63.9618969  19.3172729
  63.8261223  64.8351192  18.9352405  63.2029772  63.4557867  18.9245605
  27.0282149  64.5290041  30.5881000  27.9494929  64.3686008  30.7924223
  26.8708706  65.4268169  30.8803439  22.1632338  21.8954968  63.4040165
  21.5006495  21.2370300  63.1951237  22.0370960  22.5792885  62.7461815
  71.1936188  12.9341173  52.0473576  71.4828157  12.0768678  52.3599577
  70.8751106  13.3802474  52.8320551  46.1690283  53.3668375  13.8916624
  46.4000893  53.9245844  14.6344686  46.0827112  52.4908113  14.2676461
   9.6888101  59.0791798  22.0029712   9.5473516  58.1513548  22.1910310
   9.1000313  59.2679358  21.2722564  15.6686199  66.1852598  26.9651771
  16.3071764  65.4792118  26.8653131  15.1886368  65.9630299  27.7629614
  23.6482072  40.6213570   3.6345041  23.2454896  40.3645420   2.8049880
  23.9879012  41.5016413   3.4734342  28.6309552  27.8455806  60.4340267
  28.5067821  28.7733459  60.6341791  29.3108368  27.8348064  59.7603226
  66.8662167  36.3609552   0.5822059  66.2260628  36.2743759  -0.1241475
  66.3557625  36.6669869   1.3318807  41.8499994  36.9560051  12.0542514
  41.8348885  37.9075956  12.1566200  40.9377146  36.6885877  12.1658731
  64.1584921  42.6854944   8.8647616  64.9876404  42.5752878   9.3301672
  64.3409061  43.3553791   8.2058108  70.1136732  75.9484148  38.4206128
  69.4297981  76.4383841  37.9640150  70.5748415  75.4774046  37.7265644
  74.8539925  51.0215187  30.5856991  74.8160219  50.1571703  30.9952044
  75.3635311  50.8858919  29.7868228  38.5763049  44.6332216  10.3938878
  38.0729675  45.2630997   9.8780018  37.9333568  43.9784527  10.6661510
  60.8998442  17.7927017  29.4654179  60.5194998  18.1938136  30.2468777
  60.5634069  16.8965793  29.4682646  53.5426950  72.4536419  54.7572517
  53.4575129  72.1817875  53.8434315  53.2228088  71.7049932  55.2606678
  55.5955458  67.7711535  49.1776419  55.1288509  67.0127535  48.8265657
  55.3576517  67.7907419  50.1045990  59.0107393  11.2228215  29.1968822
  58.1149817  11.2103009  29.5340657  58.9110184  11.1363399  28.2488275
  56.6005230  64.1325045  34.0214300  56.0549879  63.5716438  34.5728469
  57.3085546  63.5608006  33.7246490  76.9208241  41.5368366  44.8348427
  76.1042786  41.0382509  44.8049831  77.3777390  41.2966299  44.0287685
   2.4933437  74.5481348  38.1460881   2.6068446  73.8654089  38.8073277
   1.7132075  75.0263453  38.4270334  64.6324921  48.4760857   7.6834971
  64.0707541  48.7977982   8.3886093  64.9464750  47.6274490   7.9956925
  17.2181976  70.9570980  23.7819839  17.7418399  71.1770153  23.0114865
  17.3362339  71.7013836  24.3721867  45.8625078  61.9018841  11.1322677
  45.3722143  61.0809231  11.1754584  46.2571621  61.9910860  11.9997489
  68.5099602  73.5636616  39.8329449  67.7978277  73.9902544  40.3095150
  68.7818718  74.2090797  39.1804600  39.2957020  18.0580795  55.9109497
  38.7996125  18.4768438  55.2075577  39.0566635  18.5485005  56.6974449
  68.0270720  23.2049632  43.3887196  67.1265316  22.9488993  43.5879374
  68.1728697  22.8927708  42.4956846  45.9893465  46.4102125  14.7646654
  45.7525587  47.2077656  14.2912984  46.6757965  46.0098553  14.2310607
  64.1790676  57.5088072  66.6073084  64.1418076  56.5754747  66.8164349
  63.4393311  57.8899574  67.0803261  14.5820045  65.0547647  20.7102203
  13.7808740  65.0777960  21.2335682  15.1550972  65.7021427  21.1209440
  55.2476549  64.4015408  28.8189769  54.9937630  65.2010441  29.2800307
  55.4070854  64.6846437  27.9186058  69.2633104  75.9267235  15.7429159
  68.4695339  75.3926277  15.7727587  69.2532301  76.3222551  14.8713183
  78.8741446   0.9117045   2.1436362  79.0177441   0.8323516   1.2006012
  79.0007639   1.8424664   2.3277059  59.6508169  35.8262944  50.5363321
  60.5007792  36.2601590  50.4617691  59.0305567  36.5392089  50.6888485
  24.0735531  71.8065882  13.0355179  24.3146896  72.7329159  13.0375373
  23.1164026  71.8082333  13.0450642   7.6894498  76.4929485   2.1691434
   8.2433629  76.9877625   1.5653449   7.8186011  76.9190311   3.0164957
  77.5874615  47.9193020  14.3365645  77.9606390  48.2641792  15.1477563
  78.3329201  47.8510761  13.7400150  55.3767538  67.0615578  19.2012751
  56.3293171  67.0496559  19.2946124  55.1788998  66.2929201  18.6662233
  72.8813171  77.6007795  44.8392344  73.1525755  76.8073559  45.3008938
  73.5032368  77.6815987  44.1161013  63.8165188  56.3796902  56.2369633
  64.5264864  56.9100523  55.8751726  63.0529690  56.6078281  55.7067013
  79.5312119  46.2714195  25.4114437  79.2114449  45.6433249  24.7637725
  80.3733921  45.9155035  25.6947827  82.3905563  25.2998900  26.8783212
  82.8759480  26.1238170  26.9203401  82.5978279  24.8575473  27.7014875
  73.4775591   7.4726874  60.5984926  72.6626396   7.8890729  60.8791399
  73.3438826   7.2869200  59.6690559  68.7428665  15.9226310  49.2058372
  69.2587805  15.4912102  48.5247087  68.4766340  16.7543662  48.8139582
  52.8791952   3.6421707  24.6184039  53.0012369   2.7620912  24.9744892
  53.7098026   4.0865618  24.7882152  43.4999895  54.8002434  14.8190367
  44.0467644  54.2492294  14.2589915  43.9866924  54.8640490  15.6407917
  77.6521683  56.2968016   5.4663777  78.4614849  56.7290258   5.7391918
  76.9851971  56.6398811   6.0610807  32.5904989  52.5636482   0.3793269
  32.8925037  53.2364893   0.9894943  33.0069828  51.7581129   0.6857337
  22.9390788  61.7070580   4.7433126  23.7088728  61.4379120   4.2421025
  22.1991944  61.3316536   4.2659530   8.7220204   1.4046812  21.3412642
   8.6440510   0.4635245  21.1851335   7.8221500   1.6997020  21.4806485
  12.9219139  70.4899216  68.2749414  12.0231783  70.4646254  68.6033726
  12.8323066  70.4085875  67.3254204  13.9428782  28.5507131   5.8100939
  13.7736046  27.6101255   5.7565016  13.0755246  28.9531040   5.7652473
  69.9422932  72.7560139  21.9190407  70.0179052  73.2553101  22.7321911
  70.8157206  72.3895836  21.7808795  20.9905362   0.4188636  14.9550617
  21.7015982  -0.1877974  14.7486937  21.1652040   1.1866419  14.4107819
  61.8341923  21.9816828   6.1071432  61.6531610  22.8560424   5.7622439
  60.9774971  21.6463566   6.3714457   2.1127474  68.9495420  49.8689413
   2.4012616  69.4303560  50.6447077   1.5502501  68.2555485  50.2127457
  78.4357882  54.5560074  21.8726063  77.5870800  54.9713087  21.7194724
  79.0180731  55.2794552  22.1045470  13.1140363  69.8100328  27.9914713
  12.2175705  69.6792364  27.6824808  13.3843100  68.9500380  28.3133316
  75.7057190  56.2500191  12.2264910  76.2977648  56.4267349  12.9575741
  76.2195539  55.7080221  11.6277933  64.5703983  60.9153223  21.7106962
  65.3036308  60.4588890  21.2980580  63.8688087  60.2647877  21.7391920
  80.4683113  21.1950850  56.6019630  80.7394600  21.9239616  56.0438871
  80.0352478  21.6119885  57.3468590  19.1022468  78.7243366  68.6380959
  18.3166122  78.1852770  68.5463095  19.5707929  78.6074924  67.8116322
  43.9000607  75.1649237  58.4132528  44.7809076  74.9953842  58.7473059
  43.7083006  76.0616589  58.6877060  41.7205334  67.1858025  54.5629311
  40.7926178  67.1858454  54.7978878  41.7554998  67.6475191  53.7251759
   1.3929501   7.3015743  13.5551047   2.3114480   7.5673103  13.5995805
   1.0041013   7.6484823  14.3580270   2.0913059  36.3745260  24.0957189
   1.7303337  35.6558704  24.6148181   1.4432806  36.5213466  23.4067059
  12.5166678   2.9495341   6.2525886  11.6134357   3.0920774   6.5355814
  13.0105805   3.6606935   6.6606760  75.6791306  20.2185488  65.0057125
  75.0177288  19.5304823  64.9325943  76.4526081  19.8539567  64.5755482
  10.0652134  58.3960295   1.9553436  10.3284621  59.1575241   1.4385624
  10.8320510  58.1935549   2.4912505  66.2260437  61.3950348  26.1971998
  65.8513880  60.5519724  25.9420300  67.1679831  61.2885857  26.0643435
  81.0267735  71.9919920  26.3076138  80.1900005  72.3452711  26.6096783
  81.1659145  72.4023819  25.4541206  65.7870817  65.5550241  22.9575109
  66.0302258  64.7308588  22.5357771  65.7433414  66.1873341  22.2402215
   4.4339961  61.5578222  43.1111574   4.5143837  61.5670204  44.0649271
   4.9553502  60.8043861  42.8341055  66.4420080  71.1810350   0.7015023
  66.1076403  70.7933712   1.5102954  65.7013464  71.1481047   0.0960548
  77.7802896  65.7213879  56.6786575  77.5484371  64.7929716  56.6558504
  78.0420685  65.9250069  55.7807493  16.8549109  16.8019176  23.3411932
  17.6097691  16.7968726  23.9297485  17.0360291  17.5120521  22.7254534
  74.5633793  71.2900782   2.8156611  73.6221886  71.2576008   2.9869568
  74.9593067  71.4201641   3.6773747  70.4692698  77.9349709  30.9983683
  71.3790798  77.7381659  30.7753277  70.3527880  77.5681400  31.8747807
  58.1423235  64.0293169   9.4596350  58.1300449  63.1448030   9.0939671
  59.0437412  64.1531134   9.7568834  42.8489733  35.3610349  57.5719213
  43.6873245  35.0583267  57.2229767  42.5411797  36.0032439  56.9323397
  38.3368063  24.1099977   9.4702250  38.4233546  25.0405788   9.6770078
  38.8350916  23.6649704  10.1557136  58.5919714  72.5536108  16.6977763
  57.8793573  73.0033302  17.1518338  58.6700535  73.0121851  15.8612108
  52.6831150  14.7816980  67.8543186  52.5274515  13.9436424  68.2898235
  51.8986940  14.9259281  67.3250580  48.3363867  71.4327955  12.3482132
  48.1115532  70.5655956  12.0110953  48.4383535  71.9748449  11.5658998
  74.1799402  64.4707584  29.2708158  73.2353497  64.3176460  29.2940712
  74.4318199  64.2770386  28.3678961  76.4409351  73.6980200   9.2341173
  76.1896706  72.8123569   9.4962394  77.2856092  73.8433743   9.6602887
  48.8781118  31.3201404  15.8265269  48.8640928  31.7379355  16.6876209
  48.1215048  31.6876388  15.3696597  15.4325390   7.2888935  14.3132210
  15.6837142   8.1542718  13.9903235  15.5643904   7.3389596  15.2599740
   5.4987121  10.4657233  34.8346043   4.8538047  11.1727345  34.8560715
   6.2876576  10.8719933  34.4758010  59.9628162  50.1401186  60.5010033
  60.5267763  49.7576714  61.1732483  59.9708939  51.0789728  60.6873131
  24.1042686  31.0679960  19.2054951  25.0164723  31.2933326  19.3880868
  23.6331081  31.3124871  20.0020289  71.1009073   7.6695013  47.5277519
  71.1402273   6.8082672  47.9436398  71.3939333   8.2770443  48.2069111
  59.7341251  45.8202362   4.5806590  59.0899515  45.1176739   4.6682850
  60.5065441  45.3922653   4.2112833  61.6534805  19.9393284  60.8722830
  62.5479841  20.2007961  61.0907650  61.7586803  19.2543781  60.2119732
  37.8742313  36.5567470   9.7931147  36.9243193  36.4625263   9.8639894
  38.0721498  36.3141894   8.8885564  61.2009907  75.2266741  57.4882603
  60.5290699  75.4534626  56.8453598  62.0283604  75.3430271  57.0211935
  25.7273793  56.4195442  20.5056953  26.3933468  56.9325781  20.0479627
  26.0060120  55.5107164  20.3933191  30.1580811  28.6363339  17.2201610
  30.7847714  28.5493040  16.5018868  30.2321005  29.5508003  17.4931204
  77.5039434  55.4423666  50.0425196  77.3599291  55.5722523  49.1051722
  77.7016449  54.5096684  50.1274872  41.4633751   5.3162485  28.7102890
  41.8743658   5.5294055  27.8725028  40.6658125   5.8452475  28.7272763
  12.3941910  49.4296122  28.4717584  13.0243075  49.9770927  28.0033040
  11.5478468  49.8464155  28.3098555  56.0038805  11.1263585  55.4203653
  56.5679836  10.5030739  54.9626160  55.1922464  10.6439781  55.5778217
  81.8170261  59.2389441  26.1027145  81.6363144  58.3377838  26.3700962
  81.2583923  59.7729492  26.6675162  21.4645123  24.3814206  51.2926006
  20.9238172  24.8720264  50.6735802  20.9514093  24.3680525  52.1005487
  19.8301482  52.7619028  14.1233659  20.1399469  53.0131578  13.2532358
  18.9572740  53.1493950  14.1879606  83.9273834  52.8484249  23.0566835
  83.9700413  51.8973541  22.9572749  83.1730461  53.1107903  22.5290680
  58.3236742  64.7527122  29.8049712  58.2212830  65.4597855  30.4419899
  57.5854445  64.8616648  29.2054868  46.5546656  69.8298073  30.1150036
  46.7774391  68.9273405  30.3433895  47.4001598  70.2619219  29.9939489
  81.4624977  53.4759426  28.2603335  81.9423389  52.6689100  28.0741215
  82.1440220  54.1247845  28.4356928  25.9724021  25.3231096  67.7660227
  26.5270901  24.5492816  67.6673079  26.5782499  26.0615730  67.7039623
   2.4744110   2.8325740  39.2319727   3.2280394   3.4211046  39.2756510
   2.0240505   3.0796686  38.4242892  12.1216357  38.5785341   7.1184063
  12.9541695  38.5992217   6.6465044  11.6750050  39.3819737   6.8515021
   5.6891483  69.1045856  21.3943577   4.8316577  68.8083935  21.0890508
   5.5403143  69.3757963  22.3001862  61.8711710  40.4003668  14.2413139
  61.3790369  39.8545527  14.8546004  62.7828598  40.3099298  14.5185876
  52.3417711   4.5111421  21.9056034  52.4601460   4.1214013  22.7718163
  52.8833485   5.3002298  21.9219613  51.2570572  61.5567970  12.4302459
  51.2903452  61.0702324  11.6066074  52.1747971  61.6821671  12.6716292
  22.8446698  21.6513729  67.6030540  23.4763622  21.7637968  68.3133745
  22.1800733  21.0647440  67.9641724  63.8639450   2.2035593  15.9266090
  64.4903708   2.1196072  16.6454768  63.7326670   1.3072371  15.6174076
  76.3300085  46.1571884   7.6232451  75.7763147  46.8687153   7.9447818
  75.7431030  45.6176949   7.0934123  78.0344152  31.7456937  20.6594586
  77.3940992  32.4376464  20.4938340  77.5174761  31.0194874  21.0082221
  60.3417969  47.2944021   1.6719815  60.5804014  48.0206680   1.0959283
  61.0473347  46.6574430   1.5591514  64.7675276  68.2374144  38.4212828
  63.8183880  68.3353424  38.3452582  65.1196575  69.0746021  38.1190300
  40.0265074  22.5165105  41.9959736  39.3915653  22.9196501  42.5880575
  39.8676133  22.9379988  41.1513853  21.7630839   3.8062695   2.3720807
  22.1599269   2.9359162   2.4072115  21.3324833   3.9076081   3.2209289
  65.7247972  46.2637949   9.2279708  66.4265013  45.9058332   9.7717637
  65.6384659  45.6399632   8.5071290  56.7192698  73.9458084  64.6333599
  57.0733547  73.3209801  64.0005541  56.0319424  73.4607410  65.0900078
  80.6792068  14.3707323  31.8613005  81.0085773  15.2524459  32.0354533
  79.7269487  14.4676495  31.8551803  50.8952713  54.0398073  15.0985980
  51.2430382  53.1630707  15.2617610  50.4113340  54.2575932  15.8952188
  58.5414267  14.7612679  68.4058857  57.9134560  14.0965307  68.6887455
  59.2414808  14.2645693  67.9822731  67.2746515  21.9470215  57.6107311
  66.9677830  21.4020872  58.3353758  66.8789721  22.8037405  57.7710438
  11.6343343  37.0956206  15.3261995  11.7868459  38.0286407  15.1763749
  11.9878435  36.6669559  14.5467710  67.2980165  69.9277115  24.2311811
  66.6738844  69.3104029  24.6127844  66.7838860  70.7186556  24.0689993
  17.8702545  55.3615236  16.2503660  17.6824987  54.6005869  15.7008612
  18.7237656  55.1711321  16.6395986  56.9918871  75.9917307  10.5385089
  56.3262844  76.6036749  10.2243054  57.2213840  76.3141966  11.4100480
  17.1822989  21.5307832  48.7077904  17.4614835  22.4255538  48.9018869
  16.2331581  21.5439725  48.8310337   5.6764591  30.3880334  25.7349992
   6.0754925  31.1853313  25.3866863   6.3399720  29.7108269  25.6031895
  73.3716440  64.8378801  43.1758976  73.2400751  65.7680416  43.3595371
  73.6991024  64.8152494  42.2767353   2.3515892  70.2348375  54.8222399
   1.7010814  69.8233128  55.3912020   2.6141122  71.0264397  55.2920008
  80.1309776  56.4187384  23.0234671  81.0756493  56.5167952  23.1427097
  79.7489357  57.1208286  23.5501003  39.8661351   5.6481487  22.5439548
  40.1834011   5.7964593  21.6531253  39.7118425   6.5261662  22.8925371
  45.0637150  24.3277144   4.7050682  45.4583693  23.5410810   5.0814813
  45.7993317  24.8039341   4.3199530  26.3207817  27.8417897  36.4781451
  27.2771287  27.8811812  36.4871335  26.0429931  28.6833763  36.8398023
   3.1775835  74.6635199   9.8504800   2.6937449  75.4722977   9.6831125
   3.1593275  74.1962957   9.0152568  23.4591103  13.2835233  40.1167202
  22.6749635  13.8268840  40.0385857  23.2091737  12.4450648  39.7284555
  31.7982388  43.6883020  67.9519558  31.6401768  44.6315336  67.9915047
  32.5822639  43.5542965  68.4844780  65.9501076  29.0451264  64.2212868
  66.4900208  29.2074227  63.4477329  65.2628946  28.4539175  63.9139700
  56.8963909  69.4971752  21.7313218  57.5341368  69.9361944  21.1684966
  57.3457146  69.3983412  22.5707078  77.4319983  38.3253622  49.9896288
  77.4902916  39.2776680  49.9125004  78.0875874  38.0978870  50.6489420
  65.0772476  40.1082611  12.2826183  65.0843668  40.6416559  13.0773985
  64.3865252  39.4629765  12.4334109  56.1692619  65.0880527   3.8728246
  56.7652225  64.6733236   4.4965705  55.3449011  64.6128464   3.9769402
   4.4204843  76.8293810  16.6623795   4.9190143  76.0176992  16.5681648
   4.1757905  77.0654058  15.7675898  61.0913658  72.6284075  12.8498697
  61.2860632  72.7601051  11.9219792  60.8154392  71.7137671  12.9092336
  78.8675117  64.2432308   2.8979334  78.2143879  64.9340582   3.0093455
  78.5042429  63.4922361   3.3672675  59.0996408  76.4636517  14.7071660
  58.3072281  76.9838476  14.8402226  59.4075584  76.7147255  13.8363159
  79.3154144  64.6371174  21.2726498  79.2681265  64.3434715  20.3628349
  80.2149010  64.9470949  21.3778424  64.0028954  36.6539598  15.7483029
  64.3134546  35.8665848  15.3012860  64.2037201  36.5002227  16.6714859
  13.2174468  16.1378527  28.4621263  12.3835075  15.6691039  28.4297037
  13.6087823  15.8731461  29.2946053   2.6142484   4.3862858  51.6210079
   2.9294804   5.1772916  52.0582390   1.8675871   4.6819317  51.1001205
  60.7592630  57.5366402  28.7130284  61.6386271  57.6049852  28.3411765
  60.2092505  58.0528593  28.1237602  23.7030673  45.0758123  11.4362526
  23.5568452  44.1298676  11.4426625  24.6435714  45.1717758  11.2863338
  83.9998817   4.5080909  39.1718936  83.7384510   3.6648104  38.8020802
  83.9712143   4.3734393  40.1191425  72.5334644  76.5595818  25.2361298
  71.7983294  77.0289230  25.6305027  72.7498865  75.8766651  25.8709669
   0.1538224  57.9937506  12.4812245  -0.5198371  57.5878906  13.0268359
   0.6311373  57.2560024  12.1015823  59.2227840  53.1403399  46.5367508
  59.1229820  52.8802061  45.6209993  58.5457087  52.6479149  47.0007753
   4.0778619  57.3241472  50.3556538   3.2320890  57.2493315  49.9137259
   4.4436860  56.4401770  50.3239536  26.1048770  29.4575596  32.9643917
  26.9824600  29.2119265  33.2572126  26.2544036  30.0134540  32.1996331
  79.0565968  36.6756058  13.9420426  78.9812279  36.4653063  13.0112767
  78.7318945  35.8950758  14.3910074  68.8940811  36.0604453  63.3717966
  68.3200026  36.7841148  63.1208611  69.7154379  36.4825463  63.6236572
  76.1600780  76.0686636   7.5693285  75.4512072  76.4588356   8.0806988
  76.1343288  75.1387596   7.7948225  77.4461079  60.6944990  36.0813117
  78.2800245  61.0505009  35.7745886  77.6913691  59.9542999  36.6364598
  76.4707088  72.5006914  65.6174183  75.8688259  71.8427181  65.2695084
  76.3011026  72.5061560  66.5594578  66.5341949  63.3259916  67.3813820
  67.2474098  63.1847382  66.7588043  66.9532442  63.7403297  68.1356716
  48.3676720  12.1055281   7.6744705  48.5576773  11.2571716   7.2739458
  47.7652836  11.9029295   8.3902311  74.8314810   6.1246419  24.5998359
  74.6201658   6.7772108  23.9322042  74.0065479   5.6644386  24.7545147
  37.6127768  60.8582306  17.2448909  38.5483241  60.7714176  17.4277735
  37.4790025  61.7980003  17.1217263   6.7011231  39.3704176  51.4632893
   7.2389525  38.7213397  51.0097790   7.3017132  39.7916651  52.0781660
  63.6096716  10.2822721  39.5871758  64.5353699  10.4348779  39.7769737
  63.4182692  10.8599293  38.8483191  28.4798646   1.1074568  33.6972833
  28.8316536   0.2290463  33.5528111  27.6009274   1.0786179  33.3193016
  34.0868878  68.7347460  11.3403630  33.9791536  69.3714094  12.0469677
  33.2258987  68.6905432  10.9244633   5.8509755  35.8937716  63.7269354
   6.7885989  35.9412193  63.5402775   5.6631714  34.9563313  63.7735033
  82.6253128  22.8525782   7.5154924  82.7403450  23.6801004   7.9826128
  83.4977627  22.4588823   7.5072908  16.1012363  73.8515997  36.2948322
  15.5442894  74.5126915  35.8837366  16.9647110  73.9902878  35.9057188
  41.4822292  73.6170483  19.2586100  41.0859632  74.4002914  18.8768578
  40.9514952  73.4336519  20.0338006  10.6213343  17.0404553  43.4688807
   9.8058581  16.5417242  43.5188532  10.3633869  17.9414308  43.6636591
  15.6394398  66.8083429   3.4640470  14.9905765  66.1281490   3.2836378
  15.1384068  67.5156355   3.8701656  72.7454185  67.0832300  52.2340107
  72.3326826  66.2926960  52.5817776  72.7388334  66.9591570  51.2849092
  41.8309641  58.6930990  16.3736868  42.4586916  58.0416536  16.6864252
  42.0685863  58.8340330  15.4572237  24.4641423   7.3419589  17.1235430
  25.1941371   6.9668067  17.6160860  24.5374560   6.9520438  16.2524378
  43.7067080  12.4985206  11.3686991  44.5592451  12.0920873  11.5243566
  43.5030460  12.9492569  12.1882045   6.9347364  32.5476480  41.4502954
   6.1188543  33.0275154  41.3078308   7.5208741  32.8621030  40.7619715
  60.8047104   4.4418845  53.8424063  61.4930630   3.7955797  53.9995384
  60.1383972   3.9663324  53.3463144  54.9569368  77.6503611  38.8609624
  55.5702448  77.2396231  39.4703698  55.5140781  78.0455256  38.1903887
  26.9642258   7.3320717  48.1877995  27.6619983   7.9336196  48.4475803
  27.4208307   6.5276200  47.9416275  54.4737768  13.9154840  18.0353677
  54.4441557  14.4729984  18.8128841  54.1649628  14.4781744  17.3252654
  73.5097980  15.0051498   7.5618845  73.0306864  14.2406118   7.8815144
  73.3808231  15.6690383   8.2392693  64.8357248  16.1448681  23.6929035
  65.3567505  15.3420639  23.6764264  64.2798519  16.0537946  24.4668174
  49.1645479  28.8245940  49.9291992  49.6412754  29.4342542  49.3659258
  48.4021902  29.3204951  50.2277327   9.1162407  24.3220258  65.2803898
   9.6041435  23.8765216  65.9730005   9.4869733  23.9787316  64.4674110
  27.5845122  22.9763269  67.6885414  28.3571458  22.7792120  67.1589947
  26.9399285  22.3193836  67.4255323  39.1319847  55.3093529   4.8627406
  40.0638437  55.2257919   4.6605325  39.1082835  55.7985973   5.6851190
  38.9754915  23.1868863  18.5610580  38.1233740  22.8123474  18.7843299
  39.5287037  22.4285865  18.3735192   3.1564137  59.2806244  65.2227211
   2.9544580  58.7854099  64.4288635   3.6076877  58.6535740  65.7878685
  32.2651935  77.0943737  31.1667347  32.4752259  76.1621618  31.1110926
  31.4544177  77.1874905  30.6665325   9.8861712  71.3124228  60.4182243
  10.7282460  71.0136032  60.0749302  10.1153004  71.8789339  61.1549711
  67.1600580   9.6216053   5.5705148  68.0767202   9.8589182   5.7106960
  67.1164083   9.3688893   4.6483099  19.9634564  48.6283970  36.2358618
  19.1611266  48.7450933  36.7446637  20.4186296  49.4671202  36.3106704
  83.1211090  71.3017273  63.5522413  83.9760113  71.1786985  63.9648294
  82.8315067  72.1629095  63.8534546  20.0871539  78.7822008  10.1497710
  20.6730652  78.4544706   9.4674706  20.6533766  78.9091778  10.9110212
  83.3523273  26.0254073  46.4953232  83.7957382  25.1905870  46.6459703
  83.1948757  26.0460615  45.5513906   0.2577163  53.1753206  30.8358264
   0.5385749  54.0326786  30.5159926  -0.6213546  53.3255911  31.1835122
  62.0577526  34.1416073   7.2853386  62.2435379  35.0797749   7.2458875
  62.3056841  33.8118196   6.4216244  56.4241743  56.1544847  66.0612440
  57.1023226  55.5135345  66.2746143  55.7120371  55.6346512  65.6886005
  77.2413874  62.9433537  55.4740620  76.9163990  63.1088018  54.5890522
  78.1941748  62.9386854  55.3823614   6.0014802  71.4805269  27.3615098
   5.3743088  72.1411562  27.0674777   6.8554449  71.9028139  27.2685075
  78.4904814  36.2945676  62.5864553  78.2640123  37.0223093  62.0073748
  78.1783533  36.5686250  63.4488392  75.8480787  62.1287298  57.5624800
  76.1394453  62.4751234  56.7190647  76.6128397  62.2108841  58.1322384
  59.1093969   2.0564352  21.0514259  60.0146770   1.7504640  20.9959340
  59.0601349   2.7744332  20.4203296  39.2552400  62.5333881   2.8859809
  38.3568120  62.8450966   2.9950485  39.5481634  62.3312616   3.7745595
  55.8075142   8.3647084  22.1028328  56.1223269   8.4061480  21.1998320
  56.6034174   8.3083773  22.6316071  48.7671280  59.8356533  40.9176588
  48.5966492  59.0361691  40.4196644  47.8978729  60.1789808  41.1244154
  68.0669928  54.4435692  50.8138514  67.7840090  54.5342731  51.7237520
  68.5819530  53.6367750  50.8024693   2.8230846  60.2206278  58.4531975
   2.6283866  61.0176659  58.9461994   3.0776846  59.5827675  59.1199398
  63.3678198  27.7181888  57.9689455  63.0136871  28.2960463  57.2930002
  64.1910553  28.1310773  58.2297897  27.7297568  18.2298028  60.6833649
  27.3936963  18.9074636  60.0967884  28.6795783  18.2642591  60.5698442
   6.2713468  78.7943745  18.2136178   5.9431469  79.6801472  18.3682871
   5.8619678  78.5275841  17.3905361  20.5763626   2.4689598  52.5364590
  21.1432028   1.7616192  52.8440237  20.2337384   2.1546946  51.6997528
  49.3105173  25.2724862  13.6638045  49.3419075  24.3267608  13.5194039
  49.3059492  25.6491137  12.7838266   7.6743299  75.7389927  52.7340746
   6.8323112  75.7468033  52.2789097   7.6165861  74.9935865  53.3317947
  78.4858465  63.2358980  46.5718365  77.8198481  63.3321714  45.8910990
  78.0016565  62.9310703  47.3392153  75.1975346  30.8401132  57.9763985
  75.1251841  31.1321068  57.0676994  76.1393213  30.7620692  58.1286335
  61.6614294  72.5624180   4.6931756  61.5868759  73.1939650   3.9777547
  60.8376741  72.0754862   4.6696281   3.5261744  72.4442959  64.8960543
   3.6244068  73.1408644  65.5451870   3.4074128  72.9056215  64.0658092
  69.4950390  58.0090809  57.5811434  69.9515009  57.2339678  57.2539186
  70.1949453  58.5977936  57.8635931  36.7931795  17.9972184  29.5173478
  37.7398348  17.8572237  29.4955087  36.4691877  17.3467970  30.1404166
   1.6072419  53.8233995  50.2016306   1.2672015  54.2780399  49.4309759
   1.8260822  52.9468346  49.8854399  37.6569819  41.0637474  19.8781335
  38.4521031  41.1913013  19.3606949  37.8162265  41.5515709  20.6861591
  57.4522495  18.9527357  13.5023582  57.4035215  19.6683192  14.1362333
  58.1653261  19.2017651  12.9143655  43.0512524   8.9233011   4.7659850
  43.4242773   9.3663800   5.5280632  42.3069000   9.4689918   4.5122299
  44.8066807  68.3264446  18.6918342  45.4470110  68.9233923  19.0789509
  44.3732023  68.8462830  18.0150068   7.5013942  77.0999002  58.4101677
   7.4789488  78.0510902  58.3054495   7.8511792  76.7757559  57.5802183
  72.9034185  76.7449474  52.4317694  72.0400143  77.1192837  52.2567463
  72.7829266  76.2265778  53.2273865  69.4345140   6.9435716  20.2464485
  69.0668011   6.9496047  19.3627143  68.8443232   6.3807583  20.7475972
  28.6804295  70.7702637  -0.2370441  28.8183403  71.5958643   0.2272838
  28.6976790  70.1035404   0.4495523  20.2163100  41.7343283  57.5729895
  19.9035513  42.6135921  57.7858639  19.4757414  41.1617661  57.7728939
  16.6694713  50.7938766   1.0850325  15.7513964  50.5758238   0.9243312
  16.6475213  51.6897154   1.4215213  81.2394142  68.8054991  42.1001053
  80.3201866  68.9144945  41.8564606  81.7116833  69.4134188  41.5312243
  36.9751525  63.0465794  15.9190249  36.0683107  63.3501196  15.8773601
  37.4963593  63.8178062  15.6958938   4.3969652  70.6933546  29.4173050
   4.7489423  71.0828447  28.6169028   4.9024352  71.0973930  30.1226306
  38.9017892  10.7730830  16.8992627  38.6656308  10.8298469  15.9733903
  38.0679870  10.8444488  17.3639274  83.5762024  62.8585243  49.4919014
  83.0350780  62.2206450  49.9572325  83.5700130  62.5597954  48.5825300
  79.8906183  44.2357445  56.2308645  80.1484394  44.8398256  55.5345583
  78.9376068  44.1812325  56.1599541   3.5336441  62.4952269  61.4599323
   3.2625371  61.6729927  61.8681812   3.1721562  63.1753969  62.0281982
  83.0593491  51.3507318  27.3890352  82.9717255  50.6163979  26.7813301
  83.7566662  51.8892956  27.0149589  63.0056810  18.6041582  14.0910518
  63.4462643  18.1746268  13.3578265  62.4509430  19.2680478  13.6814797
  45.2838516  10.0530577  68.3336306  45.2169466  10.6369543  69.0891600
  46.2189817   9.8622304  68.2604790  42.4165392  18.4290266   1.3048711
  42.9696560  17.6604617   1.1648672  43.0040169  19.1736317   1.1757748
  57.1243000   8.6083329   5.1117176  57.0953989   8.3973837   6.0449362
  57.3651123   7.7848274   4.6873587  60.8220530  43.3534765  66.8667936
  61.4577293  44.0690517  66.8562984  61.0860777  42.7879095  66.1410809
  43.9155054  14.0053225   8.8922709  43.8710356  13.4991121   9.7034460
  44.7247839  14.5106506   8.9693558   3.5109195  37.6950788  58.2514095
   2.8472978  37.0440793  58.4795284   3.9465731  37.3328090  57.4799204
  48.5612249  69.1556549  18.6397362  47.8248644  69.4964981  19.1475093
  48.4734678  68.2043648  18.6995280  28.6379099  34.6886849  20.2488017
  27.7117252  34.8646045  20.4145312  29.0876555  35.0217223  21.0253620
  27.3369884  44.1019773  61.8369389  26.7333555  44.7047520  62.2711229
  27.7417088  44.6252537  61.1451197   0.4747107  19.4742560  12.1453428
   0.6811710  20.1593256  11.5095067  -0.4756583  19.5221782  12.2489488
  30.5059338  28.1081986   6.7761415  31.2236691  28.1678629   7.4066395
  29.7230124  27.9930735   7.3146683  19.8727965  15.6814849   1.7367165
  18.9619529  15.8241701   1.4793527  20.3855133  16.0953271   1.0423898
  81.3188076  15.5099750   6.9786680  81.2974453  16.4057040   6.6418535
  80.8231354  15.0009966   6.3371962  69.1061735   7.6240206   0.9216364
  69.2987490   6.7013729   0.7547044  68.5736942   7.8965646   0.1743606
  23.1455946   3.5989010  44.9812078  23.2547569   4.2002442  45.7178879
  22.1978188   3.4987614  44.8921871  16.7685771  34.0660024  64.7033548
  16.7533255  33.1095648  64.6683121  17.6982498  34.2891908  64.7494698
  52.2380018  13.1687689  12.8691769  52.7582932  12.4218833  13.1653070
  52.8182888  13.9224398  12.9763222  48.4653807   1.9167754  61.8698215
  47.7348614   2.5180560  62.0148659  48.6735249   1.5783063  62.7406502
  62.7636862  59.5547915  25.1032305  63.6405182  59.3094540  25.3985310
  62.8534555  59.6717262  24.1574502  61.3686848  30.0800514   4.4278795
  61.3101053  29.2602277   3.9372781  60.6448030  30.6105828   4.0950724
  72.9594278  18.3206284  64.0738630  73.5944653  17.6816845  64.3974543
  73.0096245  18.2466817  63.1208467  62.4736977  12.8680325   5.2569813
  61.5703011  13.1152737   5.0595433  62.8754711  12.7245343   4.4001156
   4.7070986   7.3009789  39.8323512   4.1473380   7.7222085  40.4846287
   5.5713034   7.6878905  39.9726415  64.5519781  25.6757259  30.6344080
  63.9442301  25.0216794  30.2892971  65.3444910  25.1805210  30.8415866
  21.6103792  14.0863895  13.4731328  21.5314531  14.6165454  12.6800776
  21.3172150  14.6642303  14.1776800  78.7566328  27.5006008  30.5259061
  79.0841770  27.8228068  29.6861863  78.2004309  26.7561769  30.2963305
   1.8084589  39.5136809  15.5779696   2.6760668  39.1093564  15.5811262
   1.6039705  39.6491289  16.5032101  75.2118874  47.5608349  50.3493500
  75.0858212  46.7578554  49.8438168  74.3321133  47.9265928  50.4412794
  33.5532022  36.6405463  31.9169521  34.0509105  37.3015881  32.3981404
  32.6789188  37.0191598  31.8246770  61.8238592  10.1678157  22.2657752
  61.1049843  10.6820488  21.8983340  61.4201880   9.3369579  22.5166893
  19.0313137  67.5105524  56.7238617  19.9586916  67.7119875  56.8488646
  19.0270674  66.7627335  56.1263847   9.7329491  34.4334483  65.8010340
   9.7818124  35.0912023  66.4947224   8.7980056  34.2488170  65.7114649
   6.3313234  58.0620146  45.3070927   6.2101293  57.5276423  44.5222425
   5.8669299  57.5856018  45.9952831  22.4972677  45.4298306   0.9783445
  22.5071645  45.9489918   1.7824621  21.9490623  44.6737289   1.1881430
  78.5733414   6.9850528  18.6705101  77.8986931   6.4475077  18.2556307
  78.5109854   6.7713052  19.6014524  32.1497655  51.8658733  10.8843291
  31.3644385  51.7126083  10.3589666  31.9152355  52.5948429  11.4586377
  19.9041295  24.4555140  36.8501496  18.9942586  24.6683741  37.0576549
  20.0703478  24.8995686  36.0186315   3.7625363  11.8703580  17.2754097
   3.9973289  12.7242708  17.6386428   3.8296857  11.9865596  16.3276649
  44.2305040  66.3798952  41.0165167  43.3128595  66.3876772  40.7443047
  44.4038630  65.4674864  41.2482309  10.2903485   1.4335017  41.7495251
  11.1442530   1.1932945  41.3898325  10.1013589   2.2900170  41.3662529
   1.9254617  19.6760809  60.8512926   2.1461017  20.3748465  61.4671469
   2.2215831  18.8744509  61.2824917  53.7818861  16.2752366   5.6064790
  53.8388872  16.2225366   4.6524319  54.3909454  15.6067169   5.9201008
  78.9280939  74.4377708  42.3732090  78.8248873  74.6372795  43.3036852
  78.5810471  73.5507393  42.2785187  81.5949059  64.4212103  17.1034431
  82.4836636  64.5444345  17.4368441  81.7150021  64.1786671  16.1853027
  78.6654806  45.1481581  67.3457766  79.4124126  44.5873404  67.1364737
  78.0644703  45.0310802  66.6100359  75.1553488  16.9263506  -0.1315446
  75.6542063  17.2700489   0.6095640  74.4269753  16.4520311   0.2693647
  43.2676792  14.7373462  23.6892223  44.1078186  14.5707572  24.1165924
  43.2920122  14.2018461  22.8962016   1.6834013  70.5460167  29.3509364
   1.7461388  69.9345303  28.6171937   2.5554419  70.5369425  29.7455168
  41.9971275  30.5769086   3.1021431  42.6031160  30.4844761   2.3669794
  41.1748934  30.8582211   2.7008632  67.2707176  33.7505865   8.8321573
  67.5626850  32.8404713   8.8838917  66.5278769  33.7298918   8.2288390
   8.2784563  38.3952284  57.3286152   8.1352991  39.3411946  57.3583031
   9.1521770  38.2734346  57.7001095  29.0311193  36.6924262   8.0194199
  28.5515499  36.5181470   8.8292783  28.5918427  36.1547518   7.3605013
  26.1656928   5.9272426  65.5803728  25.4859614   6.4468902  65.1512289
  26.6680026   6.5634859  66.0894060  11.7102587   9.0154958  38.2836795
  11.6991174   9.9710739  38.2291007  10.8986712   8.7417090  37.8563666
  82.2655201  72.5045681  39.3721986  82.6686859  73.3194923  39.0728855
  82.9522991  71.8457603  39.2695165  29.4470072  10.5890441  44.8633671
  28.7600470  10.2767432  45.4522514  30.2627015  10.2993488  45.2719641
  52.3731947  69.3386030  13.7428868  52.5815248  68.7078476  14.4320762
  51.5830994  69.7806597  14.0536463  33.9501452  10.0378442  41.7694092
  34.3227053   9.3440926  42.3135948  34.5090675  10.7973456  41.9337130
  12.6293647  49.4945621  59.4369793  12.4585974  49.6934414  58.5163689
  13.1120253  48.6681795  59.4179583  29.3214536  70.5038881  33.8025212
  28.7765551  70.8323526  34.5176649  29.3419743  69.5558453  33.9330149
   0.3481518  21.6457343  10.2804673   1.2062705  21.4455891   9.9065614
   0.5198968  22.3409128  10.9156561  74.1233301  63.3671856  64.5727062
  73.2168579  63.5339594  64.3143892  74.6119547  63.3734798  63.7496424
  38.2877254  65.5886030   5.1039767  37.7200198  65.3473091   4.3720481
  37.8105545  66.2828636   5.5584395  28.8613772   4.4782442  53.4723473
  29.0479398   3.6636963  53.9391899  28.2857442   4.9656314  54.0616989
  58.0833960  34.7043538  53.9295101  57.2991562  34.3461013  54.3452692
  57.9007959  35.6396627  53.8395882  70.4643679   9.3554997  11.8610036
  71.3537502   9.5879579  12.1278346  70.5622339   9.0159565  10.9714174
  66.8255281  35.5266261  44.7746658  67.6577425  35.7027626  45.2135611
  67.0638800  35.0000715  44.0116739  27.2572827  41.3277197  14.0318227
  27.0179510  41.5809631  13.1402969  28.0473399  41.8340445  14.2207086
  42.2156429  37.9498792  17.4341619  41.6202736  37.9186440  16.6853034
  42.7669621  38.7149644  17.2700810  62.1081114   6.0568768  42.3037243
  62.7016068   6.5799892  41.7648792  61.5026903   6.6947544  42.6816225
   4.8954934  26.2732744  60.8975744   4.5981798  25.5634928  60.3283262
   4.1694817  26.4127517  61.5055943  63.7135601  78.1520367  64.7214174
  64.2341423  78.2329845  63.9222479  64.3610048  78.0833244  65.4230785
  79.1277170  74.2365026  66.1370468  79.8698282  73.9666319  66.6780376
  78.4140015  73.6568213  66.4031410  58.8299322   9.5883268  68.4938145
  59.7690439   9.6108729  68.3099794  58.4158754   9.6444750  67.6326323
  81.1941433  27.3707986  47.8819847  82.0583916  26.9631863  47.8257275
  80.7129478  26.8269134  48.5055828  20.2546549  73.2300663  55.6111002
  20.6967402  73.2621908  56.4594841  19.3314874  73.3779764  55.8163214
  68.2876348  26.4368010   5.9907216  68.1905127  25.5319905   5.6938791
  68.9442825  26.8121576   5.4040772  80.6308651  29.9293470  10.5127573
  79.9033213  29.9955511  11.1312473  80.2112675  29.7969556   9.6626723
  71.7262077  66.8543673  21.0095263  71.1242580  66.5588284  20.3264856
  71.9397545  66.0608101  21.5003371  35.2505994  73.4274387  54.7808647
  34.4420385  73.2365942  54.3054295  35.7065892  74.0651131  54.2316151
  77.6138210  41.6489124  16.3118839  78.3595324  41.9751596  16.8155777
  77.7063370  42.0609522  15.4528749  67.4773788   5.4864603  54.6702814
  67.7162313   5.0060755  53.8775539  66.5731096   5.7620466  54.5200205
  30.7642341   6.3427699  32.4326396  29.9583006   5.9646332  32.0809078
  30.5933452   6.4421088  33.3692074  29.6264911  30.6815338  10.8491051
  30.5180144  30.4470420  10.5913627  29.1944146  30.9184742  10.0284958
  61.7197990  38.1771302  50.3629065  62.1816587  38.8260651  50.8937550
  62.2749662  37.3982596  50.4001427  62.2937298  12.9255331  33.5024738
  62.3589325  12.5580108  32.6210499  62.5516653  12.2078264  34.0809178
  26.2209177  68.7448978  56.8674994  25.7411480  68.2148790  56.2309980
  26.4371848  69.5488787  56.3951874  76.5747690  56.3616562  42.8466988
  77.0779276  56.3158131  42.0337009  77.2208548  56.5877485  43.5157967
   2.6342842  18.8351429  23.4185982   3.4433675  18.5107851  23.8140821
   2.4591093  19.6591485  23.8730860  16.3104284  61.9487953  60.1291323
  16.3319945  62.7106237  59.5500135  15.8453214  62.2533512  60.9083366
  25.8133912  24.0119147  62.1349669  26.0551453  23.6438322  62.9848480
  26.2435985  23.4431338  61.4964962  49.1033745   4.9579170  56.1302090
  48.7767267   4.3500572  56.7935610  48.6020947   5.7606941  56.2733793
  83.8568687  45.4033041  66.6017723  83.7830734  44.5253325  66.9758797
  83.6748981  45.9918880  67.3343611  64.6830368  41.5863705   5.3721094
  64.1217422  42.3333645   5.1643026  65.5437040  41.9718122   5.5361801
  83.7852573  56.6919947  66.7484426  84.0793324  57.5791502  66.5417671
  83.1900883  56.8035555  67.4897671  66.3359594  76.3480139  10.4263413
  66.2547493  75.3987980  10.5192268  65.9534645  76.5384483   9.5697993
  76.9166231  32.3922729  40.7756281  76.7992210  32.8901744  41.5846634
  76.7148209  33.0166340  40.0787210  66.5997219  76.9487000   5.6805199
  66.0032320  76.9757318   6.4286500  67.4410343  77.2370911   6.0344392
  16.7288446   2.2045077  62.5828648  16.2015116   2.7599040  62.0086813
  16.1240673   1.9301851  63.2722282  51.1113310  57.8500319   9.2883247
  51.3885117  58.6528063   9.7298622  51.6937447  57.7793407   8.5319978
  41.9754601  15.9202528   8.5335827  42.5184774  15.1711404   8.7789369
  41.3108826  15.5535507   7.9504043  65.6397057  71.9505548  67.2457743
  65.0238514  71.6812277  67.9272556  65.6597281  71.2130070  66.6359711
  29.8143482  72.9949951  57.7739382  29.9383211  72.1616030  58.2281685
  30.4529953  73.5840464  58.1756639  31.8455529  23.4771585  58.5825014
  32.8013730  23.4262323  58.5893440  31.5733671  22.7888680  57.9755402
  70.7158995   8.4952861   9.2830426  71.1453056   8.9506930   8.5588551
  70.6665564   7.5832194   8.9968055  50.2952099  29.1369724   0.9346773
  50.3498888  29.7903252   1.6320801  49.5458460  29.4124174   0.4066489
   6.4411587  22.3086691  10.7618272   6.9375187  22.9376268  10.2381194
   6.7116201  22.4815822  11.6635931  71.1810589  41.4594841   0.4599878
  70.4271412  41.4970064  -0.1285966  71.5166950  40.5683422   0.3627777
  46.8854523  45.1110125   1.4767791  46.7560434  44.3192291   1.9988540
  46.2232780  45.0545597   0.7878882  77.4687767  59.4519377  26.4980268
  78.3115911  59.4962168  26.9496250  77.0235968  58.7030983  26.8946195
  11.0253370  41.7919350  15.8204770  11.2219155  42.3762608  16.5526998
  10.0851059  41.8976116  15.6754637   9.2828357  61.6570377  54.7558069
   8.7979484  62.1807241  55.3936672   9.3738693  62.2304630  53.9948034
  14.3170154   3.6957818  61.8646431  13.8358319   3.0870318  61.3041830
  14.2084551   4.5475876  61.4417076  59.3832636  32.0822358   3.9915097
  59.1766930  32.9936194   4.1987351  58.5328817  31.6760492   3.8238987
  78.9075089  58.4119987  13.0891824  79.0592813  57.7615309  12.4035513
  79.4454241  59.1608763  12.8321660  70.0075960  59.5329809  13.0286574
  70.7535696  59.7900295  12.4867332  69.3727398  60.2399826  12.9131591
  42.1997786  40.6501102  20.5496550  41.9586992  41.5763998  20.5398130
  41.4884806  40.2225494  21.0266066  26.0987210  70.1193810  61.9632816
  26.6839147  69.4929314  62.3891211  26.0119915  69.7950077  61.0669041
  47.6989126  32.5863266  61.5208340  48.0974817  33.0042696  62.2841835
  46.8295527  32.9818988  61.4578390  49.4555569  54.7822094  12.3027170
  48.9168501  55.5566740  12.1407568  50.0640869  55.0532198  12.9900873
  20.4026556  55.5853844  17.9512119  20.6998396  55.5116987  18.8581204
  21.1881161  55.4254627  17.4280381  32.9598856  13.5122406  65.8494139
  32.0262837  13.4197378  66.0393238  33.0608964  13.1576657  64.9660635
  51.6706181   7.4776632  64.6747208  52.2290421   7.7447438  65.4048347
  50.9002829   8.0416369  64.7435999  60.2121496  15.7847357  54.7251081
  60.0095654  16.5823865  54.2362881  59.5364189  15.1617789  54.4576263
  14.9855113  43.5920000  50.8867359  14.2514849  43.6749172  51.4954758
  14.6317208  43.8780117  50.0445604  48.1112003   1.6485332   2.4893560
  47.4702644   0.9549566   2.3332003  48.9422655   1.1864176   2.5989494
  57.1807480  29.3343186  22.2086191  56.5356350  28.9683318  21.6035438
  56.7747211  29.2501140  23.0713391   4.8609090  17.6454055   8.7600261
   4.5599025  18.2776809   8.1074512   5.1070809  18.1794894   9.5152646
  14.1538489  60.8026171   6.7338228  13.5479844  61.3531733   6.2377900
  14.8785412  61.3861799   6.9585639  16.0005367  43.0441666  62.2720194
  15.0621819  42.8697109  62.3447371  16.2879097  42.5053501  61.5349102
  68.3682251  17.8156352  54.4550562  69.3034744  17.7535176  54.2609453
  67.9378843  17.4677408  53.6740208  22.4956155  64.3701363  53.6515665
  22.6924944  63.4363890  53.5768032  22.8116250  64.6126032  54.5219564
  63.2491922  27.5668740  33.4488797  62.6376772  27.7445984  32.7342510
  63.9896917  27.1305728  33.0275345  64.2206669   4.1879782  10.5330229
  63.2971859   4.1295862  10.7779777  64.5443869   4.9576759  11.0010004
  65.8708334  47.0784855  14.2703760  66.2383842  47.9483938  14.1141713
  66.5718842  46.4746809  14.0250623  36.0911751  41.2007284  23.0733466
  35.1555419  41.3808680  23.1648469  36.4488173  41.9910908  22.6688147
  78.6891508  64.3823481   7.0233428  78.7802124  63.4317160   7.0884562
  79.4417191  64.6598244   6.5009671  43.0986738  41.5365028   6.5577227
  42.7184820  40.8509254   7.1069610  44.0033436  41.2569332   6.4175671
  23.5740662  47.7783728  21.2679720  22.8117180  48.3509064  21.1827302
  23.7977529  47.8142548  22.1979761  60.5571127  32.9749084   1.5096006
  60.2821350  32.2239923   2.0356654  59.7622156  33.2521915   1.0540989
  35.9786439  67.5046062   2.6076454  36.6154027  67.1052074   2.0149827
  36.3935304  68.3192778   2.8912142  45.1485825  73.6421537  54.2061043
  45.0515652  74.5395660  54.5246553  45.9137440  73.3042192  54.6714544
  59.2073631  21.9158125   6.9748014  58.9076757  22.8223848   7.0422280
  58.8459778  21.4858150   7.7498716  12.1126008   1.4963873  68.2340145
  12.9350221   1.4421476  67.7472734  12.1018589   2.3857541  68.5877657
  82.1065998   2.2649360  52.6222181  81.1900806   2.3527095  52.3604679
  82.1588516   2.7142218  53.4658098  66.0701084  24.8210073   9.5342088
  65.7206631  24.0845847  10.0360060  66.7586374  24.4361210   8.9919686
  61.3187838  63.3146858   3.6585677  61.7508650  63.1255674   4.4914979
  60.4979706  62.8237963   3.6976621  68.0866146  16.9911945   8.4069526
  68.9694214  17.3145318   8.2271338  68.1288290  16.0559583   8.2074982
  69.0362024  47.2032738  14.1575384  69.0781784  48.0421495  14.6166182
  69.0869570  46.5470791  14.8525679  84.2233658  53.7695885   5.5552572
  83.7511158  54.2970705   4.9110758  83.6021042  53.6574221   6.2747598
   0.3362430  63.4610176  45.2252245   1.2899402  63.5281944  45.1785278
   0.0362645  64.3660212  45.3101587  13.3639717  14.4521499  65.9838390
  13.3911037  13.5261846  65.7428312  12.6910317  14.5033479  66.6626310
  77.2658110  13.7245858  32.4003863  77.1777010  13.6644673  31.4491487
  76.9680452  14.6090806  32.6130795   7.8701186   8.3112288  50.7742357
   8.4081769   8.3943272  51.5615225   7.8815037   9.1847700  50.3830481
  50.2990484  23.2284594  65.4562807  49.5004845  22.9544902  65.0052023
  50.9773827  22.6433611  65.1190138  14.2156971  79.0064287   1.6292940
  14.5968056  79.4038057   2.4122897  13.5572410  78.3984709   1.9655274
  39.6778011   9.8077172  41.0910416  39.2230439   9.4577456  40.3249168
  40.1525545   9.0584242  41.4507675  23.5552120  65.2207851  56.0456467
  24.3546057  64.7578192  56.2963772  22.9883313  65.1532698  56.8139696
  73.5465813  48.5314322  36.3084769  74.1816902  49.2357874  36.4379048
  72.8025484  48.9554119  35.8808184  12.0568013  71.6500807  57.6754522
  12.4222898  71.3755798  58.5164642  11.4429748  70.9536028  57.4422836
  58.7531137  40.8293629  51.4910889  59.5947647  41.1869049  51.2082195
  58.2477093  41.5946770  51.7651320  44.5032167  24.1372538  14.6775448
  44.4038343  23.2704210  15.0711882  43.6329794  24.5306873  14.7417974
  13.1300080  64.5303106  57.4428558  12.3964715  64.6916723  56.8494606
  13.7834835  64.0879202  56.9011068  72.5350666  75.2868032  36.7917776
  72.7139711  74.3592072  36.6375303  73.2661390  75.5849695  37.3329449
  49.9459648  34.6110415  10.7981789  49.8418140  33.6970091  11.0626185
  49.4772434  35.1090336  11.4679098  54.4871473  23.3844161  30.1420593
  53.8146544  24.0117574  30.4074454  54.6939182  22.9020000  30.9425282
   8.9474833   4.2878896  63.5816622   9.2939860   4.5460448  64.4357824
   8.0061865   4.1894719  63.7248564  77.2013903  73.7284517  63.4521151
  76.3721943  73.3055878  63.2288313  77.5389719  73.2194710  64.1891479
  29.6843886   8.1623679  55.4787493  30.3728938   7.5041854  55.5735588
  29.5445085   8.2282954  54.5341206  54.1323996  15.6449664  12.3948276
  53.7744713  16.1470938  11.6627157  54.9062347  15.2128708  12.0332932
  38.2906079  38.1696129  62.7750826  38.2916665  39.0983438  62.5433779
  37.4446797  38.0298996  63.2006645   3.2953453  73.7841845  58.2576370
   3.8300142  73.7410784  59.0504169   2.4441490  73.4363937  58.5236073
  70.6359148  53.5162020   4.3569967  71.2424088  52.9482603   4.8322254
  71.1351871  53.8180685   3.5981569  15.7464683  31.8638539  30.4757595
  16.6419184  31.8893886  30.1384902  15.1978815  31.7986345  29.6940756
  65.5265474  15.4713500  12.9477692  65.3927231  15.3077459  12.0141959
  65.7459974  14.6138573  13.3121574   4.9743050  31.1855006   5.5799180
   4.5194492  31.4592075   6.3764250   5.8620894  31.5287662   5.6811088
  67.3371840   2.5289464  45.1639509  66.7106628   1.8189609  45.3040361
  67.0609426   2.9333556  44.3415308  10.5352259  12.8703010  67.4858570
  11.0044432  12.0475781  67.6244020  10.2858055  12.8511262  66.5619230
  77.1778870  70.0185156  67.4902201  76.7311192  69.3497467  66.9712019
  78.0259657  70.1284885  67.0602179  76.1106825  52.9951763  14.9250150
  76.6859818  52.3492575  15.3349555  76.6826677  53.7386608  14.7345114
  44.0148449  74.3145847  15.4825270  44.1513443  73.6817360  14.7774720
  44.5895004  74.0156651  16.1872578  51.2090015   5.3165948  67.4804020
  50.5039120   5.3770936  68.1249332  50.8148146   4.8616371  66.7361832
  48.5053825  10.5319619  22.1336818  49.0285301   9.7653484  21.8994808
  48.5151339  10.5452931  23.0907393  60.1441574  14.4410372   4.8840919
  59.8151970  14.2898333   5.7701808  60.5810308  15.2913404   4.9326459
  48.4918690  49.1016769  15.1840615  47.6107073  49.4042969  15.4036188
  48.9766550  49.1582727  16.0074782  29.2197824  68.1876945  67.4660683
  28.4072709  68.3933401  67.0037174  29.8298025  68.8737392  67.1950483
  18.6895788  79.1054106  62.2089958  19.4800723  79.4742012  61.8148565
  18.8390088  78.1599522  62.2057199  61.4357519  26.4268327  19.3983531
  61.6459894  26.5592742  20.3227401  60.5877256  26.8552065  19.2818332
   4.9428964  49.0168715   2.6645234   5.0540400  48.2164860   2.1514329
   4.7643834  49.6957159   2.0137274  62.5850534   2.4178590  24.0308428
  61.9020796   3.0856740  24.0925169  62.1078491   1.5883210  24.0114188
  63.9979124  61.2504768  48.7401199  63.5050535  60.7259607  49.3711567
  64.0592766  60.6949854  47.9630136  22.9019856   6.2661397  58.6201572
  22.3519278   5.8722585  57.9430103  23.7468672   5.8256489  58.5286427
  26.3316989   1.2486481  54.8291683  25.7697225   1.9924062  54.6118212
  26.5450358   0.8544415  53.9834023  40.6911516  15.3789377  16.5644372
  40.2074242  15.4898679  17.3829317  40.9849882  14.4681120  16.5814352
  73.2504845  24.7719026  47.7917004  73.9139795  24.1393924  48.0672646
  73.6113310  25.6222224  48.0426502   6.7013508  58.7429190  37.1542382
   7.1821028  59.4139814  37.6387763   6.0951883  58.3723640  37.7957106
   6.6861933  36.1282468   1.0954323   5.7774472  36.2499714   1.3703790
   6.8514419  36.8496513   0.4883893  73.6281538  38.9537954  24.8754215
  73.0616522  39.1835666  24.1388679  74.3371582  38.4446788  24.4825530
  53.7504816   6.3769484  58.0618572  53.1407452   7.1139669  58.0263519
  53.9378548   6.2658024  58.9939356   4.2524564  19.3107224  52.1902704
   4.5862314  19.6394873  53.0249786   4.5295423  18.3948374  52.1655512
  29.5816016  45.3679657  19.9351144  29.9099612  45.2990007  20.8315825
  28.6335325  45.4559231  20.0334048  78.6170053  36.9386101  18.7165391
  78.7633610  36.7182517  17.7966189  78.0071115  37.6759481  18.6921012
  79.2802668  31.8735242  12.8137660  80.1049519  32.1511388  13.2125807
  78.9828157  31.1461687  13.3603072  51.9315529  79.1654396  57.6656199
  51.1486483  79.1083717  57.1178627  51.6166782  79.5194817  58.4973288
  42.6357317  43.6837578  12.2114027  43.4686184  44.1267347  12.0492315
  42.6798487  42.8887606  11.6801119  83.6643600  40.1315212  35.9974074
  83.6697102  39.3799376  35.4046798  83.9861679  40.8588648  35.4648304
  21.8138003  24.7842884  26.8636894  22.5155997  25.1506495  27.4017334
  21.5779519  23.9666533  27.3019600  55.8087826  31.2736320  10.1571727
  54.8900080  31.5137434  10.2773225  55.9740019  31.4173079   9.2253506
  26.0943794  11.4767766  57.9531813  25.8341265  10.6779170  58.4117889
  26.8221235  11.2054884  57.3936987   2.1258253  34.7737050   4.7758773
   3.0808690  34.7813845   4.7121263   1.9068134  33.8648915   4.9816084
  64.2469501  52.8933430  21.1377525  63.9022446  53.7611866  21.3481236
  63.9033318  52.7043486  20.2645731  49.4195700  34.6886754  59.3643332
  49.9616432  34.2165661  59.9963951  48.8450480  34.0186572  58.9938831
  24.1328573  67.3558855  66.3211346  23.8212943  68.0402184  65.7288074
  23.3891749  66.7599678  66.4108753  83.4690857  40.5712843  26.5337944
  83.2822704  40.9429026  25.6716871  82.6558399  40.1350689  26.7879224
  34.2682147  21.2950516   8.3141059  33.4694266  21.8040633   8.4522361
  34.4221783  21.3423133   7.3705518  48.5733080  68.4802151  65.2667809
  49.3685722  67.9478216  65.2484989  48.8693666  69.3609715  65.0368929
  59.0748453   2.4897574   8.8779724  59.2971754   2.1462369   9.7433019
  59.6463203   2.0122284   8.2766306  62.4341869   6.9669598  53.6300850
  61.9364262   7.7838719  53.5966396  61.7861223   6.2843168  53.4561825
  48.6184883  12.4398196  53.1298208  49.2648363  13.1415164  53.0517864
  48.2250404  12.3787117  52.2593594  37.6443028  17.1432376  11.3984692
  38.2198524  16.6319788  10.8296192  37.3547459  16.5221262  12.0667577
  78.2316637  53.9095545   2.3646976  79.1692400  54.0829563   2.2803172
  77.8145552  54.7495604   2.1732849  73.9974546  37.7740073  35.6912231
  74.5164537  38.1743717  36.3887763  73.7987423  38.4965634  35.0956941
  77.5730371  40.6215429  11.6506493  76.7266369  40.3985786  12.0381117
  78.2151937  40.1856709  12.2109020  50.3218269  14.3332410   8.1803155
  50.5173111  14.0171993   9.0624356  49.5726824  13.8083375   7.8983730
  80.6901073  51.3514805  18.3820093  80.2105427  51.9360638  18.9689589
  81.1368370  51.9383574  17.7718985  52.4259853  60.1992226  10.4367304
  53.3355522  60.0718880  10.7063675  52.4824238  60.7511854   9.6567416
  10.6876421  25.4469037   5.5941808  11.4045286  25.7153153   5.0194973
   9.9728215  26.0469985   5.3816950   7.4929470  32.1929812   2.4517918
   6.9368744  31.4651799   2.1737278   7.5846523  32.7368212   1.6694488
  43.1615353  73.0052567  61.1294794  43.5152435  73.8936329  61.1731577
  42.3816490  73.0847073  60.5802059  21.4300728  48.1406403  15.4021418
  22.0537353  47.7595091  14.7840643  21.1059690  48.9262152  14.9616182
  77.3870039  75.4296684  20.1046252  77.4834394  76.3704681  20.2523541
  77.7413940  75.0253057  20.8965445  71.5442038  61.1259508  20.7680511
  71.0149479  61.1371279  19.9705589  71.6208887  60.1983929  20.9916353
  62.1175814  70.3479624  29.2913127  61.3086033  70.7916451  29.5461202
  62.5734615  70.9810066  28.7366438  70.7026529  78.3980703  52.6942158
  70.3069925  79.1643238  53.1096029  71.0708237  78.7323570  51.8763351
   0.5206735  53.0161810  13.8364708   0.4323969  53.8149500  14.3564761
  -0.0547328  53.1552553  13.0842757  38.2851219  49.4166899   2.0868452
  38.6396933  50.2912188   1.9265191  37.3781538  49.5707321   2.3512596
  15.2857161  71.5194941  44.0397358  16.0033584  71.2564087  43.4635353
  14.9836588  72.3537350  43.6805105  77.3514462  53.6794424  61.4048481
  76.5352678  54.0516043  61.0708094  77.0871115  52.8612566  61.8254852
  39.6311212  13.8244939  58.6913633  39.0449691  14.0958238  57.9849386
  39.2010331  14.1299462  59.4900846  71.3576698  35.3505135  43.9037371
  71.7838812  35.3031015  43.0479765  71.6949797  34.5928264  44.3816137
  24.4238043  54.9893141  59.0484858  24.7880745  55.2026606  58.1894016
  24.7676873  55.6677198  59.6296406  76.9164801  55.6758213  32.7113748
  76.7152309  56.6099596  32.7671909  76.2374973  55.2527142  33.2369161
  82.8264046  77.8604317  48.4838676  82.2629929  77.8860521  47.7104712
  83.0444717  76.9345522  48.5907745  50.1982403  13.7467945  62.6777601
  50.3699636  13.1766248  63.4271908  49.2515612  13.6921632  62.5472021
   6.2525946  55.8599949  67.6818323   7.1617395  55.9116793  67.9768181
   5.8043236  55.3709984  68.3718777  63.9110136  49.9370003  55.9293985
  63.6230040  49.2717123  56.5544367  63.1004000  50.3384256  55.6163597
  72.8338671   0.3498140   4.3372306  73.3588791  -0.4425274   4.4503134
  73.4653044   1.0203756   4.0767166  83.6791134  48.4681129   4.0301466
  83.5603714  49.3708706   4.3253785  84.4573498  48.1638288   4.4970423
   5.9276998  43.8685751  60.4650497   5.4221785  44.5997524  60.1099968
   5.3124177  43.1354189  60.4769754  62.1214294  62.0340204   6.1582214
  63.0372000  62.0303869   5.8796936  62.1040726  61.4703226   6.9316381
   8.5683060  72.6359892   2.6673862   9.3204784  72.0439863   2.6685426
   8.2627720  72.6332808   1.7602625  39.9220085   4.9055752  64.2530966
  40.4305983   5.5913985  63.8204145  40.0681067   4.1254130  63.7180901
  67.0502853  52.9631901  53.0080271  67.9759645  52.7967405  52.8301430
  66.7587566  52.1948147  53.4987831  23.0055428  69.3119907   0.5595021
  23.6254501  69.4195986  -0.1618631  22.2563863  69.8551226   0.3145493
  21.5602636  44.6248341  45.2652788  21.9893003  44.3626738  46.0797930
  21.4539266  43.8084078  44.7770452  79.9445105  72.5259829   7.8864020
  79.5940495  72.8565264   8.7135363  79.9673891  71.5756702   7.9986882
  21.1729884  73.5372019  58.5893202  21.0786152  72.7054262  59.0535116
  22.0531154  73.8386631  58.8145447  81.0027218  55.1574802  45.8721685
  81.1617374  54.5112371  46.5601492  81.2151337  54.6990252  45.0591898
  66.2933159  12.1704507   4.9422902  66.4818096  11.2702370   5.2074647
  65.9755945  12.5935626   5.7399505   9.1891241  74.5705748  57.9363012
   8.7435365  73.8891363  58.4396172   8.5489500  74.8387575  57.2771454
  41.4990044  23.5532784   5.5616295  41.8490505  24.4088745   5.8099228
  42.0612383  22.9241300   6.0136247  46.5695333  24.6770000  41.7183447
  46.5580034  23.7885976  41.3622046  46.1929321  25.2181411  41.0243940
  19.6335053  11.9281387  20.3796530  20.3718352  12.3908305  20.7759047
  19.6105981  11.0836971  20.8297920   4.1066682  51.8109703  43.8673162
   3.2093504  51.6104841  43.6011267   4.3701446  52.5329018  43.2966852
  84.1125323  71.6170311  18.5016537  84.0693578  70.8303261  17.9580855
  83.7265225  72.3045874  17.9589832  77.6680470  57.2686911  68.6010456
  78.3447075  57.4379253  67.9455185  77.5807762  56.3155746  68.6146402
  62.3549080  64.3932819  49.1017103  63.1963015  64.3985224  48.6453533
  61.8527126  63.7020111  48.6702347  24.6227837  10.5291593  50.1210642
  23.9564824   9.8840618  49.8841572  24.4826818  11.2533069  49.5109701
  77.7902222  62.0447683  40.1991653  78.0557299  62.4610996  41.0191727
  78.6050129  61.7072058  39.8271465  25.6620407  77.0526409  68.1688929
  26.3993430  76.9754553  68.7744188  24.9030805  77.2001457  68.7332058
  24.4030690  64.4052219  51.2072086  24.6187472  63.9047384  51.9941187
  23.9441586  63.7812614  50.6447983  57.5493145   1.2986863  45.0921535
  57.9625654   1.7155078  45.8482695  58.2649231   1.1676165  44.4700909
  39.0138817   7.2975588  57.8451729  39.4062710   8.0329156  58.3158207
  39.6466970   6.5859765  57.9422617   6.3351309  54.0691900  52.0019484
   6.6620994  53.1700611  51.9720936   5.5982059  54.0359354  52.6119232
  64.7227812   2.8319916  50.7684088  65.3992701   2.1625805  50.6660414
  64.5811701   2.8868410  51.7134857  60.2840662  44.5166874   7.4676532
  60.7298994  45.2452707   7.0356470  60.1797771  44.8037338   8.3748245
  29.5186329  47.1126509  40.7714844  29.1207933  46.8000078  39.9589491
  30.0337362  46.3701725  41.0871172  69.4264460  66.1428356   7.6597744
  68.9692497  65.6817484   8.3630562  68.8976049  66.9251013   7.5028652
  70.6923246  45.4872322  45.3073692  69.8363543  45.2183437  44.9738312
  70.5585146  45.5982113  46.2486506  27.8028941   5.7113302  17.7013886
  28.1840682   6.3454652  18.3086860  28.3340263   4.9229693  17.8137088
  48.0181503   5.4412466   8.1054652  48.1174183   4.4979638   8.2342881
  47.1068764   5.6200802   8.3374918  22.8974342  58.0784512  66.7574883
  23.3391500  58.4032536  67.5421000  22.5687838  58.8661671  66.3242245
  16.9510698  48.9514065   3.0132699  16.7827392  49.6257496   2.3551247
  16.1592221  48.4136248   3.0131221  56.9183826  10.8524919   9.0055525
  56.2331009  11.1906767   9.5819646  57.7350998  11.0432267   9.4668847
  31.4115429  71.0329342  52.2314167  31.1398745  71.0260725  51.3136005
  32.0434642  70.3172016  52.2995090  35.6215429   9.0501827  66.1460876
  35.9007311   9.0300286  65.2307272  34.7716880   9.4902289  66.1276484
  22.1244121  71.2056303  28.9339972  22.1014071  71.5377188  29.8314500
  21.2210035  71.2822104  28.6270452  83.3808517  67.6026106  65.9406948
  84.0217113  67.8149939  66.6192484  82.5579357  67.4878454  66.4159489
  81.1037159  63.9274216  56.1833191  80.9134293  64.7558689  55.7432032
  81.2770653  64.1732550  57.0920277  30.4247785  33.0494475  42.6752234
  29.7260976  32.4266362  42.8756857  30.1436377  33.8658905  43.0882740
  12.9641557  38.6280251  42.0265913  12.8169906  38.8483739  42.9463816
  12.8640950  39.4590497  41.5622425  23.7661242  60.8618212   1.8976977
  24.2885661  60.5015850   2.6142976  23.9878559  61.7928839   1.8841599
  71.8476725  43.3164024  19.4948316  71.0123730  42.9140377  19.7327602
  72.4083710  43.1730270  20.2572560  71.2524748  49.0877867  67.3629475
  71.7867708  49.1759920  66.5736580  71.3682508  48.1758785  67.6298761
  40.2116537  52.5852776  27.8098583  40.1688004  51.7085600  28.1916380
  40.1921272  52.4360895  26.8645597  14.4311869  72.0406866  64.6830273
  15.0928164  72.2881460  65.3289747  14.3908072  72.7861023  64.0839005
  75.4546738   1.8379639  50.1956797  75.1589680   1.7055604  49.2949820
  75.0181818   2.6426753  50.4752254  79.0919781  35.2755833   6.4765465
  79.0513563  35.2201915   5.5218142  80.0277996  35.3090119   6.6749227
  80.2422619  20.8686709  24.2881942  79.5098972  20.7248521  23.6888742
  80.7929897  20.0927401  24.1839457  27.6584721  50.3630400  42.6009989
  28.3161139  50.3887081  41.9059610  28.1514168  50.5336714  43.4035730
  23.1886315  38.2178497  38.3708477  23.5238981  37.4917889  38.8968349
  23.3879852  37.9713655  37.4676681  64.2996264   9.3218064  65.3605270
  63.3435917   9.3445826  65.4019737  64.5011568   8.4879160  64.9359751
  57.7018356  33.8103962  51.0313940  58.2827616  34.5247602  50.7697725
  58.2237148  33.2882023  51.6406488   5.1235574  60.6466055  45.7720137
   4.3925208  60.0745296  46.0055590   5.7964849  60.0520849  45.4404354
  70.7840252  49.0134954  32.1226549  71.2782860  49.6923685  32.5820827
  71.4309597  48.5830593  31.5636921  28.0305696  47.0160103   3.8309595
  27.9670620  47.9630899   3.9543980  28.7760139  46.7535400   4.3710092
  41.8833542  22.7985168  35.6653571  42.7059603  23.0236983  35.2307892
  41.5394688  22.0617700  35.1602054  61.7258501  20.9692407  12.8257370
  62.2296524  21.4546537  13.4790254  61.7104101  21.5434527  12.0600522
  75.9219646  37.3950648  24.2619753  76.2156820  37.2296572  23.3660936
  76.2412548  36.6434503  24.7613335  46.3309717  61.3140059  50.2554846
  45.4410267  60.9915972  50.3979015  46.3091850  61.6980600  49.3789816
  34.3059111  69.8244762  31.1614943  34.2356300  69.2527819  30.3969955
  35.1975417  69.6877098  31.4816833  80.8658600   3.1145787  38.3307528
  80.4473114   3.8883895  38.7079334  80.9151745   3.3018932  37.3933554
  16.3915181  52.7044582  24.5323038  15.5981863  52.7190685  23.9969134
  17.0457995  52.2773743  23.9793634  15.9691489  32.2190166  39.6046829
  15.5909765  33.0981612  39.5867324  16.4887643  32.1653795  38.8025904
  20.1728153  28.4859133   2.7389506  20.8366156  28.0181050   2.2322404
  20.4483962  29.4020152   2.7066502  73.1218147  24.3334293  20.5252862
  72.2714901  24.2243791  20.0995088  72.9107523  24.6445680  21.4055586
  67.0896292  43.1516886  58.1682682  67.1466398  44.1069889  58.1877947
  67.5409937  42.8685093  58.9634514  29.4978666  30.4611182  21.8645000
  29.2936039  30.7703185  20.9819436  30.4347801  30.6287217  21.9661450
  26.7232156  65.0996637  34.0583372  25.9202337  65.0706053  34.5785379
  26.4782667  65.5780077  33.2662416   3.0180281  50.0494146  34.3537498
   2.4765265  49.2664194  34.2541289   2.5909430  50.7073689  33.8051867
  30.5486655  57.0841694   1.8992029  31.5029120  57.0398092   1.8385464
  30.2842879  57.6035309   1.1398620  56.9660521   5.5429554  44.7974396
  57.7521086   5.2991712  45.2862358  56.9541121   4.9455419  44.0496540
  76.0632896  74.5671511  36.4660144  75.7316065  75.1245832  37.1699262
  76.2094879  73.7175608  36.8820047  78.1616068  24.3654871   2.6743397
  78.5467100  25.2408481   2.7151984  78.2035160  24.0431237   3.5746488
  61.7011118  61.2058210  18.1350935  61.1051226  61.3892651  18.8612998
  61.6061068  61.9584179  17.5513124  79.4267035  53.0402613  42.0915937
  80.2107620  53.1195402  42.6349163  79.7117090  53.3110285  41.2188435
  48.3862972   4.9217501  50.0977325  47.7292490   5.0583673  50.7802677
  48.7544346   4.0591007  50.2888966   5.7984847  39.1105938  64.7870541
   5.0608146  38.8807917  65.3520870   5.5188179  38.8489819  63.9097977
  71.2799215  69.2426062  22.4247909  71.4135599  68.4540176  21.8989611
  72.0979881  69.7315073  22.3354840  69.8823261  65.5293036  48.2276201
  70.8044910  65.2975368  48.1174850  69.5658922  65.6825066  47.3373222
   8.1407255  57.8351450  66.2952662   8.4674454  57.8077364  67.1945620
   7.5075769  58.5530186  66.2922335  23.0328012  46.7930937  30.6736064
  23.2216406  47.2538853  31.4910650  23.1062746  47.4660206  29.9968529
  76.0608578  32.1907902  27.6173782  75.7140923  32.3762751  28.4900665
  76.7220879  32.8677750  27.4735236  17.9649973  56.2556744  10.4481494
  18.1744218  56.7764044  11.2235296  18.3141553  56.7645168   9.7164398
   9.8078698  61.3914108  64.9216413  10.6676531  61.0163260  65.1122093
   9.2714298  61.1578941  65.6792259   8.5764748  45.9232807  52.7388954
   8.6222297  46.3878965  51.9032669   9.3063802  45.3047371  52.7093029
  26.6778803  39.0450764  36.5223670  26.6467905  38.4268427  37.2524691
  27.5565314  39.4223881  36.5652680  66.3829708  38.2024145   7.8797859
  65.7589626  38.7655187   8.3377820  66.8131781  37.7058434   8.5758948
  83.3578110  41.2513018  40.1733875  84.0965176  40.6550360  40.0508976
  83.6786556  42.0974016  39.8612857  74.5988989   9.7816575  34.5293522
  75.0250578  10.5155551  34.0866184  74.9178696   9.0058672  34.0682268
   7.7710158  69.3806791  37.6684260   8.4978241  69.6934462  38.2070899
   7.3095256  68.7561655  38.2281089  17.7273333  48.5064411  32.6411414
  17.5380766  49.4432592  32.6938725  16.8663967  48.0881310  32.6350904
  64.1437995  27.6810408   0.3818693  63.6069530  28.3967257   0.0415411
  64.0384983  26.9772768  -0.2583370  27.2927356  58.0983639  19.1769099
  26.5983725  58.6504221  18.8172913  28.0276561  58.2152653  18.5748661
  11.3452554  65.9951210  55.0834322  10.7295990  66.2870646  55.7557154
  10.9768748  66.3225508  54.2628717   2.8745797  47.0859671  55.1414156
   2.6178861  46.6566849  55.9575415   3.0595237  47.9904127  55.3944111
  54.9499035  13.8032603  41.0663939  54.3515396  14.1009367  40.3811312
  54.7312069  14.3427134  41.8262577   8.5876602  78.3613634  62.8744793
   8.7375331  77.4238873  62.9965925   9.1566348  78.6016178  62.1431923
  60.6235456  54.7273970  24.6171761  60.1774883  54.0571165  24.0995002
  60.9071636  55.3772879  23.9741898   5.6422031  51.8640995  28.9332056
   6.4760637  51.4692736  29.1881967   5.0245774  51.1329079  28.9216733
  51.5470123   2.0683466  52.0413494  51.3095379   2.5144917  52.8542376
  50.7731438   2.1563767  51.4849281  81.7467213  58.5798740  17.4901068
  82.5160789  58.7357378  16.9423604  81.9934177  58.9173698  18.3511949
  52.1150208  12.2468555  68.2294798  51.2340927  11.9948018  68.5063648
  52.2862291  11.7088890  67.4564886  64.6078253  15.7994366  60.5371141
  64.9079943  15.9662998  59.6436453  65.3963852  15.8800435  61.0736895
  18.6417592  11.4100623  29.1494656  17.7943611  11.7432451  29.4446564
  18.9421928  12.0541513  28.5082793  80.2266026  41.1474419  14.3895817
  81.1360645  40.9310389  14.5951927  79.8984528  40.3809977  13.9193559
   9.1334057  27.7469969  65.5187654   8.3364087  27.4831080  65.9785366
   9.8327047  27.6212788  66.1601734  42.0941782  60.2279425  26.5576220
  42.6168871  59.4937134  26.2352586  41.2381268  60.1117182  26.1454296
  25.9476972  58.1558514  43.8931036  25.1816082  58.6833382  43.6670637
  25.6522608  57.6017332  44.6155357   3.2227647  58.5398388  52.7116632
   3.4617487  58.1742716  51.8599129   3.8172036  59.2807579  52.8296185
  78.9984846  51.1084032  32.1584058  79.8151445  51.1115265  32.6576924
  78.8744640  52.0206499  31.8963814  47.4253273  11.9587910  63.5990095
  47.3873758  11.9072640  64.5540667  47.3546362  12.8937840  63.4065962
  45.0253248   7.6462835   0.1043093  44.7667503   8.3514470   0.6977029
  45.3856611   8.0963004  -0.6598095   6.5928763  70.5793428  62.5670242
   6.6935641  70.1790810  63.4306717   7.2862470  70.1849508  62.0379496
  14.5838439  60.6450176  45.1470804  14.7354221  60.3463221  44.2503977
  13.8858712  60.0773287  45.4738760  81.8623066  73.9427567  46.5136147
  81.2779427  73.4386110  47.0798159  82.7333069  73.8068056  46.8865919
  29.6485615  46.9353485  16.0597944  28.9848328  47.4961376  15.6582797
  29.3948197  46.0469866  15.8094811  77.4069309  77.3670101  52.7810478
  78.0427408  76.7283297  52.4584532  76.5608835  77.0359612  52.4796486
   9.5825320  32.0018125  63.6350632   8.8168752  31.4667630  63.8441610
  10.0060964  32.1543026  64.4797945  27.1525621  13.6892641  20.1890683
  26.8332314  12.8387380  19.8876250  27.0261550  13.6700654  21.1376905
  71.9124174  27.5967908  14.9434340  71.1851406  27.0571589  15.2534342
  71.8372202  27.5749493  13.9894426  32.9313993  55.1915216  42.5101328
  32.8776217  56.1454773  42.5676727  33.5684109  54.9466228  43.1813002
   5.5089164  76.5217161  34.8933983   5.5056828  76.3497210  35.8350134
   5.1932722  77.4218130  34.8132515  44.9691343  34.7881675  49.6158123
  44.4731522  34.1179681  50.0859833  45.7102060  34.9840140  50.1891232
  71.9685745  67.7986240   9.9923629  71.0178566  67.6971388   9.9468172
  72.3136806  66.9522858   9.7080243   7.1085769  60.4179430  33.3563614
   6.4251155  60.5202723  34.0186620   7.9238147  60.6017447  33.8230920
   3.1243736  63.5814285  68.4110165   3.6796880  64.3541288  68.5148811
   2.5741410  63.5748816  69.1942358  81.3925743  65.1970434  26.6887689
  81.0515404  65.1583576  27.5823212  80.6119823  65.2262068  26.1355424
  32.3900104  59.6694899  65.6309080  32.4602056  59.6820688  66.5854454
  31.4584851  59.8051405  65.4574394  16.4107060  50.0658846  26.1173773
  16.9378853  49.9335289  26.9052839  16.9659090  50.5938768  25.5436158
  47.3270464  56.4843655  43.3512259  47.9043055  56.5312672  44.1133261
  47.3135519  55.5561733  43.1177425  79.0606499  53.2219553  39.0169501
  79.6477461  53.9513016  38.8179469  78.4095764  53.2403231  38.3155227
  74.8676872  64.2091560  52.8791857  74.4600153  64.3271494  53.7371588
  74.6881199  65.0263691  52.4142647   9.6686465  41.9423103  25.5889177
   9.0997714  42.1900749  26.3177705   9.0733457  41.5792418  24.9331522
   5.2355349  67.1167755  63.8126755   4.7846854  66.5007687  64.3901730
   5.8114880  66.5681934  63.2801628  36.8902159   1.2608768  36.1111426
  36.3071227   0.9571353  36.8068266  36.9068933   0.5405017  35.4810524
  75.0311852  67.2017145  26.3668346  75.3962755  68.0400372  26.0837269
  74.4095087  67.4321318  27.0572400   6.3862038  47.2934198  52.8895712
   7.1515918  46.7191935  52.8635502   6.7352068  48.1660748  52.7081823
  79.3598604  62.8581429  27.3404264  78.8873243  63.6899328  27.3077774
  79.4119883  62.5762892  26.4271498   3.5742450  66.8804693  23.4883308
   2.6520562  67.1237803  23.5695648   3.6954847  66.7095613  22.5543475
  79.5567560  52.4844646  35.5268073  80.1651001  52.0039701  34.9653149
  79.2052603  51.8217707  36.1213827  81.0137272  52.0220852  21.8957233
  80.5430412  52.5577116  21.2571406  80.3857327  51.3461971  22.1507144
  26.1168766   6.2070721  30.6044102  25.3497195   6.6656762  30.9470224
  26.7827439   6.3134980  31.2837696  64.1734505  63.9810705  31.1216450
  63.3172369  64.3585920  31.3231564  64.0421581  63.5175037  30.2945399
  30.5703568  65.3750944   7.1018976  31.3455153  65.2815533   6.5481746
  30.8849120  65.8388138   7.8779459  10.9315538  76.5652943  35.7185912
  10.1482701  77.1143389  35.6832814  11.5736580  77.0942211  36.1920547
  74.1811705  36.9669437  43.0079460  73.3903885  36.7433023  42.5171518
  74.5475817  37.7186275  42.5421715  78.6299610  31.8937564  48.7549925
  79.0643358  31.1425400  48.3509827  79.2239809  32.6274824  48.5968351
  15.2795577  76.7635012  48.4948492  15.3405488  77.6850414  48.7463951
  15.2621245  76.7770910  47.5379038   5.3045201  61.7215586  59.4694567
   6.1351186  61.6463184  59.9392176   4.7102422  62.1316481  60.0978613
   2.1922639  37.8060699  41.5217638   1.4148793  37.5480890  41.0264349
   2.4298593  37.0235896  42.0192575  31.6697097  79.5326042  58.0465555
  31.0061908  78.8566971  58.1848574  32.5020576  79.0608883  58.0768108
  71.9572306  75.6148529  59.2210960  71.0126305  75.4903221  59.1291428
  72.2083426  76.1214066  58.4487104   1.4621423  78.5291815  15.2535295
   1.4334145  78.8849354  16.1416996   2.0460790  79.1198158  14.7777128
  63.4865236  13.4264123  52.7352810  63.2882214  13.2031095  51.8258619
  64.4397736  13.3632946  52.7950144  62.5410652  49.8613977  36.1015105
  63.1666613  50.5601788  36.2927413  63.0857134  49.0961027  35.9173536
  23.9392233  14.4590425  49.7917366  23.4616399  14.9621439  49.1321611
  24.5844078  15.0737989  50.1410770  52.8203201  32.9105592  66.8317604
  53.5684443  33.3996749  67.1742535  53.1841755  32.0618916  66.5795660
  49.3069506   3.4231809  18.1199324  49.6912718   2.5465760  18.1101942
  50.0414419   4.0087697  17.9359686  66.0836363  48.6171436  23.6992264
  67.0036364  48.4693146  23.4801865  65.8290386  49.3712997  23.1675673
  64.5284414  49.5659637  28.7630653  64.8346806  48.6645031  28.8621569
  63.8408327  49.5137262  28.0992174  16.1054015  61.6478157  51.6852999
  16.0628688  61.1615324  50.8619165  16.5925896  62.4428654  51.4690208
  36.1184025   9.8795062  28.4630871  36.9929838   9.6260405  28.1679726
  35.9379482   9.2997766  29.2030740  57.5639200  24.3071485   1.9661991
  58.1444883  24.8378062   2.5117028  57.1814346  24.9294734   1.3476124
  59.5307016  12.6884341  32.1577191  59.8961115  12.9662192  32.9976845
  60.0969219  11.9698906  31.8760848  24.4342923  72.9667807  38.7239814
  24.1903448  73.8720036  38.5308599  25.3297257  72.8848076  38.3957863
  64.4035435   7.8904736   1.1569098  64.1760588   8.1904554   2.0369631
  64.5972681   6.9592094   1.2639159  15.0958574  32.7104139  24.5019341
  15.7690251  32.6445913  25.1792407  14.2826688  32.8550196  24.9857163
  59.6348906  63.1738472  39.0864539  60.0341511  62.6215410  39.7585988
  59.0986252  62.5724602  38.5697460  70.8436251  36.1796570   3.2800099
  70.2241373  35.8736062   2.6175895  70.2989721  36.6220570   3.9310601
  25.1451087  28.6674571  39.9204063  24.8704410  28.0815530  40.6257439
  25.9667468  29.0476847  40.2311659  77.6849985  41.6890955  68.0250978
  78.0299377  41.9827747  68.8683081  76.8890285  42.2055721  67.8989410
   4.2903191   9.7608936  37.9973841   4.1316673   9.3899977  38.8654256
   5.0521266  10.3283894  38.1149864  25.2061105  44.0202856  54.3440771
  24.5818210  43.4477329  53.8983440  26.0067606  43.9526892  53.8238621
  26.9904447  71.7956066  42.1902418  26.7074513  72.5551414  42.6994133
  27.6217675  72.1490908  41.5635729  25.5238295  47.2418165  36.1368418
  25.6017804  47.3159742  37.0879769  26.4146185  47.3741722  35.8124804
   0.7081578  75.7046747  40.9768581   0.7760055  74.8577547  41.4177132
   0.2146410  75.5198908  40.1777792  68.6012936  71.0944891  42.9317236
  68.2311392  70.9517288  43.8028383  69.1571283  71.8673658  43.0313873
  80.8672619  10.3919077  68.9181709  81.3768101  11.1253500  68.5737085
  81.0979557   9.6540028  68.3538008   6.1774939  75.0917959  68.4731960
   5.4275352  75.0357914  67.8810358   6.8864191  74.6517467  68.0041409
  58.9408255  15.7038915  26.2866712  58.9260483  16.2444746  27.0764709
  59.3216324  14.8733437  26.5719914   6.6717499  61.5315342  48.8727474
   6.4010835  60.6399488  48.6535501   6.7958671  61.9592905  48.0254889
  79.3342781  29.2428327   3.7454033  79.8038626  29.8086262   3.1325427
  78.6861086  29.8171926   4.1530964  64.9304056  75.3259850  48.5514069
  65.0852108  75.4385233  47.6135349  64.0388441  75.6467915  48.6871862
  82.3228645  54.4227409  66.4953804  81.4179611  54.7282362  66.4316607
  82.8454494  55.2244425  66.5157080   0.9321705  65.0806046  52.7378511
   1.8478602  65.0431967  53.0141544   0.7439801  64.2002487  52.4126005
  71.1691284  61.3590622  24.3987322  71.1007261  61.8934917  23.6075687
  71.3333797  61.9894075  25.1001024  13.9351380  50.2335644   2.9084972
  13.0306482  50.0011301   3.1185111  14.3862140  50.2274036   3.7527272
  20.3018641  33.4116530  17.1254706  19.6782148  33.1301737  17.7948463
  21.1054063  33.5993719  17.6105595   0.5495235  36.6071534  28.8054132
   1.1113870  37.3359966  28.5421109   0.5870175  35.9974623  28.0684566
  83.3723259  46.1812067  39.2748475  83.2938862  47.0645046  39.6352124
  82.7612114  45.6564236  39.7919321  81.0190582  66.8868351  51.1602783
  80.7176399  65.9991407  50.9669495  81.9202614  66.7733240  51.4622498
  37.0653200  61.2981653  23.3169317  36.1507487  61.1753225  23.0625701
  37.2835302  60.5099916  23.8143182  71.8263769  54.6481609  20.4446936
  71.1119270  54.8982620  19.8588181  71.4189434  54.5924282  21.3090587
  29.3085337  46.2977648  11.0167694  29.3190956  45.3598881  11.2078369
  29.3216538  46.3476419  10.0609601  43.4240961   2.6123700  64.3868160
  43.6434364   1.6838861  64.4645214  42.7540874   2.6438573  63.7039328
  60.5759335  51.6986132  64.0394735  59.9121904  51.5677547  64.7166395
  61.3950157  51.8023252  64.5238018  24.2879224   5.7122582  24.6455431
  25.1700044   5.8525181  24.9897695  23.8181353   5.2807146  25.3591967
  74.9009037  42.5924873  19.9394500  75.2505159  43.2648516  19.3547058
  75.5807018  42.4751377  20.6030297  33.8083172  74.5562553  30.4662538
  33.7013268  74.8362827  29.5572042  33.2459092  73.7859678  30.5473614
   0.5237320  49.8027277  64.0674305   1.0115372  49.8067331  63.2438660
  -0.3046385  49.3736792  63.8530684   2.9155970  29.8783946  24.7426176
   2.9848763  30.7467771  24.3459558   3.6691445  29.8226810  25.3302360
   7.8101945  56.0944843  34.0996265   7.6959556  56.1332941  35.0491905
   7.2514319  55.3691101  33.8206148  15.6105244   3.2653737  66.9001007
  16.4361119   3.2684579  66.4157152  14.9728942   3.6344001  66.2889719
  10.1824653  32.9864025  36.5834355   9.8340797  33.8102078  36.2425494
  10.9454370  33.2447314  37.1005154  15.1674020  36.9548130  38.0827498
  15.3609860  36.4582849  37.2876287  15.9147191  37.5441241  38.1850243
  22.8426862  22.0015454  56.2477160  23.6082077  22.3584747  55.7973719
  22.5517464  21.2798643  55.6902552  42.9232168  69.7112989  17.1136904
  42.0789623  69.9730539  16.7463374  43.3758545  69.2789984  16.3894868
  33.1785846   7.7894479  24.7681332  33.7553978   8.5497659  24.6944094
  33.0067968   7.7092171  25.7063675  12.6409495  44.9003935  39.8768783
  12.0280004  44.2578125  40.2341127  12.9426360  45.3935289  40.6397915
  24.7980618  55.9965706  53.1864834  25.0195909  55.0713301  53.2917833
  25.0981379  56.4084244  53.9967680  78.5339117   4.7429639  62.3186159
  78.0144691   3.9742273  62.5540972  78.1235790   5.4644901  62.7953339
  11.7141247  57.7116823  38.0253911  12.1988952  57.1465588  38.6269403
  12.3653805  58.3364487  37.7063823  62.2592068  20.0628519   4.0837675
  63.0879211  19.5937490   4.1807389  62.2361994  20.6647134   4.8277199
  13.2233858  35.7294846  41.3140011  13.0438769  36.6407371  41.5455723
  12.3718393  35.2959299  41.3699532  39.6712947  10.1106751   7.4292117
  40.2772141  10.2889156   6.7099595  38.8727736  10.5822527   7.1921247
  28.8954735  27.5755763  36.7113113  29.0987062  26.6402102  36.7160368
  29.5930052  27.9748607  37.2311711  15.7912588  47.4310875  11.8691444
  16.0400605  47.6757669  12.7604711  16.3343906  46.6685629  11.6696453
  23.6013126  43.6332560  35.8485389  24.4242358  43.2099152  35.6039739
  22.9484034  42.9351664  35.7974172   1.8307140  43.4824133  32.0673990
   2.4800198  42.9335356  31.6276622   1.6947982  44.2178917  31.4700484
  22.4202681  72.9201317  21.7673230  23.1891060  73.1672335  22.2811937
  22.7011132  72.1516705  21.2705112  18.3277225  58.8022709  38.4802580
  18.2326758  59.7536564  38.5256982  17.5273013  58.4622288  38.8801694
  25.8083797  28.5514665  27.9050469  25.2781653  28.4034920  27.1219707
  26.7099714  28.4179235  27.6125908  31.1319160  74.7598457  59.8381233
  30.5061221  74.4474983  60.4916191  31.9454813  74.3007946  60.0469685
  57.5068903  48.9840508  51.4873028  57.8908062  48.3649969  52.1082830
  58.2011700  49.6228695  51.3257122  83.4632778  44.8850060  35.3468418
  83.1920910  44.4480038  36.1541319  84.3668079  44.5993471  35.2117348
   9.9575412  57.8791094  63.8982487   9.9484253  58.1538010  64.8151398
   9.5381778  57.0186710  63.9018154  70.5895758  61.9862175  45.9278011
  70.1607895  62.4281883  45.1949739  71.5227604  62.0256948  45.7184362
  34.8609734  39.4065857  30.1783490  33.9964795  39.5442176  30.5655670
  34.7086978  39.4412756  29.2339778  46.4766884  46.3776159  20.4165101
  46.2655544  46.8674612  19.6217096  47.2482395  46.8187904  20.7719064
  74.2244597   0.4401446  68.9857881  74.4411071  -0.1897096  68.2983457
  74.6879466   1.2387849  68.7336171   2.7802950  20.2610850  10.3717625
   3.5547367  20.6535554   9.9687237   2.6823905  19.4172084   9.9307215
  58.4172583  56.3084078  39.7008014  58.3599567  56.2827158  40.6559372
  58.3166409  57.2342539  39.4796395   7.7543181  63.6551666  37.5019383
   8.5852492  63.8417530  37.0649385   7.1756417  64.3676710  37.2304630
  26.2382889  71.0322428  55.0702190  26.5420103  70.4866314  54.3447542
  25.2852321  70.9449863  55.0528526  80.7449722  58.2512903  39.1335678
  81.5966892  58.3912945  38.7197924  80.8620834  58.5583210  40.0325918
  28.9862967  21.3674378  44.9032545  28.1902337  20.8614492  44.7404957
  29.1702485  21.2321186  45.8328152  51.4978456  56.0356188  21.0884953
  51.6609192  55.6422901  21.9457746  52.0713520  56.8015766  21.0634017
   5.3491807  62.6286459  63.7153339   5.0581557  62.3311138  64.5773125
   5.8640242  61.8987370  63.3712435  18.2301223  52.6346064  31.4459157
  18.5700130  53.4341717  31.8476653  18.5741508  51.9274378  31.9916177
   5.3670037  78.8961124   4.4071007   5.8117265  79.3896008   5.0962448
   4.4376636  79.0823555   4.5407856  25.9601808  51.4940071  55.9442234
  25.5837417  51.3527393  55.0755644  26.4558220  52.3086405  55.8608770
  82.6398563  32.5365520  24.5078135  81.9496536  32.3451567  23.8728094
  82.2691250  32.2749758  25.3506470   4.2110559  44.1862679  20.0692439
   4.5643908  43.8436365  20.8902121   3.3832595  43.7202406  19.9517632
  18.3904707  63.6438370  61.2160873  17.8935838  62.9202652  60.8342743
  18.6082077  64.2042017  60.4712296  26.2376046  52.3045492  27.7104688
  25.5552769  51.9890451  27.1179152  25.7620025  52.6059532  28.4845448
  62.4728251  75.3157377  64.8852396  61.7589951  75.4681396  65.5044746
  63.0832624  76.0363102  65.0413561  18.4184706  41.6685104  38.6413360
  18.2831192  42.6154613  38.6067486  19.3140161  41.5661764  38.9634490
   2.5149688  40.6884003  41.0126591   2.4691208  39.7909379  41.3423395
   3.0688944  40.6296015  40.2342367  24.0772891  58.9583826  57.4893522
  23.8314366  58.7174559  58.3825159  23.2470322  58.9971399  57.0145845
  66.8296468  44.5123117  -0.1841125  67.1691739  43.9753114   0.5318346
  65.8822357  44.5218285  -0.0479040  70.2337933  16.0106909  25.4347014
  70.8032942  15.2960026  25.1498842  69.3779421  15.6002343  25.5582857
  27.0415521  72.8828621  57.1629953  27.3644423  72.5403786  56.3295221
  27.8242111  73.2088089  57.6073360  10.4762709  22.3558068  17.0568943
  10.5484700  23.2734632  17.3194325  10.7442558  21.8629932  17.8324926
  11.5248346  52.4571466  11.9466949  11.2418354  51.6428661  12.3627353
  12.4576569  52.3272085  11.7758489  32.0972323  71.7488289  33.4107304
  32.6514792  71.6939020  34.1892052  31.3484979  71.1866331  33.6096358
  28.6801600  55.4783535  68.7548018  28.9398241  54.7416449  69.3080378
  28.1468320  55.0835180  68.0649471   3.1118679  78.2104301  28.6828089
   2.6871073  77.8424168  27.9079700   2.4189806  78.7000704  29.1259694
  11.0613739  65.4418325  43.4565210  11.2148154  66.0768127  42.7568913
  11.4552140  64.6309566  43.1346416  22.4079275  70.1417923  61.8246794
  22.3646951  71.0289335  62.1815348  22.5702333  70.2673578  60.8897352
  80.4657173  11.2836123   5.2497584  80.8700466  12.1015537   4.9604103
  81.1517715  10.8409178   5.7493412  36.4159322  68.0525684  50.3069305
  36.0445261  67.2411537  50.6531906  37.3556733  67.9752731  50.4716778
  15.9601164  65.3380489  44.9552345  15.9654653  65.4108858  45.9096479
  15.2401793  64.7366190  44.7649622  81.9282532  65.0203800  21.1421871
  82.6303577  64.4285488  21.4123988  82.2825241  65.8967733  21.2927246
  69.8882341   2.1460418  45.3672743  68.9521599   2.1412818  45.1673412
  70.1054001   3.0720174  45.4751682  64.0061808   1.6829969  28.3780289
  63.0653763   1.8207160  28.2678103  64.1156387   1.5151235  29.3140149
  28.9641428  16.5135920  27.1159291  29.0123057  17.4670231  27.1858001
  28.5644197  16.2329972  27.9391670  72.2551680  58.7154770   9.3829805
  71.3285065  58.8275290   9.1709042  72.6650476  58.4824753   8.5499483
  46.0517645  76.2602568  33.5188580  46.2158346  76.2612867  32.5758243
  45.8486938  75.3479862  33.7256408  74.1472340  10.0573516  45.3579998
  74.9044800  10.6198359  45.5205584  74.4681549   9.1704881  45.5214500
  66.7963648  18.8249099  24.8884869  66.2896824  18.5439217  24.1265464
  67.1108627  19.6990597  24.6578693  32.9767776  34.8809814  18.1232882
  32.8294420  35.3897977  18.9205527  33.7836528  35.2409911  17.7550805
  66.6281652  65.4764605  42.5600195  67.3729038  65.9390116  42.9442692
  66.8817854  64.5537472  42.5825644  32.3961210  67.7139282  19.0601265
  32.8789115  68.0608368  18.3099258  31.5356684  68.1295252  19.0041637
  17.0802665  13.9635217  56.9006252  17.0590210  14.7127199  56.3052416
  16.2180960  13.5584545  56.8067408   1.3247776  32.3549795   4.9493578
   1.7547090  31.5232944   5.1485825   0.6205138  32.1216917   4.3445259
  24.9051595  58.1605911  48.7453032  25.1669312  59.0558052  48.5301256
  25.2365637  58.0208063  49.6323586  66.6874456  58.7785959   4.3308675
  67.1108294  59.5859051   4.0389270  66.0789824  58.5586214   3.6254516
  82.0231724   8.2192910  49.8758030  82.5089741   7.9147255  49.1093349
  81.3488388   7.5537372  50.0119781  69.4827557  58.4924555  10.1122057
  68.6594486  58.8053608  10.4870200  69.3048859  57.5841475   9.8681223
  25.3015566  50.1231861  23.5357404  24.8410225  50.6169224  22.8572369
  25.0980210  49.2074442  23.3454084  42.5720072  19.5558381  47.2916412
  42.3689604  18.9559805  46.5738821  42.1227789  19.1826427  48.0500269
  81.4117908  46.8370485  46.0839653  81.0311794  46.8260717  45.2057600
  81.5882969  45.9169197  46.2800217  38.9123011  60.4561663  28.6959767
  39.7712445  60.8745480  28.7542987  38.8626266  60.1357174  27.7953792
  14.4615579  61.7658901  21.2291908  14.6177924  61.5824270  20.3028202
  13.6078727  62.1984816  21.2470245  32.4406266  67.5063610  47.5665426
  32.5749254  68.1441259  46.8655014  31.5975165  67.1012020  47.3634624
  22.0627952  60.7018089  65.8754969  22.8848028  61.1652279  66.0360479
  21.6490889  61.1880159  65.1622772  45.7890558  73.6921215  21.2828183
  45.4278517  74.1636467  20.5322003  46.5494967  73.2290125  20.9314013
  68.0464888  67.8009033  43.4205484  68.6627531  68.5307074  43.3586168
  67.4975252  67.8841496  42.6408434  13.9547253  63.4244347  45.0375843
  13.1943583  63.8490820  45.4347610  13.8961840  62.5126886  45.3230953
  13.2343888  69.9598026  31.4056110  12.2939861  69.9807549  31.5829062
  13.3874798  69.0941715  31.0268259  59.0356541  53.0632830   8.0443954
  58.5482597  53.1475735   8.8638914  59.7741747  52.4946785   8.2623565
  14.7234285  65.7879543  39.2220831  15.3847194  65.5553102  39.8738527
  15.2107811  66.2524176  38.5416460  30.4999113  12.6586282  31.9686627
  31.4071774  12.5763905  32.2624922  30.0305367  11.9746792  32.4462962
  43.9118481   6.9499916  19.3032289  43.9868593   7.4740076  20.1007318
  44.8105478   6.6880357  19.1033494  40.4574108  70.8744192  29.4251823
  39.6165490  71.3310814  29.4504333  41.0443544  71.4782953  28.9701414
  72.1641159  59.1613150  44.6588469  71.2778616  59.3013096  44.9922943
  72.3285913  59.9149179  44.0920448  76.2954903  11.5589297  45.8093166
  76.8285608  11.3477206  46.5757751  76.1829185  12.5086081  45.8501911
  68.5345888  18.4489000  58.3823872  67.6695919  18.8544142  58.3226252
  69.0231895  18.8173020  57.6463270   2.8716856  73.8780403  30.9876227
   3.2072711  74.7308683  31.2638378   2.5407395  74.0263510  30.1017833
  72.0325279  44.2945766  56.7083311  71.6690350  44.3245888  55.8233452
  72.6608706  43.5728693  56.6848278  59.3479729   2.0491147  47.1467495
  60.2583933   2.2401167  46.9211769  59.0770531   2.7863255  47.6938820
  76.3855076  29.2529082   2.9035723  75.7254887  29.8776531   2.6030692
  76.5747023  29.5186710   3.8034642  80.5922222  79.1171837  59.2897463
  80.9327602  80.0065041  59.3865776  81.3670731  78.5810184  59.1213512
  17.9893339  42.5079727  32.2855663  17.3971820  41.9460154  32.7853584
  18.7946332  42.5272322  32.8026295  23.8209248  66.8287230  30.6270170
  23.6588740  66.4141703  29.7795987  22.9481769  66.9907713  30.9851789
   4.7229657  54.2357588  28.0061007   5.0348794  53.4206676  28.3992577
   5.4797488  54.8210907  28.0360746  34.5675898   9.7000301  26.1561155
  35.2279902   9.4317156  26.7949510  34.0238404  10.3329253  26.6251683
  29.8446751   8.6041641  40.9136677  29.8584914   9.0227062  40.0529337
  30.4828835   9.0966821  41.4297628  32.2226572  55.3271723  34.8208308
  32.1965647  55.9407520  34.0866137  32.6951051  54.5671463  34.4811463
  18.9192092  16.9773400  13.3567452  18.1530142  17.4765158  13.6395907
  19.6576703  17.4069405  13.7884271  12.8836846   9.9674779   7.2648895
  12.5088799  10.7261968   7.7122140  13.0556989  10.2750003   6.3749051
  20.3825474   8.6925215  48.3360195  19.5390928   8.9330196  48.7193966
  20.6387854   9.4579768  47.8215742   6.1882639  38.3935595  31.7073321
   6.9506818  38.4197378  32.2854900   6.5577930  38.3431864  30.8257771
  81.9675350  74.4668722   0.9060468  81.0961342  74.6596622   0.5600305
  82.4958229  74.2749357   0.1312526  20.2910185  61.8737173  47.3666191
  21.0588765  61.6971493  46.8230629  19.9334145  61.0081339  47.5644016
   6.5158504  78.5859585  14.0452504   7.3255986  78.5608292  13.5354388
   6.4939415  79.4678879  14.4166720  17.4194050  75.6573057  32.4374008
  16.7915678  74.9842691  32.1745729  17.7419972  75.3642130  33.2896113
  83.6813450  40.5032492   0.3870431  83.7574291  39.6036315   0.7050570
  84.4705200  40.6394958  -0.1372456  30.1969123  78.1290007  21.0040402
  30.5109954  79.0219402  21.1463189  29.8069263  78.1486750  20.1301098
  16.8751359  24.6285415  50.6688976  16.6603661  24.4962573  49.7455263
  16.9828296  23.7441349  51.0188389  36.4043689  41.4252329  26.7751336
  35.4904604  41.6408777  26.5893984  36.5939045  40.6773663  26.2085629
  68.2471991  52.0668793  19.4824576  67.6973104  51.8821526  20.2438569
  69.0148497  51.5073013  19.5999956  54.9067163   1.9979659  45.1049662
  55.8585358   1.9391018  45.1874256  54.7078705   2.9183531  45.2769518
  11.6943038  60.9739494  47.7535343  10.7436526  60.9160423  47.8491449
  12.0366979  60.7334185  48.6144304  12.7597237  23.1474876  37.8986907
  12.8788376  22.9465342  38.8269472  13.6022365  23.5074711  37.6215339
   9.6730369   0.5029762  38.2053185   9.8572057   1.4199997  38.4087443
   8.7396812   0.3993161  38.3906126  14.3082297  24.5834827  11.0209787
  13.5744298  24.5156026  10.4101086  15.0858438  24.4667983  10.4751468
  37.0706391  10.3649843  56.7239761  37.7980137  10.5384958  57.3215151
  37.4878216  10.2184200  55.8750296   0.6271627  27.6488090   5.1182717
  -0.2942946  27.8845811   5.0107580   1.0782790  28.4866762   5.2217299
  67.3330975  77.5602913  37.7408433  67.9715109  78.1343460  37.3176122
  66.8281126  78.1416750  38.3093667  72.6530552   1.1375276  21.6777444
  72.7927303   1.2079171  20.7334089  71.9433880   1.7530425  21.8614340
  26.3259101  12.2565258  25.3964710  26.3177276  13.2136726  25.3905010
  26.7289209  12.0256674  26.2334418  25.7350540   2.0078805  20.7898617
  25.0627303   2.4504822  20.2718687  25.7258844   2.4620372  21.6324115
  42.9350615   7.8002185  56.2592125  43.5706520   7.1925586  55.8810520
  43.2281876   8.6642361  55.9697628  82.4414801   4.1609097   0.2109232
  83.3371162   3.8819027   0.0206032  82.4537086   5.1093912   0.0826254
  62.4634027   1.7545736  65.2717638  62.4133730   2.6974726  65.4288292
  62.8607130   1.4000125  66.0671616  10.5573773  60.7451963   5.3282380
  10.6553924  60.8423805   6.2754339  10.9279597  59.8837805   5.1362330
  44.0424395  71.3331079  53.0444622  44.4586039  72.0689344  53.4934568
  43.2832670  71.1198282  53.5870457  13.4908557  70.9581232  45.9932375
  14.0246832  71.1716652  45.2279520  12.5963068  71.1726522  45.7286787
  80.5567932  61.7565584  51.1063194  80.2357960  61.4595413  51.9577742
  81.2668610  61.1509562  50.8935070  55.5373383  16.4530885  45.7447958
  55.4082775  15.8939064  46.5108824  55.3977203  17.3421180  46.0709333
  40.8183432  66.3614559  31.7759562  40.0184298  66.8865681  31.7509079
  41.4368391  66.8407202  31.2245941  38.6924934  70.8758402  50.3304195
  38.6036229  70.0913286  49.7892380  39.2426729  71.4632177  49.8122311
  40.0113010  65.3879023  38.3030629  39.6072102  65.5880594  39.1473866
  40.9208584  65.6699324  38.3999848   4.4618437  61.5596676  37.7929163
   4.1636756  61.6854668  38.6937499   5.3500515  61.2138176  37.8807044
  38.5246921   2.8063750  54.9575901  38.1112504   3.4400842  54.3713188
  39.0134358   2.2247526  54.3752861  19.6878719  71.1563015  49.2514658
  20.5752873  70.8784771  49.4784880  19.1472971  70.8497238  49.9794912
  34.3335319  32.3042846   8.8384110  33.7928152  33.0316281   8.5304689
  34.8932719  32.6904130   9.5120788  20.3892541  65.7317781   6.4619625
  20.8545089  65.2230644   7.1260267  20.7485223  65.4245281   5.6296426
  62.2068405  17.9318798   2.0459194  62.5264883  17.1058273   2.4088156
  62.4458790  18.5890579   2.6995310  78.5823488  50.1175880  40.8604860
  78.9206696  50.9401989  41.2141514  79.0169239  50.0246477  40.0126982
   0.8881974  72.8927088  45.8241367   0.1861726  72.9742193  45.1785755
   1.6918969  73.0294657  45.3225422  83.0746746   5.1809806  22.6764488
  83.2375813   4.5687252  21.9589281  82.2583961   5.6195235  22.4364376
  39.9904275   1.6391955  59.8584747  39.8148036   2.5601709  60.0513268
  39.5378041   1.4772770  59.0307379   1.5808243  47.3883152  65.9255981
   1.0468853  48.1677961  65.7721281   0.9467041  46.6760302  66.0078955
  15.5655324  29.0317965  61.5586281  15.7227528  29.9125671  61.2183952
  15.7623422  28.4521198  60.8227777  20.0138855  51.7034769  33.2903767
  20.3491902  52.5516939  32.9999876  20.7019997  51.3552952  33.8573909
  79.0232515  78.8881493  24.0655279  79.4937372  79.7137880  23.9506865
  79.0287781  78.4864712  23.1967044  77.3582315   5.8653700  44.1356945
  76.8421650   6.4089608  44.7310209  77.2428083   6.2737072  43.2776880
  10.2382767  51.5904140  36.8792605   9.9217558  52.4908257  36.8064284
  10.6452644  51.5488625  37.7446318   2.0104316  43.9595079  22.9191804
   2.9481640  44.1508579  22.9025865   1.7439774  43.9874744  22.0002413
  45.3040361   6.8807799  15.5380702  46.1797905   6.6767395  15.2099729
  44.7848606   6.1026877  15.3349364  45.9679174  10.1342058  28.3235002
  45.1904869   9.6367478  28.5772133  45.7253265  11.0485923  28.4693670
  80.3485203  47.7695990  32.3964047  80.9405899  48.5043812  32.5569677
  80.4297256  47.2215843  33.1769943  15.4034340  32.1559429  16.7402959
  15.2776170  32.3710012  17.6644993  15.0321054  31.2787795  16.6457939
  40.4080296  13.1079042  20.1391196  39.6382332  12.8722703  20.6569242
  40.7920313  12.2686398  19.8853254  16.9326174  63.1085157  42.9242992
  16.3460553  62.3664808  43.0711460  17.4521649  63.1654787  43.7262106
  25.6417203   2.8053999  44.7077847  24.7788501   3.0935615  45.0055265
  26.0447311   3.5933408  44.3431425  77.1952152   5.7823926  35.8736873
  76.9379759   5.0232333  36.3968825  76.7127848   5.6822813  35.0530338
  22.5647593  11.8894565  32.2822833  21.6697550  12.1561003  32.4922895
  23.0949688  12.6650524  32.4654746  25.4827261  75.2186394  63.2176685
  26.3840818  75.0676155  63.5022449  25.0722313  74.3546820  63.2537317
  79.7150040  66.5442324  15.7688320  80.3342342  65.9047079  16.1206734
  80.1470470  66.8917990  14.9885988  59.1745949  12.3995101  59.2561150
  58.3693027  12.0036125  58.9229393  58.9569330  12.6708674  60.1478672
  78.6206913  22.0287347  32.5546789  77.6963472  22.2588444  32.6488996
  78.6652088  21.5502095  31.7268729  61.8027449  35.5553579   2.4360964
  61.9166613  35.4618549   1.4903097  60.8588028  35.4746485   2.5727859
  20.0009775  55.1154757  44.5429611  19.8512340  55.0358915  43.6009026
  20.8997822  55.4364014  44.6163464  82.1639633  75.9972668  65.5156946
  81.8062401  75.8939743  64.6338797  81.3960743  76.1292028  66.0717344
   7.7923244  63.6248922  50.0337982   7.6561105  62.8140450  49.5436811
   8.0133426  64.2741203  49.3660545  78.8342094  57.9222631  57.0599556
  78.9197111  58.5184145  57.8039503  79.6864605  57.9575253  56.6256094
  38.1954885   7.6533341  13.1280601  38.3166814   7.0886844  12.3647022
  39.0839338   7.8392470  13.4319258  48.1845617  76.2553978  40.9474850
  47.2548723  76.1533070  41.1511660  48.3917665  77.1504116  41.2162685
   8.7232983  76.9732189  31.8429875   8.5977769  76.2917042  32.5033021
   7.9451478  77.5255728  31.9179535  41.4783144  14.8082519  44.9637938
  42.2241926  15.3331149  44.6732473  40.7313013  15.4045320  44.9123144
  60.6841564  35.7211900  16.1679184  60.5825949  35.7875180  17.1174026
  61.6309977  35.6986737  16.0293102   1.9737519  33.6405230  25.5201077
   1.4207050  32.9757285  25.9304976   2.1761242  33.2832551  24.6554470
  38.3720493  68.5800791  64.5079041  38.8957024  68.5578251  65.3088570
  38.9774084  68.3075905  63.8183212   5.0248474   9.9336088   8.8728338
   5.5276263   9.4082355   9.4952703   5.5158269  10.7519400   8.7986326
  64.8678350  18.0366158  62.8722143  64.9539042  17.4339473  62.1335554
  65.7675266  18.2844353  63.0852270  51.2629557   2.9715514  34.5009303
  50.4759550   3.3544356  34.1132927  50.9583473   2.1622741  34.9114370
  11.2879288   0.6220799   4.4489244  10.6540751   1.3340947   4.5355096
  11.3183057   0.2214814   5.3177339  28.6625361  78.6098623  31.9263220
  28.5683084  79.1331387  32.7222705  27.7851796  78.2644463  31.7615080
  33.6824346  45.1083755  48.5350990  33.1122041  45.8406258  48.7693691
  34.2200065  45.4434967  47.8175020  70.3655386  73.1665850  63.2442808
  69.6806049  72.5426960  63.4848118  71.0674620  73.0066633  63.8751221
  77.7156830  23.3097148  16.1633420  77.6349783  23.4040380  17.1124578
  76.9380760  22.8150129  15.9048319  52.5953436  59.3549681  34.1342092
  51.9620180  59.4121885  33.4187698  53.4486103  59.4048786  33.7033129
  74.0302229  70.6063414  41.6585732  74.6497631  71.0665846  42.2247648
  73.8981915  71.1976099  40.9174919   7.9272538  47.8971767  25.0277424
   8.6897004  48.2503510  24.5692921   8.2936966  47.4376297  25.7832336
  28.8052487  48.6426640  31.6118193  28.7982297  49.0967703  30.7692242
  29.6209812  48.1418705  31.6072178  23.6158276  37.2901678  22.8535151
  23.6456513  38.2166767  23.0921078  24.5031881  36.9715881  23.0188274
  12.8343558  27.5282407  11.0896337  13.0863261  26.9997120  11.8468642
  13.4671295  28.2463527  11.0775399  17.6884830  57.1095562  55.9699774
  18.1940448  56.3576269  56.2785864  16.9679022  57.1866226  56.5953207
   3.2464385  40.5994606  36.0880518   2.3364174  40.7177353  35.8158302
   3.7219900  40.4425049  35.2723026  16.3444006  57.9746485  50.1904583
  17.1113026  57.6167440  49.7432470  16.0543823  57.2699642  50.7697201
  50.5954123  66.3007307  31.9582415  51.1675024  65.9811211  32.6559472
  49.8181868  66.6230583  32.4145961  35.3349519  16.9496989  52.0767641
  36.1152864  17.3632538  51.7076015  35.1041698  17.4993241  52.8256845
  63.8431168  75.5212927  17.4949086  64.0652370  76.0550022  16.7319882
  64.6766424  75.1408768  17.7719617  68.9436722  24.4115543  25.4911709
  69.0651894  23.9883161  26.3410735  69.3049431  23.7892985  24.8598909
  42.2730780  74.6077824  44.0417004  42.7753878  73.8331699  43.7889433
  41.7518663  74.8185444  43.2670021  59.4916534   1.1533869  43.1744576
  59.8428297   2.0400842  43.0927706  60.2543068   0.5835981  43.0747938
  48.9989614  53.8666964  34.6016240  49.2125225  54.7293520  34.9572253
  48.2461023  53.5753059  35.1159406  41.8144608  63.6010504  32.4517202
  41.7581606  64.4165993  31.9537783  42.7163696  63.5774231  32.7714586
  27.0590568  45.5191803  13.3335614  27.1143675  46.4172840  13.6600292
  26.9260621  44.9869633  14.1179657  30.3875756  30.8725691  36.5142441
  30.4852962  31.6952419  36.9937134  31.0198689  30.2809882  36.9222546
  58.0884266  66.9640636  68.7949324  58.6085749  66.6684866  68.0477285
  57.8006220  66.1565876  69.2208242  19.1595733  32.2233820  51.9679928
  19.0304625  31.3970637  51.5024185  19.3651628  31.9628429  52.8658152
  50.0505590   1.7615272  47.2515678  50.4860353   2.3324716  46.6186285
  50.5769491   0.9620693  47.2548056  67.9090452  55.6874418   2.1223705
  67.8568554  54.7524929   1.9239247  68.5173750  56.0369110   1.4711866
  59.2158365  11.5258980   1.7598124  58.7749290  12.3628914   1.9056688
  58.5992432  10.8703601   2.0858666  10.7194889  76.4345026  39.5305562
  11.3254225  76.9863701  39.0360689  11.1082661  75.5605268  39.4951963
  19.6592093  63.1208611  55.8641243  19.3795335  63.2522535  56.7700768
  19.7829628  64.0058088  55.5209208  34.1813207   4.8985389  20.5007553
  33.4590602   5.1142049  19.9107909  33.8404775   5.0863296  21.3752794
  55.8405685   2.7301884  54.0618658  54.9354696   3.0371174  54.0088177
  55.7654810   1.7910016  54.2307520  17.1466184  15.5937767  20.3308845
  17.0548689  16.0503817  19.4946277  17.8822362  16.0288882  20.7619023
  42.3282480  56.5861893  24.8644209  42.0048857  57.3395109  24.3702769
  41.7668486  56.5488338  25.6388021  27.1663237  65.9637690  57.4385500
  28.0973864  65.7430172  57.4634790  27.1473241  66.9206905  57.4252796
   2.4513280  17.6094246  56.7003727   2.2865936  17.4621797  55.7690191
   3.2734215  17.1507597  56.8736362  43.6042261  23.5524654  21.6863608
  44.2350388  22.9026985  21.3763475  43.5661554  23.4166336  22.6331091
  26.6665196  34.2376399  34.4592834  27.5125933  33.8213491  34.6238875
  26.2168717  33.6387753  33.8631225  65.7547808  17.7929485  46.4892149
  64.9854803  17.7168155  47.0536757  66.4986229  17.6945162  47.0835590
  31.9708061  60.7812357  18.1008744  32.1108365  61.4981174  18.7195003
  32.4901485  61.0220051  17.3337066  31.6393447  75.5435181  36.4658093
  31.1751533  75.0887060  37.1685934  31.5467501  74.9684238  35.7062554
  79.0085125  31.6062427  38.2851028  78.4684658  30.8414030  38.4841037
  78.7496901  31.8580985  37.3986435  77.8811121  78.1897211  47.1189117
  78.4415627  77.4901676  47.4546957  78.4799814  78.9179373  46.9537163
  42.0810795  54.3984270  28.1590629  41.5080404  53.6508560  27.9887915
  42.3739624  54.2749500  29.0619516  42.9098034  67.1023846  26.2044144
  42.9358435  66.5141106  26.9590569  42.2089815  67.7218628  26.4077067
  82.9294586  45.3960943  23.6520743  82.6471996  44.7079945  23.0495143
  83.6955357  45.7847786  23.2298303  82.4487495  35.5684972   2.8928691
  82.8028011  34.9223614   3.5039207  82.4616146  35.1271820   2.0435707
  71.4971590   0.5927837  47.3189354  71.2838411   1.1954296  46.6065121
  71.1128521  -0.2416079  47.0499897   1.0586974   2.9381040  47.5791597
   0.8864935   2.1791838  48.1364918   1.8298773   2.6905736  47.0690203
   1.5344952   0.9936083   4.0740317   1.7035982   0.7200757   4.9755949
   0.8241524   1.6311103   4.1463926  77.8205061  16.1951065  35.8508730
  77.4307156  15.5171025  36.4027858  77.1338177  16.8560743  35.7624817
  36.6510153  71.6798019  39.5551443  37.5676751  71.6142082  39.8228431
  36.2538743  70.8634520  39.8585987  63.3782816  66.9266319  60.0839376
  63.7499142  67.7361345  60.4344082  62.6414442  67.2149229  59.5452404
  55.6304169  26.8284202   3.3023036  54.8460102  27.2652221   2.9704279
  55.3183222  26.3026834   4.0388018  16.9862604  67.3124790  43.0979490
  16.7037559  66.5589142  43.6161757  16.2672186  67.9395437  43.1754065
  37.3423052  26.8501163  21.5707970  36.8295574  27.0682383  20.7925010
  36.7282009  26.9506621  22.2981191   1.2233772  66.8809748  33.0338407
   1.3727035  66.9498587  33.9768076   1.0794494  67.7829695  32.7476144
  35.5964899   0.4127001  57.1520281  35.1694560   1.0978142  57.6663160
  35.3484440   0.6026449  56.2472486  51.5648317  58.6933374  50.7901096
  51.3286972  58.1767464  51.5605688  52.4864578  58.9147902  50.9234905
  33.1958747  68.2151413  26.0497570  32.6096034  67.4769354  26.2157869
  32.8405833  68.6312246  25.2643418   2.6801550  37.6893234  37.2117114
   3.0138507  38.1545067  36.4445853   3.2378644  36.9146967  37.2834373
  58.9502716  29.0731168  58.5093927  59.4013882  28.9021826  57.6826477
  59.0223646  30.0199127  58.6302805  75.4455900  48.6977339   7.9788530
  75.4989433  49.5152378   8.4738970  74.5263767  48.4385347   8.0428374
  17.6375413   5.0327009   6.0410684  17.0634425   4.2668170   6.0490668
  17.3157394   5.5807370   6.7568421  28.0807829  76.2739563  56.8066692
  28.3790565  75.6964064  56.1040354  27.2344947  76.6027308  56.5034580
   4.2467475  29.3448544  17.4342275   4.9252808  28.8258576  17.0024097
   4.5707190  29.4677472  18.3265126  69.6123743  28.6662269  54.2725039
  70.0443316  28.0890751  53.6427879  69.2594242  29.3795466  53.7406874
  20.2171516  40.6478453  23.5508800  20.8229184  40.9217739  22.8622270
  20.0440669  39.7250605  23.3644819  65.0635719  28.9964223  16.8480742
  65.0404978  29.8257518  16.3706732  65.9443855  28.6552715  16.6930890
  76.7428637  30.1878023  47.6039505  77.1972847  30.8115220  48.1702614
  77.1101665  29.3365264  47.8419590  76.5428495  35.7831359  21.8399787
  77.4030161  36.2030101  21.8470073  76.0488892  36.2602162  21.1731720
  79.7151041   4.3779761  44.8621845  80.1868629   4.4020823  45.6947041
  78.9776373   4.9752101  44.9874067  68.2067680  18.3670330  47.8283119
  68.9548969  18.2909691  47.2360706  67.9254532  19.2779827  47.7430677
   3.3828911  65.3414297  35.3783321   3.4915754  64.4078636  35.5596542
   2.8340441  65.6621075  36.0939884  16.1114907   1.6715761  59.7794151
  16.7777050   1.4627694  59.1245937  16.2173092   0.9985671  60.4517937
   3.9684999  73.1077719  26.0507798   3.7113395  72.2028446  25.8741331
   3.4254766  73.6305904  25.4608488  19.9937093  37.3450232  18.5652745
  19.7869051  36.8172741  17.7939487  19.5838487  36.8769145  19.2926800
   6.7722148  19.1986716  27.2700047   6.7151558  18.2445836  27.3219061
   6.9410813  19.3785548  26.3451481  64.4263840  68.9768314  33.4138656
  64.2881536  68.5023785  34.2336321  63.5677385  68.9792919  32.9908371
  77.2072124  30.1859713  43.0510998  78.0949688  29.9345255  43.3058310
  76.6402483  29.5825076  43.5313177  77.9781199  33.4524608  10.6989598
  78.5332727  33.3380246  11.4702845  77.1761799  33.8502240  11.0379338
   2.3380755  25.7358813  28.2405233   3.2596171  25.9798098  28.3270788
   2.1946263  25.6730294  27.2962213  13.8967264  53.2012320  23.0426073
  13.5647678  53.6744595  23.8055539  13.4165096  53.5728598  22.3026633
  28.6599422  76.3484430  15.2637494  27.7299571  76.1939430  15.0979567
  29.0897250  75.5377102  14.9913037  82.1356297  53.0102158  47.5891638
  82.2212887  52.4077845  46.8502665  81.8761826  52.4534655  48.3232927
  77.7356529  23.8975382  26.7757511  78.1156015  23.4085464  27.5056553
  78.4895039  24.1756821  26.2555814  81.5579224  30.8543777  28.6563778
  82.2448921  31.5091205  28.5314131  80.9557915  31.2555909  29.2830348
  45.2996683  12.6571834  48.9194202  44.4662762  12.6535916  49.3902493
  45.8991098  13.1295586  49.4971371   3.3282325  35.9093833  17.8236055
   3.9145234  35.6258249  18.5250962   3.6079538  35.4055238  17.0593309
  58.8288450  68.6223412  46.5515900  58.4406662  69.1195059  47.2715759
  59.1583872  69.2898703  45.9498930  13.7516046  26.3680363  27.1816373
  14.5467460  26.5262175  27.6905203  13.6909091  27.1198297  26.5922689
  11.9845760  79.1860723  47.6286745  11.1775446  79.3082142  48.1286907
  12.6836598  79.2781830  48.2760000  23.2632947  45.9766388  17.5677419
  23.3960104  45.6041098  16.6960526  23.9890289  46.5908194  17.6787651
  37.8050184  12.4815691  21.9753027  37.1815872  11.7992866  21.7261910
  37.6991320  12.5684476  22.9226542  72.9069138  37.5423479  15.6753349
  72.9215574  38.4956765  15.5905926  71.9766378  37.3172688  15.6879008
  17.3319221  33.1588244  15.2723372  16.6330969  32.7992415  15.8187592
  18.0655491  33.2850480  15.8740771   7.1488935  62.4194098  30.8161211
   6.2627691  62.1947193  30.5323458   7.1210212  62.3449421  31.7700124
  36.5748310   4.7640479  28.5557246  37.2473979   4.2558438  29.0091729
  36.4615250   4.3168741  27.7170181  28.0245924  37.6750946  26.3630605
  27.1306276  37.5630951  26.0397744  28.4103584  36.8007803  26.3083816
  35.7694316  78.3521175  66.4359331  36.2751985  78.9074087  65.8425713
  36.3438225  77.6077080  66.6152573  46.0944319  47.2168493   3.0709136
  46.1463642  46.8354988   2.1944955  46.0979414  46.4629698   3.6607370
  16.9774771   9.3157065  36.7435694  17.3800373  10.1754642  36.8660188
  16.0461104   9.5020330  36.6249490  27.1992755   2.4177003  60.5256128
  27.6786447   1.6956332  60.9318876  27.5269341   2.4469666  59.6267176
  38.3329105  44.9046612  29.8452044  38.2448816  44.1493320  29.2638612
  38.9213777  44.6059752  30.5385447   9.9433724  37.3681688   0.0202217
  10.6295315  37.6805353  -0.5695639   9.7609464  38.1140328   0.5917444
  79.6129656  25.9101963  25.9278512  80.3079605  25.7669806  26.5702653
  79.9281502  25.4785538  25.1337624  80.2436733   1.6692318  63.2694483
  79.3563652   1.6627739  63.6284399  80.7511044   1.1291789  63.8753223
  56.9950056  11.1963487  57.8750277  56.5008926  11.3602054  57.0717621
  57.6616096  10.5584097  57.6202631  21.3420367  55.6429005  40.5430412
  21.8632030  55.5735683  41.3429260  21.6157818  54.8942184  40.0131702
  16.7986476  23.9528561  42.4691725  16.9848561  23.3091211  43.1526661
  15.8507299  24.0791178  42.5109100  70.4699421  53.5830116  39.0200472
  70.4891348  54.2365170  38.3209109  71.0955286  52.9146671  38.7404156
  23.1599760  54.1657352  26.6546154  23.1925321  54.3363094  27.5959301
  23.5064054  53.2784748  26.5598559  72.8638983  29.3099952  39.1647983
  72.8505516  30.0267959  39.7990322  72.0748901  28.8039231  39.3586731
  -0.0133565  27.4741435  27.6672769   0.3122940  27.3340273  26.7781472
   0.5978106  26.9926620  28.2248449  82.7389812  56.0560131  50.1494694
  82.4734879  56.1195850  51.0669088  82.9373074  55.1284027  50.0212479
  82.4980354  37.3026633  56.2550020  82.1508694  38.1487560  56.5375423
  81.8149948  36.9397306  55.6911182  33.2299852  72.9878902   4.9766985
  33.7458968  73.1798983   4.1936278  32.4841738  72.4820232   4.6540663
  64.9927473  44.9531460  27.2267175  64.2463207  45.4788542  26.9391155
  64.5994806  44.1780758  27.6277614  49.4152451  70.8052588  29.9859118
  50.2416372  70.5791807  30.4127598  49.6716118  71.3461447  29.2389512
  11.5683138  38.1818342  33.6563468  12.4377692  38.2429552  33.2606912
  11.6620791  37.5176907  34.3392491  18.3821738  18.2027245  39.6654797
  18.6504292  17.6599061  38.9241171  18.3448768  17.5963700  40.4051924
  23.3781505   6.6346616  10.7204783  23.4811163   5.7710129  10.3208017
  24.2729664   6.9250166  10.8971977  35.8339405  70.3278923  53.0627441
  35.3404737  69.5137787  53.1624317  35.5391717  70.6856251  52.2252655
  81.5712452  23.6331820  39.0220523  81.0895061  22.9855728  39.5365977
  81.5263271  24.4347548  39.5432925  44.9140501  32.2792983  46.8298912
  44.2086172  31.7322254  47.1753073  44.6022654  32.5564480  45.9683752
  78.9534664   3.8606471  22.5640178  79.5890474   3.7193167  23.2656527
  79.2423344   3.2813361  21.8589020  67.8335953  57.9748821  30.8117771
  67.7402210  58.5846186  30.0798368  67.6137447  57.1202040  30.4410672
  80.8069992  69.3959284  39.4106793  81.2465000  69.4219732  38.5607457
  80.2899456  70.2010107  39.4377184  79.5338821  65.7258463  11.6845524
  79.5065117  66.2039709  10.8557689  78.8039684  66.0822868  12.1909130
  38.6397362  46.9687891  23.4039640  39.0186000  47.0081186  24.2821121
  37.6941466  46.9517279  23.5516143  71.4552069  21.4968777  61.1371803
  70.5580139  21.1687493  61.0770845  71.7722082  21.1742997  61.9807959
  68.2797480  52.1622324  28.1426835  68.3044481  51.2162161  28.2864690
  69.1103411  52.3605299  27.7102184  22.1186328  35.5872750  65.1125860
  22.0271635  36.5399528  65.1290703  21.7774224  35.3286791  64.2564678
   6.9633800  44.3311834  37.1202779   7.5323671  44.0842056  37.8493094
   6.6243190  43.4997034  36.7887473  62.9920721  15.6303918   3.2096159
  62.4981880  15.1529551   2.5430083  63.7691355  15.0928617   3.3628115
  70.8049250  38.7397361   1.6359252  71.2000132  39.4873905   2.0844239
  70.1504183  38.4096956   2.2514959  18.8437045  29.7576332  50.5539799
  18.3907819  29.7435951  49.7108364  18.3868587  29.1030264  51.0822010
  39.5675445  48.5883713  26.6863322  39.7244716  48.1897116  27.5422978
  40.4195452  48.5636234  26.2507677  81.4593887  40.0829887   3.1244722
  81.5176392  39.6673369   3.9847478  82.3270321  39.9594450   2.7395403
  10.7073712  54.0679502  23.3733439  11.2911510  54.3093061  22.6541924
  10.2473617  53.2901478  23.0576825  39.4423079  76.8111706  21.7755628
  39.2121196  75.9567356  21.4106178  39.5513082  76.6498327  22.7127504
  13.2475150  76.4444923  65.5678320  13.2221150  76.7836094  66.4625883
  13.4891260  77.2000408  65.0321054   7.5260746  23.0839586  24.7866416
   7.6184422  23.0982232  25.7392693   8.2485676  23.6248779  24.4678283
   0.8311906  45.6083870  15.9981203   0.8532920  44.6546984  15.9192157
   0.8405759  45.7709551  16.9413674  80.0394726  33.8904262  35.8071971
  80.7511806  33.3525944  36.1542392  80.0304985  34.6664047  36.3675618
  75.9343672  69.6673155  25.6491065  75.6462717  70.4329395  25.1520610
  76.7447281  69.9485731  26.0738897  52.4015570   6.3383281  29.8536944
  51.7589903   6.9305426  29.4630289  52.9270554   6.0334361  29.1140151
  26.5165234  23.0378938  39.5882678  26.6056752  23.9842463  39.4755697
  26.9688225  22.8509903  40.4109001  70.0008202  67.2433186  54.6630716
  69.2545319  66.6911507  54.4298458  70.6647110  66.6289711  54.9762058
  84.3678951  10.9808600  63.3671284  83.4493351  11.2328017  63.4620571
  84.3637371  10.0267661  63.4440613  67.6678705  12.8594232  62.6517534
  67.6018524  13.5391927  63.3224154  67.8784132  13.3352602  61.8483353
  67.3669720  41.7062140  18.1450009  68.2782412  41.6031027  17.8708100
  67.2287607  41.0075617  18.7845421  59.7864914   8.5858428  13.8776505
  59.3005753   9.3863517  14.0758920  59.8475266   8.1287706  14.7164536
  80.0484848  18.8544834  10.0969279  80.3126717  19.0853882  10.9875011
  80.7151985  19.2538750   9.5381659  82.6051235   7.1483225  67.5710583
  83.1849289   7.8601557  67.3002386  82.9077053   6.3898116  67.0717239
   1.3629891  40.9277916  19.1166818   2.0327073  40.4626274  19.6180093
   0.8397755  40.2342606  18.7148213  82.2014904  43.7443066   8.5480726
  81.3377571  43.7677193   8.1361902  82.8153229  43.8713121   7.8246719
  15.7027650   9.1963214  23.2923317  14.8232770   9.2335808  23.6682892
  16.2273109   9.7679722  23.8529539   6.8481296  39.9021125   8.4402633
   6.5175670  40.6460381   7.9367423   6.0622019  39.4252324   8.7069774
  10.7167172  53.5582542  25.9337282  10.4485881  54.3628454  26.3775444
  11.0062480  53.8471651  25.0683165  70.5658627  55.8319044   5.9702927
  70.7005358  55.0979662   5.3707665  69.6225786  55.9924269   5.9442973
  66.0712957  49.6368456  51.6393995  65.2667141  49.2810440  52.0166159
  65.7922792  50.0411701  50.8178759  15.5093968  47.4932003  26.7553592
  15.7603514  48.3912754  26.5392184  16.2642443  46.9646549  26.4963675
   2.1927305  29.8147416   3.2764298   2.9378989  30.2169228   2.8301045
   2.1227393  28.9428782   2.8876054  70.3009701   7.8853011  30.9769440
  70.0629187   6.9585335  30.9512115  69.6072149   8.2965666  31.4924955
  36.9867420  43.4243298  21.6008234  36.4314198  44.1996574  21.6827846
  37.8265882  43.7629604  21.2906313   9.6667761  12.2687709  53.0492878
   8.8725084  11.7406404  52.9689884   9.7883373  12.3766232  53.9925909
  26.8447423  26.9415188  47.7538109  26.9269586  27.2871017  46.8649673
  26.2772393  27.5680494  48.2028437  11.9203711   5.2617049  43.5985613
  12.1846104   6.0931778  43.2047796  12.1722293   4.6005827  42.9538012
  21.0011554  26.9608235  39.4837570  21.9285965  26.7284250  39.4382119
  20.9907579  27.8253174  39.8945832   6.6861784  59.2438126  15.0292337
   7.3923999  58.6691761  14.7338116   5.8972025  58.8793850  14.6280599
  21.8578577  21.8560386   6.9726956  22.0935774  21.5303659   6.1040145
  22.3704720  21.3191271   7.5770020   1.7487334  35.5112195  59.0417099
   1.6052859  34.7562385  58.4710455   0.8688546  35.8295465  59.2434883
   0.5977261  47.4295044  48.6224604   0.0088741  47.6445436  47.8991032
   1.4721711  47.4500990  48.2336712  72.8048992  56.7104244  43.9551210
  72.4487352  57.5943041  44.0453053  73.1421661  56.6782856  43.0598879
  19.3953609  37.6322341  36.0809708  19.1345429  36.7411852  35.8480787
  18.5820675  38.1359744  36.0488725  18.2400918  36.0879040  28.9092016
  18.2169819  35.1599240  28.6756420  17.4598491  36.2187767  29.4480205
  82.4422932  49.2047501  33.0320168  82.6475048  48.7689018  33.8591528
  83.2584381  49.1683722  32.5331879  78.5819817  42.7714539   1.3076571
  78.4518337  43.7167788   1.2325038  78.1049156  42.4040985   0.5635565
   4.5828605  23.7048316  63.2598114   3.7805238  23.5329986  63.7527180
   4.2938539  23.7796879  62.3503590   9.3023193  18.6423349   5.5795294
   9.1214788  18.6537492   4.6396369   8.9167589  17.8222001   5.8876753
  28.0138612  27.2064352  16.1432779  28.5978723  27.7588487  16.6628957
  27.2090530  27.7182770  16.0624611  82.2385120  56.2090492  53.0155230
  81.3036728  56.0084677  53.0611229  82.6713753  55.3870201  53.2460260
  36.8080044  71.5500069  59.1086769  36.9687128  71.0434246  58.3125782
  36.1234403  72.1721363  58.8625860  19.1337013  47.2444439  -0.1721488
  18.6383963  47.9869890  -0.5178818  19.1970062  47.4154377   0.7675242
  26.3019443  62.5155497  21.8115830  26.3789010  61.6704321  22.2543979
  26.5678215  62.3382711  20.9093022  74.8761034  48.3761311  32.3995423
  75.6633711  48.8446808  32.6768470  75.0677109  48.0942583  31.5050769
  70.5302286  62.7895117   0.4113257  70.9031534  62.1840572   1.0520921
  71.0169840  63.6036730   0.5395358  60.6524467  68.8883924  56.0793066
  60.1580858  69.4900274  55.5226421  60.8027029  68.1205654  55.5278540
  70.6810856  19.9113667   9.2168760  70.1934814  19.5044124   9.9330205
  70.7275867  19.2331553   8.5430074  50.6532431  52.1785259  19.9558818
  50.3690338  52.8408861  19.3260121  50.0696945  52.2949886  20.7056379
  19.5699453   9.1836131  21.9504309  18.7261915   9.2480189  21.5030360
  19.3676388   8.7567461  22.7829504   9.8842627  11.9735181  40.9667015
   9.1244763  12.1160841  41.5311766  10.1926506  12.8541744  40.7532215
  49.7050524  78.0530453  21.9063640  50.4344034  77.8574514  22.4946022
  49.6582031  79.0089989  21.8925691   3.4024513  56.4065838  31.9644642
   3.0227184  57.1490431  32.4343419   3.3494166  56.6547680  31.0415220
  79.7686625  47.8503418   1.8607955  80.0728226  47.2567320   2.5473386
  80.5494785  48.3418608   1.6059175  24.9169898  35.5713749  27.7101636
  25.2063560  36.4492011  27.9590082  24.0423489  35.4906797  28.0905890
  23.2740545  26.3848519  17.7290475  22.5578022  25.7989192  17.4843144
  22.9858470  27.2499943  17.4380183  75.7469606  19.5247531  29.9855351
  76.2252331  20.2740359  29.6304798  75.4342222  19.0526998  29.2137885
   9.0443271  32.0223761  12.7114022   9.8427480  31.6166067  12.3736036
   9.3545824  32.6770997  13.3369482  25.3446651   7.0036346  40.9608936
  26.1598825   7.3284584  40.5786133  25.6246781   6.3541633  41.6058874
  36.6578460  34.4439888  37.7451253  36.4209032  34.5595694  38.6653066
  36.4540386  33.5275245  37.5586104  49.5682383  59.9772215  49.6362066
  50.2154970  59.3085718  49.8602533  48.9621544  59.5343828  49.0422487
  65.8066463  56.7437649  22.7134657  64.9890471  56.3208389  22.4509788
  66.1155128  56.2269211  23.4575820   3.7897408  30.9098220  50.0247145
   2.9777944  30.6812334  49.5722532   4.1677672  30.0678277  50.2784300
  21.2207365  27.7486825  43.8578701  20.3283763  27.4083519  43.9218903
  21.2960887  28.3622313  44.5886946  23.2942510  66.0619354  19.5399094
  23.0447626  65.1596928  19.3400407  22.5080609  66.4478683  19.9261653
   4.9099216  28.5328078  20.2318072   4.0233946  28.1912637  20.3486395
   5.3586918  27.8628063  19.7161186   4.7049966  16.2316358  57.4337959
   4.7339731  16.2488449  58.3904028   5.1664138  15.4278195  57.1946192
  10.3119421  65.1869154  50.1696777   9.6477669  64.4993639  50.2184677
  10.9608972  64.9402285  50.8286428  74.4203138  18.4701097  45.8889580
  73.8890123  17.8006744  46.3200140  74.9497366  18.8454545  46.5925598
  10.8979845  44.0741301  35.4888606  10.9971857  45.0234985  35.4175329
  11.7898381  43.7340450  35.4169345  41.3739920  34.8592734  62.4341917
  40.4527998  34.8745418  62.1745682  41.5689278  33.9321804  62.5710487
  77.4918890  14.2673755  20.0065589  77.5573206  15.1777196  20.2950430
  76.9952536  13.8317263  20.6992292  37.8423429  55.7212830  27.4610806
  37.5275898  56.4847183  27.9451513  38.0201602  55.0663042  28.1360745
   5.9342861  38.3711600  60.0311518   6.3398099  37.5041437  60.0231314
   5.3157300  38.3530259  59.3008852  27.8705406  53.6236429  12.8080606
  27.9946971  54.4622755  13.2524824  26.9224668  53.4918022  12.8058481
  15.8980620  28.8635397  21.5700674  16.4698076  29.6255660  21.4770341
  15.3355503  28.8902354  20.7960510  73.1967592  16.2583399  12.0785141
  73.5621166  15.4113293  12.3340845  72.3937035  16.0399246  11.6056144
  24.5512438  55.8738089   7.9815328  24.5078444  55.0647545   8.4912175
  23.7455845  56.3404274   8.2038152  68.4669924  29.2227173  33.1755280
  68.7443733  29.8790097  33.8147259  68.9447308  28.4308958  33.4225440
  11.4341879  68.5690308  62.3358107  12.3528087  68.4203625  62.5600052
  10.9775901  67.7982664  62.6729679  15.7016218  40.4152918   1.7989174
  15.5900645  41.3406849   2.0167217  16.5237880  40.3817606   1.3098890
  65.2136755  18.1457889  58.2143974  65.6933069  17.9057574  57.4215746
  64.3945551  17.6538825  58.1569576   4.1434351  53.4390926  35.6713200
   4.6116957  53.8263226  34.9317145   3.2662448  53.2604647  35.3324080
   6.8714845  10.5013788  27.0913196   7.4629039  10.2918220  26.3684511
   7.2223806  10.0141764  27.8367996  44.6502447   2.7639991  38.8639975
  44.2689466   1.8897013  38.9442801  43.9618635   3.3545375  39.1699839
  21.8544340  12.0775056  23.4396696  22.2074437  12.9455173  23.6350489
  22.1621561  11.8877327  22.5533700  74.2630911  53.3116961  20.5232239
  73.4777308  53.7917137  20.2605057  74.5057631  53.6929417  21.3670230
  62.5456667   4.5843858  65.2984810  62.2769451   5.3150302  65.8554173
  62.1391535   4.7668499  64.4513178  15.4492295  28.3655596  13.9884913
  15.2529299  27.5189447  14.3896675  16.3505387  28.5519624  14.2514110
  26.7048788  60.2053070  25.2673602  26.2194848  60.9752846  25.5636024
  26.0334706  59.6176147  24.9208665  64.7293472  33.9337230  31.7542601
  64.4587278  33.2694006  31.1204839  65.3721523  33.4894967  32.3071575
   2.5160074  19.3736434  37.6672697   1.5846315  19.4027138  37.4483514
   2.9070932  20.0729036  37.1435165  82.0644951  23.5188246  44.6195841
  82.7653790  23.1577873  44.0767717  81.3195610  22.9375029  44.4667244
  51.7235422  57.6917839   2.5431383  50.8981562  58.1731462   2.4859831
  51.4608192  56.7798662   2.6681298  83.2742691  30.0994992   8.2336128
  83.3657646  31.0445690   8.1123626  84.1138268  29.8227358   8.6007470
  64.2858696  37.9142523   0.6889287  64.3717337  37.4468088  -0.1419469
  63.4083986  38.2955909   0.6596351   9.7365326   4.3825999  36.4963436
  10.5338240   3.8880876  36.3065648  10.0069284   5.2996790  36.4507008
  12.8279042  40.6261015  18.7851155  12.9965723  40.8423662  19.7021818
  13.6809003  40.7087755  18.3587408  14.8855186  10.7152247  17.8001690
  15.4205239   9.9225199  17.8404212  15.4166663  11.3376987  17.3035407
  43.6591673  51.7225981   1.5721744  43.7421894  52.5954771   1.1882158
  44.5285320  51.3341999   1.4742722  21.9327545  14.7019506  65.3092146
  22.1013308  15.1475501  66.1394310  22.6009703  15.0426376  64.7145319
   6.0699892  56.3641977  30.7245970   5.4182619  56.9894600  30.4075336
   6.6521597  56.8849230  31.2779093  34.3103671  17.9163170   3.8253945
  34.8725390  18.4245229   4.4101363  34.4378877  17.0082450   4.0999421
   8.8763076  46.8827534  50.1826382   8.3260685  46.3772774  49.5843363
   9.7611320  46.7916298  49.8290634  26.7978191  50.2269983  33.1072688
  26.5961838  50.5680704  32.2359228  27.4891639  49.5820332  32.9579377
  49.1045427  29.7237945  10.0773227  48.6739492  29.8736811   9.2356819
  49.8527861  29.1649652   9.8673928  10.7897866  55.0460482  33.8810301
  11.4907491  55.5289698  33.4432316  10.3219867  55.7097721  34.3878436
  14.2066205  11.2601292  27.4879622  14.9188435  11.8906629  27.5947189
  13.9952171  10.9843171  28.3798528  74.1413832  19.0849590   6.7947304
  73.9606762  18.5003436   6.0586590  74.9260426  19.5658922   6.5315825
  60.1433516  28.9159012  48.5647678  60.6390667  29.6915102  48.3022261
  59.6751881  29.1868472  49.3544817  50.4199791  75.3366470  65.9607983
  50.8866024  76.1706924  65.9073162  49.6591568  75.5227041  66.5110397
  47.6012516  45.8852291  67.4199104  46.7595339  45.5903244  67.7674294
  48.2285023  45.2283096  67.7219915   8.1675118  40.4075527  23.8591719
   8.5375655  39.5248079  23.8517094   7.2386575  40.2762747  24.0495038
  14.9955332  39.9556279  15.5909574  15.1433098  39.0380287  15.3620338
  14.1294575  40.1547337  15.2352846  10.6160545  35.8218575  38.3183932
  10.8482409  35.0901842  38.8902116  11.4197612  36.3373208  38.2506800
  77.4889421  44.0700960  14.2979288  78.4011889  44.1682911  14.5706904
  77.5338650  43.9544392  13.3488035   4.2379126  34.1336417  29.0773392
   4.6221656  34.8872638  29.5252633   4.2691630  33.4289312  29.7243619
  10.7626140  45.0281143  16.6763556  11.1298025  44.3743324  17.2713161
  10.3708315  45.6837702  17.2532892   9.6894836  41.7851686  29.2225194
  10.1830149  42.4293280  28.7148619   9.2141557  41.2760162  28.5659695
  28.3818340  31.9956732  32.1765018  29.0256667  31.2873602  32.1746802
  28.5199046  32.4426985  33.0115676  59.9836349  14.8719418  30.2118921
  59.6744919  14.0411270  30.5730128  60.8304834  14.6617174  29.8183370
  12.7140522  25.6192350  13.1572556  12.5764132  25.0248075  13.8947797
  13.1752336  25.0903726  12.5062191  64.0526485  11.8713272  30.9911776
  64.3812323  11.0416555  31.3374567  64.8386765  12.3464739  30.7216835
   4.9245343  30.4468369  46.8171549   5.6182516  30.9833503  47.2007418
   5.1879483  30.3316951  45.9041452  75.0946379  29.6960020  31.9330144
  74.8326969  30.4805613  32.4147654  74.2974663  29.1685390  31.8826842
  12.1073484  17.7641475  37.3438525  12.8130257  18.3371115  37.0439124
  11.4203978  18.3631611  37.6362753   2.3253928  42.4248505  53.3482409
   2.3703679  43.2306623  52.8335810   1.8347648  42.6689720  54.1330481
  10.9309816  26.1658454   9.7817689  10.1462758  26.7130518   9.8139387
  11.5442526  26.5910864  10.3811860  19.7677422  46.0833836  46.4646530
  20.2798915  46.8688822  46.2724686  20.2303052  45.3788900  46.0108280
  33.0524206  18.8841188  61.6453886  33.9555836  18.8582551  61.9613886
  33.0039954  19.6853030  61.1238575  20.2049971  69.8973751  19.2393553
  19.8206580  70.6270075  19.7253132  21.1158252  70.1562309  19.0992963
  17.2325158  43.8148403  22.8419757  17.7737749  44.5707512  22.6142192
  17.5813282  43.1009579  22.3081875  68.4028816   4.5807958   3.6798701
  68.9452982   5.3542423   3.8341391  68.9814949   3.9695233   3.2240343
   0.9011950  56.7882729  18.6884594   1.4620860  56.7333221  17.9147589
   1.4428683  56.4500141  19.4014835  20.6099248  46.7393208  17.6741135
  20.7125878  47.3985577  16.9877481  21.5053701  46.5217495  17.9330969
  10.3333044  57.4393511  30.3512883   9.5864308  57.7131653  30.8836794
   9.9578083  57.2495222  29.4915223  27.7823496  35.8229303  28.8106275
  27.2002840  36.5161800  29.1218138  27.2258973  35.0454164  28.7651896
   2.8127742  49.2904186  13.5871375   3.1286013  49.2664385  14.4904149
   2.3581950  48.4562111  13.4701252  39.8381543  48.1058836  38.8365912
  39.4884682  48.9600134  39.0903902  39.0948200  47.6506805  38.4410214
  83.2435894  67.2372818  15.6297517  82.9992390  66.3147068  15.5564034
  82.6241302  67.6950312  15.0614512  37.3348451  63.9926481  22.9304433
  37.4372768  63.9260530  21.9810724  37.4587965  63.0982208  23.2480431
  68.4555244  45.0852251  53.3804512  68.8263798  44.9886656  54.2575932
  68.9206314  45.8327103  53.0047178  30.5204630   4.5832849  14.9061430
  31.3990903   4.2085382  14.8444271  30.2237678   4.3543759  15.7869411
  22.7865362   0.8710176  49.9858713  23.3482695   1.3701035  50.5788326
  22.8412199  -0.0295949  50.3054667  75.4364729  56.6147423  51.5345764
  76.0759020  56.1986494  50.9564543  74.5870399  56.3755417  51.1637831
   7.9072911   1.0374317  57.6104164   7.8632653   0.1621844  57.9954290
   7.9325622   0.8827195  56.6661406   4.5820880  33.5447240  49.8471069
   4.2827263  33.8863373  50.6896687   4.5519015  32.5935411  49.9499321
  21.4245462  68.0937672  13.6051404  22.3786449  68.1542730  13.5575211
  21.2041759  68.4553003  14.4636059  52.6910305  22.8941679  56.7067575
  53.3539534  22.2342062  56.9097853  52.9267168  23.2099319  55.8344173
  81.4920235  21.4928246  29.0319443  81.3274670  21.6541243  28.1028938
  82.0367622  20.7058597  29.0455914  24.9549603  58.7946844  40.1648235
  24.7965097  58.8835812  39.2250228  24.1067338  58.9772701  40.5690527
  17.9618168  27.2393250  33.9149666  17.3069859  26.8298674  34.4804525
  18.6373448  26.5698171  33.8070273   2.4709180  62.1999884  25.1202106
   2.2798683  63.1266499  24.9751949   2.1446955  62.0234156  26.0026121
  50.4199028  12.2038376  64.7438335  49.6834993  11.7098188  65.1042318
  51.1939669  11.7060387  65.0069952  74.6860361  45.5950260  48.7938023
  74.3957520  44.6974564  48.6315250  74.4609594  46.0680819  47.9926825
  25.1457310  46.4506674  38.7531114  24.3415618  45.9843826  38.9814115
  25.2527738  47.0986700  39.4494367  58.2653904  28.0111527   7.5668252
  57.5120926  27.7086425   8.0740345  58.8003778  28.4935975   8.1971163
  32.1208405  60.6010962  46.3281775  31.6672540  60.9112024  47.1119642
  32.9332805  61.1067390  46.3057852  64.5841789  28.2994199  40.8642292
  64.4887543  27.7837515  41.6649866  63.7429523  28.7451458  40.7647133
  31.4073920   3.1790742  68.0410910  30.4792714   3.3920875  68.1382990
  31.6603160   3.5835248  67.2112226  27.8094244  62.1566105  39.2403603
  28.3251691  61.3523626  39.2989039  28.3488321  62.7495003  38.7171483
  13.3142710  56.2056875  39.5301008  13.3928299  56.3939619  40.4653072
  12.9323339  55.3287506  39.4935799  22.9989552  53.8581896  47.5687742
  22.7325916  53.5298586  48.4275436  22.3831582  54.5667315  47.3817062
  -0.1045713  56.0514927  31.2171412  -0.1876805  56.1224031  32.1680856
   0.4616290  56.7829704  30.9709930  19.7692883  45.6719303  55.2890825
  19.0043533  46.0509300  54.8561049  20.4417181  46.3500643  55.2241945
  15.0434268  46.1800957  46.3052988  15.9243548  46.4599800  46.5540171
  14.5330203  46.9894791  46.2805176  38.7542582  64.6369648  26.9382000
  39.2758298  65.2207994  27.4889541  38.5366344  65.1639843  26.1693525
  26.9803262  19.5017087  44.1343880  26.1121178  19.5628905  43.7360144
  27.3576546  18.7033641  43.7649298  38.9617515   1.4012913  19.0100503
  38.3668089   0.6544469  18.9429951  39.3789768   1.4531060  18.1501257
  37.7927685  57.0629406  36.4811778  38.5291719  57.4128580  35.9796810
  37.0165229  57.3712635  36.0136175  54.4499302  64.9917698  57.6024055
  54.5592165  65.7086229  56.9775820  55.3184223  64.5942545  57.6651669
  80.5013943  32.1765375  44.1237593  80.0081253  31.4946532  43.6677313
  80.2753639  32.9844689  43.6629009  16.2493646  53.0235624  47.6543999
  16.3595676  52.2857285  47.0546627  16.9762182  53.6110210  47.4475002
  77.1795321  71.6114044  51.2777042  76.8930578  72.1561289  52.0108080
  76.6946983  70.7929134  51.3836956  29.5717335  39.6435595  13.1835103
  29.1829205  39.0500546  13.8260114  29.9879599  40.3264999  13.7094223
   6.4943284  51.0725451  45.0222254   5.9254277  51.4377594  44.3445826
   5.8920836  50.6844902  45.6570053  70.7254696  73.2207441  42.8075552
  70.7257318  73.3875561  41.8650007  70.5287838  74.0708065  43.2011795
  44.1129017  12.0760143  36.4710855  44.9873924  11.7069352  36.5946960
  44.2484903  13.0234444  36.4860272  22.4421954  57.1877766  29.0109086
  21.9886637  57.6452780  29.7188854  23.3667970  57.2241020  29.2559099
  15.7252550  77.4324560  42.9991007  15.7582307  77.7946043  42.1136665
  16.6418350  77.2831583  43.2310963  60.7154226  52.2019053  39.2714906
  59.9274445  51.6585779  39.2821383  60.3865099  53.1008196  39.2686152
  53.2964277  48.2251549  60.4822206  53.2495070  47.5228214  59.8335600
  53.4579611  47.7749968  61.3113785  18.3819437  56.5811348  49.0668154
  19.1489410  56.4262819  49.6181488  18.6065924  56.1819363  48.2263374
  13.0526626  56.7966366  53.6264038  13.9799631  56.9445372  53.8120699
  12.6780665  56.5380859  54.4684601  18.1391311  31.7815232  24.0393066
  17.5032473  31.9839478  24.7255349  18.8875961  31.4119792  24.5077825
  52.3455477  37.6040268   8.1179905  51.7780018  37.3525476   7.3893750
  51.7428446  37.9024243   8.7991214  36.0427475  75.8436918  23.4102106
  35.3324151  75.3168678  23.0439901  35.6297612  76.3488817  24.1105366
  55.7587385  15.9245014  55.5769110  55.6692982  16.4105690  56.3966465
  55.6655025  15.0064778  55.8314085  31.4535713  53.7730837  12.8145194
  32.1275234  54.1659307  13.3692181  30.8226466  53.4014273  13.4309912
  11.8308163  73.3236408  26.9255853  11.1765039  72.7067375  26.5976572
  12.0916295  72.9672194  27.7748060  81.0698795  47.6231194  23.2971835
  81.7605877  47.0444679  23.6201763  80.3107643  47.4178219  23.8429189
  22.5108171  21.7691827  20.0547457  23.3330917  22.0533609  19.6555758
  22.3462319  20.9058857  19.6754503  77.7432585  76.2167835   9.8697495
  77.2119331  76.5667868   9.1546094  77.2200680  76.3736391  10.6558132
  78.2774210  11.5186131  48.0464268  78.2620621  11.1227560  48.9178038
  78.1310892  12.4512708  48.2044458  61.3650274   1.2496514  37.4473238
  60.4299068   1.0596584  37.3719239  61.7124701   0.5346509  37.9805112
   9.0443367  28.2556415  62.8775978   8.8774145  28.2981133  63.8191700
   8.3867574  27.6446891  62.5450897  76.7900038  29.2102814  21.7045164
  77.3846006  28.8699698  22.3730040  75.9217978  28.9236665  21.9878936
   0.9950884  39.6473265  38.8054109   0.4890433  39.8649979  38.0226159
   1.2929203  38.7499595  38.6562204  17.8543425  51.9052696   5.6406939
  17.5604081  52.4940300   6.3358170  18.2517052  52.4832678   4.9893486
  33.6961746  75.3592587  56.1165285  34.4658351  74.8813438  55.8075809
  32.9958963  74.7067308  56.1234474  37.9413867  36.2670851  26.3009810
  37.9492807  35.8588314  25.4352450  38.0917215  35.5429506  26.9086480
  43.3096743   6.4909446  53.3108377  44.0760756   6.2871116  53.8468552
  43.5904646   7.2211766  52.7593422  34.1742086  56.0988998  36.7703700
  33.6672735  55.8470774  35.9984660  34.7792697  56.7685890  36.4515376
  77.9961538  48.8995600  24.8175478  77.1549797  48.4591389  24.6963501
  78.4517908  48.3698320  25.4717755   7.6694793  47.3050737  28.9759612
   8.2984340  46.9716120  28.3360791   7.8712505  46.8282652  29.7810531
  49.1128922  64.0166330  63.6843586  48.1841373  64.2043114  63.5486364
  49.1412687  63.5320902  64.5093679  41.5240669  22.3170900  38.4224129
  41.4034939  22.4247813  37.4789619  40.8491945  22.8709388  38.8148808
  73.0271339  23.4696960   9.9574792  72.1298552  23.8025641   9.9395376
  73.0374861  22.7734590   9.3006843  16.8864763  32.4562478  26.5076518
  17.0039725  31.5140581  26.6289115  17.2878981  32.8493714  27.2826004
  54.3530560  74.1669416  48.7332249  54.9194574  73.8412619  48.0336857
  53.9875412  73.3775234  49.1325283  27.6433825  37.7622652  17.7325547
  27.8288555  37.6350784  18.6629605  26.9576430  37.1241403  17.5356114
  52.2389793  76.1251402  26.7969847  52.2605324  76.8672752  27.4011397
  52.4806309  75.3712273  27.3349905  78.9783812  44.0949154  23.8299561
  78.8771820  43.7201452  22.9550052  79.4533443  43.4262562  24.3234563
  30.5943251  69.8727465  43.1860447  31.2671161  69.3592453  42.7389431
  29.7921085  69.3617487  43.0785418  17.2287989  55.3511715  38.5814452
  16.5119505  55.9535456  38.3826852  17.8956890  55.5470467  37.9233241
  81.1766815  57.6481867  34.5876408  81.9154072  57.0866251  34.3527889
  80.7257080  57.8097677  33.7589359   9.7940344  52.1555281  21.8008018
   9.4356489  52.8128099  21.2043309  10.5841362  51.8396807  21.3623857
   8.2967407  43.1927967  42.0819712   8.0744165  42.2773266  42.2514534
   8.0237985  43.6561155  42.8738451  34.4637823  24.7024179  44.8351049
  34.2594862  25.6240296  44.9936152  35.1132107  24.7185278  44.1320992
   8.1184155  72.9386568  41.1998940   7.4863911  72.4264431  41.7042923
   8.9722085  72.6518536  41.5239477  42.6144075  47.2071981  16.0355818
  42.9502106  46.4284039  15.5917990  41.6864157  47.2342634  15.8024943
  41.7646313  54.0324831  31.1929631  41.7375565  54.4196081  32.0679665
  41.3741302  53.1654501  31.3024712   7.1908271  30.9756780  61.9538641
   6.5438056  31.1923790  61.2825727   7.8711748  30.4934382  61.4839649
  76.7265081  29.8117614  40.2407026  76.8506241  30.6628537  40.6607866
  76.2808609  29.2813540  40.9012318  14.3640137  39.3339324  25.1665092
  14.3446088  38.5600972  25.7295680  13.5996318  39.8441291  25.4341841
  14.0951324  52.2959185  32.6456332  13.4236026  52.1264267  33.3063555
  13.8779688  51.7033815  31.9259310  82.7667236  22.3826838  15.2807009
  82.1381855  23.0504918  15.0064707  82.2388458  21.5941548  15.4063904
  18.0133450  38.5418177  50.4990101  18.3601689  37.7854013  50.9720659
  18.1693423  38.3395219  49.5765305   2.2924644  70.4729414   9.7210294
   2.0058329  70.1266956   8.8759327   1.9804956  71.3778543   9.7273713
   7.9333085  57.9862022  28.0206585   7.4366045  58.0375767  27.2040343
   7.4055451  57.4232006  28.5869884   8.1770164  25.5470276  58.9524269
   7.4324745  26.1439967  59.0266943   7.7913499  24.7167587  58.6728811
  24.7475410  79.5035887  31.1391211  25.4867125  78.9369774  30.9181976
  24.2293239  78.9904356  31.7590880   5.0227684  54.8352337  33.4034419
   5.4958653  54.1391230  32.9475498   4.5654070  55.3087950  32.7086091
  81.7478752  69.5878363  27.5904417  81.3505077  70.1447201  26.9209623
  82.5342560  70.0620317  27.8605771  79.4573927  73.9550686  10.1247561
  79.0214443  74.8068285  10.1509571  79.2276144  73.5426903  10.9574497
  19.7045112  47.7479506   8.0736643  19.6841502  48.2820797   7.2796106
  19.4324040  48.3447552   8.7708116   8.2818365  31.1026883  50.2863312
   8.5930634  31.6910434  50.9742355   8.0295169  30.3042603  50.7500982
  79.6910286  54.5594406  51.6148663  80.5369854  54.1151762  51.6715288
  79.6833086  54.9492931  50.7406902  50.2283955  71.2598705  24.5033789
  50.4218054  71.9921780  25.0886559  50.9898853  71.2073088  23.9257932
  14.0556312  34.9926543  46.3810682  14.5343864  35.0251460  47.2093010
  13.8611305  34.0641975  46.2531137  73.6530781  16.3789046  41.7430210
  74.1553640  16.4622200  42.5535774  73.7245560  15.4529905  41.5110588
  27.2013831  48.8539505  38.3052707  27.1624804  49.0866089  39.2329502
  26.4568996  49.3097830  37.9125953  25.9069705  37.8619194  29.1164804
  25.1779866  37.8956079  29.7358966  26.0032010  38.7637949  28.8105559
  73.4456348  50.3863573   9.5405197  73.3011866  49.5671797  10.0141323
  72.7928829  50.9881592   9.8982632  25.6949401  70.3984690  33.2153773
  26.1546659  70.8435154  33.9272881  25.3356290  71.1075211  32.6821089
  45.6202030  70.3642225  13.6914694  45.8276081  71.1216211  13.1441474
  45.3251982  69.6955967  13.0732930  14.7371268  55.4114628  36.8195248
  15.4732049  55.2601862  36.2266183  14.4462049  56.3008595  36.6181016
   5.7650328  68.6384344  28.2634020   5.1364440  69.1560793  28.7665439
   6.6135377  69.0361023  28.4586740  30.1664829  51.3167858  13.8189244
  29.9498534  51.5472412  12.9154897  29.3700576  51.5108585  14.3131661
  12.1718919  67.6305771  41.9117975  12.1620154  67.4679422  40.9685659
  13.0317950  68.0162191  42.0793581  16.5050316  69.4816208  46.4786959
  16.4914417  69.0645599  45.6172371  16.5154922  70.4200506  46.2903357
  31.1951303  33.9784837   1.4465658  31.3571095  33.3363152   2.1376634
  30.2898979  34.2567921   1.5856025   1.9903274  44.6543741  35.3644633
   2.8439811  44.3940496  35.7104945   2.1879029  45.3514194  34.7389007
  30.0755763  48.9988613  37.8208899  30.6100059  48.3030653  37.4381661
  29.1943049  48.6277390  37.8640294  30.4275060   0.3502198  50.8633661
  29.7330666  -0.2986291  50.7494402  30.1861978   1.0652146  50.2744818
  52.9566908  15.6782901  22.2678447  52.3606062  14.9357784  22.3657846
  53.8307667  15.2892637  22.2974968  29.9896097  36.8092299   3.9258149
  29.6880579  37.6827049   4.1754919  30.8706903  36.7455745   4.2944276
  59.6839476  61.1679268  54.9403524  60.2568960  61.1179638  54.1751957
  59.6291590  60.2665663  55.2578068  40.2207279  55.1765490  11.0763907
  40.6703329  55.6574821  11.7712224  40.8122587  55.2312279  10.3258324
  78.2562208  59.2221546  41.4821005  78.4666777  58.2893419  41.5246105
  78.5541344  59.5733833  42.3212147  74.3084860  12.3834538  30.1764584
  74.0579128  13.3062160  30.1322246  73.5976887  11.9652855  30.6624007
  72.8212547  49.2792940  61.8787766  72.9531479  50.1911068  62.1384573
  73.4114599  49.1541147  61.1356640  23.3872318  55.4693365  42.1943521
  23.3275390  54.9040985  42.9645300  24.3044949  55.7416296  42.1676111
  13.2127798  48.4560108  43.9732027  12.3589158  48.3445930  43.5551882
  13.0905437  49.1895914  44.5758200  38.4568286  78.9678288  32.5693345
  39.3474770  78.7567711  32.8493881  38.1329513  78.1596375  32.1716452
  29.8981977  59.2629576  23.4237909  29.8635221  58.3072090  23.3841777
  30.8308697  59.4712543  23.3693171   8.6798441  55.7650375  11.4268279
   8.9374149  54.8638868  11.2323618   8.5619080  56.1710548  10.5680668
  77.2184324  48.8510990   2.6069558  78.1697607  48.7817192   2.6868778
  76.8966198  48.7778950   3.5054600   3.2559308  21.9310975  22.6716590
   2.4496719  21.9566941  23.1869483   2.9821619  21.6043544  21.8146157
  68.8059330  21.2509632  53.4626818  68.4014940  22.0100617  53.0426407
  68.8213015  20.5796647  52.7805138  64.6858835  21.7401958  29.6361423
  65.0157595  22.1982622  30.4091787  65.0898218  22.1955180  28.8973927
  11.4654863  53.8856506  41.5947914  11.2140644  53.4887648  40.7608223
  11.2298727  53.2310724  42.2522449   8.0792052  70.3606606  52.6466990
   9.0079039  70.2528715  52.4414349   7.9737926  71.3007164  52.7930450
   6.7959195  69.4180632  25.4614091   6.3076842  69.7448730  26.2170887
   6.1282992  69.2655754  24.7926331   7.5602353  23.2872367  35.8637667
   7.0733404  22.4922037  35.6467700   8.4471190  22.9808283  36.0529280
  13.4703445  34.1850853  11.1619985  12.8282046  33.9974260  10.4774022
  14.2623627  33.7278938  10.8793080   0.9313082  66.5270376  29.6081758
   0.7226854  65.5942965  29.6601629   1.6891927  66.6353369  30.1827312
   2.5775436  18.5025966  64.5456266   2.5042406  17.8054440  65.1974201
   2.5531685  19.3116784  65.0565338  73.2358456  39.6514988   2.5636685
  73.5173702  38.7393689   2.4930057  73.7036896  40.1017284   1.8603569
  11.4077282  71.7837858  44.6345520  11.6705096  72.5805092  45.0954294
  10.9603179  72.0980835  43.8488817  47.5337505  63.5196829  41.7546415
  47.9566002  63.1379175  40.9854317  46.7506218  63.9483643  41.4094305
  20.7386589  48.7126684  45.8807039  20.0503731  49.3777180  45.8665323
  21.5455627  49.2061663  46.0276604  19.7855651  58.3115673   1.5434721
  19.2148471  57.5798559   1.7782250  19.8993409  58.2322884   0.5963701
  82.0792389  35.3248668  66.7377853  82.3862171  34.9621058  67.5686884
  81.1485386  35.1030922  66.7088938  80.4928684  71.9870234  29.4007778
  81.4284229  71.8782330  29.2300892  80.2166462  72.6728249  28.7928200
  58.1134415  47.9378843   0.0766069  58.8939857  48.3585930  -0.2839373
  58.4376001  47.4274349   0.8186271  51.0203600  64.7665739  39.9845481
  50.9127808  63.8188219  40.0646877  51.5642262  65.0100851  40.7336426
  71.4451265   1.9126610  63.3726501  70.9274864   1.8683709  62.5687075
  71.3405609   2.8146610  63.6754560  84.1322517  76.4161682  32.4346542
  84.6163177  76.3338375  33.2563210  83.2341576  76.1739826  32.6604676
  10.3703558  49.2502594  54.6247959  11.2158382  49.5864725  54.3275499
  10.3635895  48.3356953  54.3423843  29.0455937  67.9100370  51.4858961
  29.8662639  68.3111668  51.1998367  28.4059143  68.1762362  50.8254576
  67.8732634  64.7999954   9.2224795  67.7196455  63.9109898   8.9026397
  67.0475960  65.0517178   9.6361727  31.1795902  66.5144825  31.0816979
  31.8981791  66.8387842  31.6245508  30.5032063  67.1880913  31.1523008
  17.6264322  32.4907374   5.7979894  17.9499495  32.4454308   4.8982587
  16.6877460  32.6545286   5.7070267  17.0700884  62.9243040  36.2985039
  16.5406418  63.4579945  35.7059765  16.8721998  63.2663488  37.1703267
  16.0982513  15.7524133  34.1166377  15.3453934  16.3433874  34.1302991
  15.8571517  15.0435495  34.7129726  66.2113857  21.4677525   4.2719486
  66.8678236  20.8209062   4.5306256  65.5422115  21.4160085   4.9544179
  76.1510134  27.1005750  38.3137965  76.3031387  27.9811883  38.6567378
  77.0126629  26.6841125  38.3324695  27.8227305  74.1160393  27.6674414
  27.1907496  73.7258577  28.2712555  28.6697054  73.7733459  27.9527974
  21.4293146  66.7043066  52.8111696  21.8758059  65.8911085  53.0469370
  22.0924592  67.2160196  52.3478985  35.7112312   1.4046259  30.4475594
  35.1146865   1.9395639  29.9239111  35.1362514   0.8827172  31.0072374
  81.7431259  17.2772288  15.6001675  81.9209099  16.4124942  15.2302206
  80.8051777  17.2678936  15.7909596  57.6107168  42.5503540   2.4285503
  57.5277901  42.9218721   3.3068028  57.8062725  43.3013964   1.8682644
  36.6251659  53.5895872  30.8523107  36.8958116  54.0992165  31.6160250
  37.3936296  53.5868406  30.2816200  27.5757217  51.7105293  47.0200348
  27.7734566  51.7849779  46.0864449  27.7866578  50.8026266  47.2378778
  35.4606032  29.0421033  10.9779394  35.0067377  28.2548904  10.6770480
  36.1776805  28.7127995  11.5197802  34.9822330  52.1864223  11.5794301
  34.2277813  51.6532087  11.3289917  34.6093059  53.0393267  11.8023837
  22.6327205  31.3511920  21.6540146  21.6837549  31.2501645  21.7280817
  22.8698730  31.9262576  22.3815393  13.9984095  46.7186880  36.9780684
  14.3903542  46.4391899  37.8054094  14.3797219  47.5807190  36.8115354
  52.0176363  65.5086040  34.2237806  52.9541636  65.6782007  34.1219044
  51.8361044  65.7106018  35.1416445  68.9528179  50.7579231  44.6128702
  69.4848442  51.1831236  45.2854633  69.2844009  51.1102962  43.7869644
  16.2064207  54.1227150  33.6814332  15.4670238  53.5444355  33.4940362
  16.5915430  53.7671900  34.4823790  71.6639709  19.4442558  29.4603109
  71.7680979  20.2326989  28.9276314  71.5337563  18.7409306  28.8242221
  64.9936962   6.4848030  12.4096406  65.6659985   6.3913298  11.7347312
  65.4527330   6.8773192  13.1522357  34.3959427  77.4805927  17.0371234
  34.5962000  78.1719351  17.6681328  34.8849845  77.7245760  16.2512851
   5.8488518  54.8014116   8.9087284   5.9015131  55.0155926   9.8401713
   6.0336053  53.8631010   8.8679063  80.5437374   8.6332005  39.5879769
  79.9310064   8.1240439  39.0573597  81.2905788   8.7875605  39.0095067
  45.6739950  42.9261351   3.0319086  45.3476000  42.2400331   2.4497020
  44.9381399  43.1166792   3.6136720  51.6174173  75.0768900  19.2525983
  51.2663078  75.9658480  19.3046212  52.4554491  75.1230526  19.7128248
  28.0376196  45.8914471  38.8783240  28.3205271  45.7779646  37.9709578
  27.1780992  46.3072872  38.8109922  56.0990810  50.3444624  55.0376654
  55.7948971  51.2406635  54.8943949  55.3392696  49.8886538  55.3998280
  38.3334756  66.2736082  40.6365633  38.6363029  65.6165123  41.2632608
  38.6179662  67.1084213  41.0085726  83.4759521  65.5329037  36.3220406
  83.9008045  66.3388586  36.0284805  82.5761223  65.7940865  36.5177941
  19.6135175  63.2426548  32.4861979  20.3168821  63.8368797  32.7477407
  19.8243773  63.0046272  31.5833616  26.6762471  17.6650608  40.9374189
  26.1597610  17.1264386  40.3379536  26.3958526  18.5620153  40.7555246
  50.4335594  50.8449364  48.1293058  50.2376795  51.7686367  47.9723406
  49.5756531  50.4234695  48.1802559  23.8697767  68.8328362  63.8143635
  24.2477870  69.4587231  63.1966257  22.9811478  68.6842060  63.4911299
  75.4734421  46.8555355   1.9609070  75.2841377  46.7087555   2.8876486
  76.1167383  47.5643301   1.9571911  52.5961781  67.7267694  15.6814873
  52.7246571  66.9269037  15.1716387  53.4349203  67.8682899  16.1204815
  60.3522873  76.5528011  27.4932885  60.8473492  77.2324896  27.9506373
  59.7148800  76.2458992  28.1380796  23.8599920  13.3521128  36.6750550
  24.6501899  13.7417674  36.3009048  23.9461398  12.4159884  36.4948297
  35.7553053  25.4803562  14.6418178  35.2084112  26.2378645  14.4336855
  35.8130693  24.9935222  13.8196945  77.1340895  45.9912443  18.4068573
  76.4100647  46.1936283  17.8143513  77.9147482  46.2947798  17.9435313
   8.2295299  46.1720991  12.9991853   7.3959225  46.6425180  13.0055189
   8.7300676  46.5812302  12.2932780  14.6190989  37.0251060  29.1330504
  13.9417529  37.6237559  29.4477749  14.5446336  37.0592642  28.1793642
  41.2513399  55.6588840  16.9674408  42.1906137  55.4873323  16.8998730
  41.1823893  56.3644361  17.6106167  56.1245823  24.5395255  60.9393454
  55.9434414  23.7360716  60.4516125  55.8615446  25.2438211  60.3468800
   9.0105510  64.5497894  29.8842478   8.1894159  64.0582943  29.9043298
   9.6148050  63.9869452  29.4001865  65.9314013  56.2317944  51.7660093
  65.8658838  56.3648987  50.8203745  65.7906771  57.1013403  52.1405935
  11.2115610  38.7814379  47.0707369  12.0796561  38.4290504  47.2668695
  11.3734472  39.6905613  46.8187046  33.0015516  43.5794449  30.7309890
  32.4145722  42.9539251  30.3062367  32.4341774  44.3087959  30.9807229
  41.4728451  50.6976843  29.5401406  41.7619562  49.8255253  29.8084378
  41.0439825  51.0572672  30.3166795   4.0192708  47.3025179  35.3932524
   4.5724252  47.8806591  35.9186172   4.6222949  46.6462040  35.0441885
   7.4035287  55.1878834  28.8963032   6.8591249  55.4783201  29.6280837
   8.2278585  54.9201345  29.3025327  22.5490713  46.0590696  25.4974008
  21.7058468  45.6583595  25.7086658  23.0007219  46.1244011  26.3388133
  16.0264170  73.9866829  54.4238424  16.1377394  73.2574368  55.0337934
  16.4605343  74.7249174  54.8513651  10.9631979  57.6653671  10.4072499
  10.3244460  57.4323893   9.7334933  11.7796326  57.2613859  10.1131988
  61.3718367   0.1099636  12.4627876  62.0115232   0.3669779  11.7987275
  60.8161545   0.8817425  12.5714481  80.4287910  65.0455809   5.0866061
  80.3285122  65.9862709   5.2324647  80.2170563  64.9227762   4.1612327
  22.3485947  50.5851126  55.3185320  22.7562094  50.6387615  56.1829424
  21.7875528  51.3591194  55.2698278  48.4878349  52.1657181  15.9272945
  48.0923510  51.5953922  16.5865016  48.2695913  53.0520535  16.2154078
  22.8789735  40.6880331  16.8133903  23.6813760  41.1045885  16.4989638
  22.7336860  39.9607539  16.2082529  79.8951340  11.3363838   8.0227059
  79.0750694  11.7884970   7.8244168  80.4262829  11.4468503   7.2340930
  23.5293627  37.6520610  15.7865369  23.8280869  38.1610322  16.5401566
  24.2913985  37.6097584  15.2088308  82.6026726  13.0283070  32.8621697
  82.2067356  12.2038531  33.1445527  81.8740749  13.5320067  32.4993110
  21.6998219  44.9615669  32.2718620  21.9849610  45.4221487  31.4826894
  21.5347528  45.6569624  32.9085779  80.2655220  41.1635590   6.2085861
  79.4468403  40.8543491   5.8207852  80.1690578  42.1152020   6.2446213
  31.2506461  23.8621473  19.9189186  30.4676270  24.2481470  20.3114963
  31.9687080  24.4192052  20.2194238  64.5317316  34.5736909   2.5985834
  65.1381063  35.1730967   3.0336148  63.6700773  34.9707842   2.7254862
  70.3710413   2.9555821  29.6221042  70.0464869   2.9193506  28.7223363
  70.1400995   2.1045616  29.9944758  82.1778393  54.9252653  38.2636523
  82.7255726  55.6339836  37.9260969  81.8499565  54.4823980  37.4809694
  24.5651889  41.3016224  58.5324287  25.2073789  41.5471888  59.1984034
  24.4075608  42.1087313  58.0425739  18.3875287   1.5852053  14.3545949
  18.3036733   2.1937673  13.6205292  19.3181920   1.3623996  14.3758857
  72.8116703  72.0154715  25.2437901  73.6509514  71.8400908  24.8182535
  72.1584606  71.8404913  24.5663452  57.9657745  66.6172171  19.1370487
  58.6836052  67.2379589  19.2620575  58.2695341  65.8121634  19.5563924
   8.8221049  63.7834930  23.1280994   8.9647573  64.3347788  22.3587036
   9.3466592  63.0002165  22.9621005  12.9190862  64.7196960  12.8585613
  12.1949399  64.6893311  13.4837973  13.6933243  64.8848534  13.3966231
  47.0452166  76.9026279  22.4203706  47.9364872  77.2470999  22.3637390
  47.0953321  76.0397911  22.0089960  39.9403691  60.5745411  38.8735318
  39.7064471  61.1289597  39.6179342  39.4416118  60.9349966  38.1403589
  25.5144286  57.7779150  26.9387507  25.0362968  58.0383635  26.1514854
  25.8464384  56.9026947  26.7387748  52.6935434  74.3118000  67.4565077
  53.5071898  74.8105812  67.5302410  52.3201180  74.5851755  66.6186237
  40.1037884  12.1162128  53.4978676  40.7790089  12.7834666  53.6206865
  39.2921758  12.5435507  53.7715435  11.6776478  64.2612457  21.5465403
  11.7114460  64.6659184  22.4133325  11.1276603  63.4868383  21.6650319
  12.9095471   3.3768886  66.1262560  12.1193254   2.8594258  65.9712934
  12.6475739   4.0238404  66.7812777   9.9362963  55.8061028  27.2477674
   9.9690491  55.3692627  28.0988431   9.0415150  56.1401176  27.1842670
   8.4854126  40.9263897  11.2704074   9.4399345  40.8590794  11.2946653
   8.1781667  40.1343536  11.7114389  42.3306894   0.2255699  49.0039968
  42.5814533  -0.1689538  49.8392820  42.6084042   1.1386505  49.0774202
  20.6801438  43.3278084  18.3398986  20.6563306  44.2727613  18.1891513
  21.3863611  43.2041597  18.9740932  39.0386438  31.5251255  13.4086359
  38.1113076  31.5965199  13.1823969  39.1425967  32.0902038  14.1742146
   9.7689539  53.2660818  32.1002221  10.1667619  52.4084473  32.2500372
  10.1930249  53.8413334  32.7369928  82.0053101  60.5329609  20.2605939
  82.3157597  59.6526480  20.4724956  81.0595798  60.4335737  20.1513219
  30.9138370  60.9525347   6.6399753  31.2949228  60.3906059   7.3146915
  30.3519511  60.3682518   6.1309320  72.2511911  66.1572266  32.3787093
  71.3944054  65.7914352  32.5985980  72.1228838  67.1051645  32.4130797
  23.7501645  65.8857536  47.7528381  22.8221035  66.0941982  47.6456690
  24.0867138  65.8246756  46.8588352  47.2693539  46.4987230  46.6651869
  47.5321913  45.6287909  46.3645887  47.1734285  46.4057636  47.6130199
  22.7701950  67.6240921  43.7376833  21.8156052  67.5788784  43.7919807
  22.9556751  67.6514006  42.7990246  77.7230644  59.5114470  53.9954567
  77.7696133  58.5735083  53.8101578  78.4447432  59.6715593  54.6035480
  72.5700188  19.9649918   4.0710038  72.5291300  19.0342951   3.8510865
  71.8947124  20.0831509   4.7390068  50.6079006   8.5739189  21.2707853
  50.3948736   8.2117325  20.4107428  50.5904722   7.8193295  21.8594480
  30.3093791  77.0483637  66.5479994  29.6577764  76.6506577  65.9705257
  30.5096984  77.8903341  66.1391163  15.2482212  27.7074623  58.9522171
  15.5979347  26.9003582  58.5747051  14.3570113  27.7663779  58.6079693
  39.4865704   2.8038988  49.0012836  39.6993232   3.7263077  48.8594055
  39.5242357   2.4124379  48.1286001  82.5981045  28.7947154   0.9393745
  82.5271606  27.8404236   0.9164149  81.6922951  29.1029477   0.9120926
   6.2227827  66.0140562  36.3713336   5.6944489  66.8102121  36.4281774
   5.8756757  65.5501556  35.6093979  53.6953831  68.1979084  44.8781013
  53.5237169  67.8065395  45.7346010  54.6380568  68.0913258  44.7506666
  32.4853349  23.2655740  23.7848234  32.0292425  23.6900043  24.5115066
  32.8156924  22.4469185  24.1548252  59.2982388  21.4957333  17.2101092
  59.9777603  21.9378924  17.7190065  59.5937920  21.5675950  16.3025212
  58.0800867   1.6877419  23.5425544  57.8293133   2.6069558  23.6341524
  58.4841537   1.6348748  22.6764321  37.8676939  57.3764753   8.8854790
  37.7455616  57.3650122   7.9361719  38.0018520  58.2999611   9.0985721
  11.5902686  58.0979824  48.1952858  11.7519689  58.0666494  49.1382122
  11.0202479  58.8575029  48.0751419  82.1918488  49.9944019  15.2307022
  83.0004787  49.5224714  15.4297721  82.4055004  50.5215311  14.4608212
  48.0753136  50.7669449   6.5815753  48.6561680  50.0920391   6.9327718
  47.5624084  50.3161573   5.9107924  47.7593517  45.5061007  12.7458668
  47.9979849  46.4220190  12.6031029  48.4978771  45.0086355  12.3946667
  34.3698335  64.2973375  39.9389076  33.8931203  64.4907713  40.7461023
  33.7141228  63.9067221  39.3612432  24.0870953  50.2059317  34.0587759
  23.9288855  51.1478710  33.9959145  25.0391173  50.1264286  34.1184831
  19.4163609  21.6089272  62.6849556  20.0709200  21.3696289  62.0288134
  18.6700428  21.0396385  62.4974680  25.5432916  54.5356178  16.5156853
  25.7651711  55.4540682  16.6688132  25.1125288  54.2554235  17.3232532
  34.6347404  62.9609776  33.2180691  33.8959670  62.6192474  32.7144146
  34.3747783  63.8526344  33.4495878  33.3831525  48.9727497  28.3404255
  32.5890899  48.8362408  28.8572073  33.1508112  48.6745787  27.4610257
  20.9695148  69.8736382  31.5095186  21.7428470  70.0195980  32.0543885
  20.9643507  68.9300299  31.3488579  42.9857779  70.2313280  32.1814013
  42.5968695  71.0909653  32.0201397  43.7774754  70.4174948  32.6861644
  43.4741449  50.7863569  35.9010172  42.8212595  50.2592993  36.3616490
  44.3096828  50.3683376  36.1092734  25.7761407  68.2167530  10.4452372
  26.1984491  68.9741707  10.0400138  25.6821966  68.4592819  11.3664234
  41.9831371  75.6175375  37.2551084  42.1180058  74.7734213  37.6858163
  42.8231192  76.0680676  37.3427653  22.1729112  41.3447762  35.4039240
  21.2529016  41.6064501  35.4405475  22.1616101  40.4041481  35.5809188
  29.2615223  59.2301226  35.6278825  29.3247676  59.8474026  34.8990464
  30.0803781  58.7355518  35.5946279  19.1186702  56.3571501  37.1926427
  18.9939499  57.1453094  37.7213097  19.6914446  56.6360950  36.4782524
  65.3532648  57.9145288   6.4310068  65.7253313  58.4415340   5.7238537
  64.8714876  57.2190046   5.9833843   2.6851752  55.2199841  44.1209984
   3.1660452  55.1197386  43.2994461   2.5000051  56.1574173  44.1772842
  31.7805433  32.1954370  40.4807520  31.3846707  32.5858498  41.2599134
  32.3415112  32.8851151  40.1259470  81.3117790  11.1406624  63.6710072
  80.8948708  10.3888571  63.2500410  81.0499096  11.8901980  63.1363535
  12.3888195  74.9543095  21.6266084  11.4715314  75.1406145  21.4263463
  12.3728836  74.6016693  22.5163388  23.0211568  69.3523264  16.0484350
  22.3876548  70.0120926  16.3306010  23.7748885  69.4824457  16.6239274
  17.5169170  61.4465714  55.6074095  18.1852102  61.9882298  55.1876163
  17.8076780  61.3687897  56.5160561  18.3400190  28.1412292  60.7950735
  19.1138327  27.7328753  61.1832619  18.2096505  28.9405847  61.3052368
  39.6682549  74.7258663  28.1654501  39.4922137  73.8733196  28.5634446
  39.7077012  75.3319883  28.9052439  70.4351187  38.8101792   5.2876931
  71.2072897  38.2550359   5.3963071  70.7825804  39.7017646   5.2636921
  39.3637156  61.2774181  14.0970922  39.0895295  61.0614586  14.9883914
  40.0522232  60.6429672  13.8979495  20.2306962  26.5228653   7.9363501
  19.4268107  26.0054445   7.8886271  20.9201527  25.8796024   8.1009400
  69.1752434  33.2600069  21.2721014  68.8529587  32.9649329  20.4204583
  69.8020077  33.9529085  21.0640430  11.6299093  43.5670376   6.9150066
  10.7607234  43.9404058   7.0610893  12.1703863  43.9383888   7.6122957
  72.3941517  10.6399560  39.2578030  72.4395895  10.0969851  38.4708142
  73.2260418  10.4838812  39.7048283  38.5392404  69.8530626  52.8312063
  37.6802993  70.1058054  53.1696939  38.5613322  70.2101040  51.9433641
  25.8557105  25.5703378  25.8272862  25.8197880  24.6359658  25.6226063
  24.9636149  25.8829713  25.6767583  19.4947445  62.4877214  26.1042571
  18.9356589  62.2422361  25.3671050  19.9889755  63.2442045  25.7885003
  53.4456873   8.4330499  51.1817789  53.0341816   7.7308774  50.6779480
  54.3459940   8.4641236  50.8581781  65.9938669  69.4381952  58.5676527
  65.0503302  69.2964792  58.6443710  66.3700676  68.9463711  59.2975950
   5.6464398  69.7997141  51.1320591   6.3859344  70.0801945  51.6712379
   5.7355332  68.8481092  51.0796833   7.0934325  76.7712212  19.6222615
   6.6364336  77.4495745  19.1250539   6.6416395  75.9595823  19.3912697
   0.8395057  59.8753119  40.3019428   0.0423630  60.4025030  40.3555012
   1.2110177  60.0891399  39.4460869  54.0280342  62.7090549  18.8900733
  53.8798523  63.6323404  19.0945816  53.7571907  62.2421789  19.6805787
  41.4629793  10.4520881  48.2233572  41.3640261  11.2953544  47.7813816
  40.7846165  10.4545629  48.8986731  76.0887909  72.3615885  43.0848837
  76.8062258  72.4438047  42.4565887  76.4822912  71.9285822  43.8424444
  60.7163429  12.7804184  64.2872667  60.9550190  13.6808860  64.5073223
  59.9733400  12.5833654  64.8576593  24.7467089   6.1497808  14.8394918
  25.1946211   6.5658432  14.1029465  25.0711489   5.2492416  14.8393571
  54.4818354  41.7236042  12.0623827  54.4411516  40.9838486  12.6684642
  54.5177507  42.4949694  12.6280189  10.4337180   6.4315748  34.3774962
  10.4717565   6.6630536  33.4494877  10.9505594   5.6287771  34.4454813
  76.8645716   4.3464866  40.2361870  76.4286947   3.9798656  39.4668770
  76.7560816   3.6790913  40.9137154  24.4088960  65.9084845  44.9119711
  23.7745810  66.5071201  44.5176220  24.1099262  65.0372314  44.6516466
  70.3544092  10.4234028  22.9220510  70.6885719   9.7304302  23.4915709
  70.9225607  10.3955173  22.1522093  37.5079679   6.1634237  64.6902227
  38.1039381   5.4157484  64.7353172  37.1700716   6.2544537  65.5811644
  52.5951529  65.2277994  14.5976031  53.1063986  64.4653893  14.3263257
  51.6871214  64.9253988  14.5813358  43.6331129  12.0093656  63.3104515
  43.0761766  12.0976269  64.0839291  43.8308334  12.9100239  63.0536413
  52.2804213   0.7294262  55.1426315  52.4252510   1.1774451  55.9760189
  51.6225815   0.0627705  55.3402472  57.2450781  56.3214636  33.9691401
  57.2616053  56.4474297  34.9178696  57.8687096  55.6127882  33.8107204
   7.5854874  67.1742058  21.5049696   6.7662078  67.6573753  21.3974667
   7.7671087  67.2165632  22.4438262  44.7333670  72.6981306  26.9135356
  45.2924824  73.0674696  27.5970650  44.5737553  73.4275103  26.3145709
   9.6974742  78.7701178  40.8823395  10.0260639  78.0489731  40.3454876
  10.1328826  79.5472383  40.5319929  50.8675480   1.1372117  18.2838058
  51.6521788   1.2267928  17.7429140  51.1961317   1.1280293  19.1827941
  42.3510361  43.2525492  21.0422397  42.2886753  43.7472153  21.8593359
  42.7757692  43.8535881  20.4302073  67.5620508   2.7006570  14.9081576
  68.1695080   3.2671410  14.4324267  66.8543053   2.5324315  14.2860389
  49.2717886  77.2995281   9.3338490  48.7509298  77.3900843   8.5358888
  49.3047619  78.1833410   9.6999317   0.4284406  52.5428963  19.6557009
  -0.2978303  53.1467724  19.8109257   0.0177492  51.7678022  19.2725646
  35.7212019  77.2379589  44.5758486  36.6163301  77.3753071  44.2658329
  35.5643725  76.3023806  44.4480562  32.8281307  68.5169411  41.7822599
  33.2754874  67.7227116  42.0743322  33.3065891  69.2303801  42.2045279
  56.3359976  58.8055086  36.4160442  56.7870283  57.9763269  36.2571120
  56.0317993  59.0822029  35.5516744  45.8391953  55.3007984  19.3716455
  46.0058212  56.1893940  19.0572250  46.5807438  55.1065826  19.9449003
  23.6059809  63.6831188  43.3376837  22.8571463  63.1578636  43.6197948
  24.1143560  63.0949211  42.7792883  19.8832214  48.6291265  42.9672766
  19.2384803  48.3340836  43.6103058  19.8092270  48.0013418  42.2485018
   3.8142142   4.3064493  35.2166891   3.7210953   4.5981613  34.3097925
   4.7567183   4.1881135  35.3346491  79.6398401  50.4125786   3.6976635
  80.0702000  49.6260691   4.0329641  80.3331947  50.8886147   3.2406294
  43.7123346   1.4527777  22.4265265  43.9829016   2.0285597  21.7113352
  44.0032434   0.5818991  22.1560192  57.7852249  39.4292998  48.1443930
  56.9574881  39.8768950  48.3197117  57.5559378  38.7350512  47.5265932
  16.6988289  22.1484947  44.4343424  17.2701848  21.3866973  44.5315504
  16.2000680  22.1795440  45.2507401  48.2249355  10.8968437  45.3739262
  48.8073587  11.0412443  44.6281576  47.7561474  10.0904238  45.1590824
  20.4562783  36.7131877  30.3271127  20.1253796  36.7948055  31.2215829
  19.6753240  36.5568709  29.7961617   9.3926895  66.9457006  47.6527596
  10.0471306  67.5664997  47.3325348   9.8906666  66.3270998  48.1871605
  64.0350485  55.8947563  33.4457183  63.9900684  55.5733252  32.5452256
  63.2516289  56.4354372  33.5464478  37.3981500  54.2175913   6.7991579
  36.6593003  53.6447096   6.5938902  37.5273919  54.7357321   6.0047656
  52.6762915  67.5206280  42.3817539  52.0076704  68.1892633  42.2330856
  52.9862642  67.6857042  43.2722044  36.2453270  67.4231291  47.5777006
  35.9215045  68.0390072  48.2350159  37.1811724  67.3451471  47.7630186
  17.0895803  55.2885485  45.8293295  16.4315414  54.9058914  45.2489948
  17.8744960  55.3613853  45.2863407  31.9694042  69.5604372  45.6855392
  31.6926575  70.1319790  44.9693060  31.1953521  69.4835329  46.2433529
  24.7498488  24.7542071   3.3800888  24.9819326  24.8774529   4.3005127
  25.5331349  25.0193238   2.8980029  23.9284325  69.8148012  45.3389788
  23.2419872  69.2367649  45.0059605  24.7131014  69.5588970  44.8541689
  54.2625570  48.8131475  16.7788601  53.3817005  49.0465832  17.0718384
  54.2794561  49.0564966  15.8532643  27.2390389  60.0495386  47.6513386
  27.6906514  60.8910799  47.7152967  26.4674854  60.2319241  47.1149921
  12.6220059   0.7460440  15.1693690  13.5621274   0.7187279  15.3472900
  12.5067937   0.1838568  14.4032717  39.9875522  12.3013067  12.0264852
  40.3401423  11.9728661  11.1994183  40.1732826  13.2401717  12.0100236
  32.6842093  65.0414562   5.4464877  32.8134632  65.9341812   5.1262367
  32.8519082  64.4869995   4.6844581  13.5305369  43.0493832  53.0247831
  14.0972757  42.2819328  52.9469538  12.7346826  42.7182055  53.4409142
   5.1892340  17.1306491  67.0941544   5.4375225  17.2814548  68.0062056
   4.5616347  16.4089537  67.1329689   9.2606878  61.1303091  34.8714924
   9.7981060  60.5173111  34.3698525   9.4711542  60.9406185  35.7857966
  61.3766050  55.4608822  30.4499030  61.1425352  56.1543131  29.8329759
  62.0648384  55.8454990  30.9927082  76.8329144  61.3448191  43.2776594
  77.6174498  61.6890478  42.8507566  76.3169575  60.9696865  42.5640106
  27.0308828  53.9555550  20.7835269  27.7100444  53.2876539  20.6893039
  26.6479039  53.7878990  21.6446018  54.2721605  20.7282281  57.3319054
  53.6540937  20.1039147  56.9518328  54.1417265  20.6492901  58.2768869
  38.8216805  49.4644594  35.9107876  39.2623019  48.6470938  35.6783962
  38.0722332  49.5097446  35.3170633  72.8222418  31.7975044  13.8719118
  72.9505682  32.6094842  14.3622708  71.8772364  31.7523623  13.7264347
   2.1976741  47.6633596   5.4449099   2.5670347  47.0092821   6.0381967
   2.3935023  47.3301411   4.5692104  21.2946939  61.8437958  62.7849436
  20.4037952  61.5321302  62.6255655  21.8199277  61.4274740  62.1015406
  67.6957941   1.4373948  25.5912828  67.7312756   0.5181324  25.8557248
  66.7727804   1.5937598  25.3917217  21.0966110  50.6414795  38.7372160
  20.3239894  50.0765419  38.7488031  21.2931418  50.7594490  37.8078675
  63.9905500  15.6965744  16.9935703  63.8155508  14.8477364  17.3998749
  63.7544298  15.5751467  16.0739326  40.3631449  57.9336405  46.2725925
  39.9420094  57.1447992  45.9311104  40.2583790  58.5817432  45.5760193
  56.3934088   7.0123810  14.0453351  55.6611490   7.5880522  14.2658710
  57.1612453   7.5836051  14.0641940  60.9382105  10.4432559  31.1857438
  60.5042553   9.6512109  31.5028882  60.4325771  10.7011163  30.4149795
  57.7838850  74.5959806  60.7341623  57.9071617  73.8663244  60.1270103
  56.8350983  74.6580172  60.8445644  21.1234307  66.1918116  10.2139890
  20.7303596  67.0397377  10.0072408  20.8063507  65.6066942   9.5259988
  33.9152479  74.7714996  21.9768500  34.3419409  73.9540243  21.7201447
  33.0733657  74.4981098  22.3411679  37.9028273  75.0383091  25.7915616
  38.6369681  74.9568844  25.1827621  38.2756805  74.8232460  26.6465235
  32.6211810  63.7438679  42.1566916  32.6283836  63.6874914  43.1122017
  31.9597101  64.4074583  41.9608974  28.5013533  71.1153889  23.9367843
  27.7162075  71.1390400  24.4837952  28.5763144  70.2007055  23.6648154
  22.4954963  72.0041895  17.3562706  22.4911809  72.5972080  18.1076336
  21.9623661  72.4487591  16.6972065  36.0840726  46.7874622  24.4360518
  36.2208009  47.6580477  24.8097086  36.1992264  46.1891747  25.1743078
  47.7602100  54.1130495  42.0203924  47.2717667  53.3182287  41.8061113
  48.6776066  53.8400316  42.0118427   2.4997911  72.0479393  39.5821428
   2.1519518  72.4948311  40.3538465   3.4445998  72.0124149  39.7314954
  13.2142270   4.3084157  23.8558936  13.9459491   3.9374056  23.3627748
  12.5788486   4.5627135  23.1866717  25.7608604  76.9724321   0.8824379
  25.7351542  76.0623550   1.1779585  24.8496008  77.2627878   0.9215609
  20.4308748  59.0382433  43.2978058  20.0050521  59.6796894  42.7290726
  19.7120786  58.6359692  43.7853909  78.0595493  69.0388823  10.8449459
  78.4532070  69.4852352  10.0952590  77.3534060  68.5142708  10.4676127
  43.9461374  61.9183064  23.4766817  43.2098579  62.0979691  24.0613556
  44.7106171  61.9014454  24.0524578  30.3372634  79.0070476  47.8382063
  30.6688321  79.8197689  47.4563980  29.4137252  79.1852068  48.0158806
  50.2892160  38.6508727  63.2426071  49.8484230  39.4140124  63.6161757
  51.1922503  38.7204432  63.5523129  10.0914180  56.8768311  35.7832670
  10.7582915  57.2970629  36.3263321   9.3353868  57.4614239  35.8371377
  54.4488287  15.5743814  32.1546292  55.3677416  15.4688847  31.9082570
  54.2131138  14.7412527  32.5627565   4.9205142  37.9082513   2.8032357
   5.7251549  38.0635571   3.2978714   4.2388237  38.3493066   3.3101869
  30.4893231  13.2688117  47.3615408  29.7499275  12.6662946  47.2809219
  30.8343601  13.3449280  46.4719439  21.6525292  71.8356466  38.6967587
  21.3744116  72.0564699  37.8078723  22.4517870  72.3449230  38.8311243
  33.4366012   2.4387527  32.1267247  33.2934713   3.3793974  32.2312880
  32.6183963   2.1121342  31.7524314  16.3874578  59.3061447  35.5400872
  17.1578610  59.1332674  34.9989557  16.2813890  60.2569437  35.5089879
  30.1022601  67.0376682  14.4502234  29.3887711  66.9207668  13.8229275
  29.8149300  66.5639544  15.2307832   3.6426234  39.7126126  47.8180170
   3.1542373  40.0623703  47.0727777   4.0678638  40.4774284  48.2059145
  55.9705973  57.1335506  47.1817160  56.7518759  57.5308323  47.5664186
  55.4892588  57.8693771  46.8034220  41.0527563  72.0918274  23.1360149
  40.4872751  71.9058943  22.3864174  41.8781614  72.3814440  22.7473545
  83.5029316  38.2835054  62.0026684  83.3495140  37.8748894  61.1507702
  84.4533157  38.3867192  62.0511246  46.4597797   1.5623908  33.4525371
  47.3073530   1.6170862  33.0111098  46.6663647   1.6661017  34.3814063
  32.0086265   1.3245906  52.8612471  31.7752361   2.2480111  52.9564047
  31.6536999   1.0745169  52.0081806  79.7353125  25.9989166   9.8963118
  80.3198338  25.7418799  10.6094015  80.2867031  26.5162444   9.3093073
  76.1574793  39.7265100  65.8996105  76.3453674  40.4761362  66.4644051
  75.6393528  39.1373825  66.4479733  74.2985344   3.9328420  61.9114017
  74.8850298   3.7518448  62.6459026  73.4389925   4.0527925  62.3151731
  26.9100451  56.2604618  10.9026051  27.0139933  56.3795900   9.9585521
  27.8041983  56.1730051  11.2328684  66.1202288  33.7740350  49.3552876
  65.3967094  33.8746047  48.7367105  65.7340717  33.3188844  50.1035833
  49.0528870  21.0045505   2.5064936  48.8485241  21.4803433   1.7014542
  48.7126017  20.1225615   2.3563877  24.0285611  62.4856377  38.7149477
  24.0282464  61.6678381  39.2123771  23.9092112  63.1678963  39.3756390
  62.4466228  53.6884356  34.6521139  62.1502161  53.7746572  35.5581689
  62.7809477  54.5563412  34.4258595  82.2246742  69.9335861   9.3610388
  82.1304321  70.4814005  10.1403022  82.5984478  69.1150665   9.6874511
  12.7284896  71.6158342   5.0534225  13.1395805  71.2934351   4.2513663
  11.8846846  71.1652374   5.0878996  16.0359299  14.8806930  53.8559532
  16.2139940  14.6356213  52.9479504  15.0928855  14.7524047  53.9581299
  18.2373714  75.2456093  35.4271126  18.1974435  76.1848545  35.2469659
  19.0938413  75.1160479  35.8344293   0.7704331  67.4492550  24.2108035
   0.0629720  67.4358225  24.8554349   0.3283464  67.5855684  23.3728242
  64.4140100  18.3517015   5.0216925  65.0098038  19.0820253   5.1886922
  64.3087339  17.9287934   5.8739233   5.2267134  71.3658953  38.5732651
   5.6514001  72.0684719  38.0810690   5.9339768  70.9673023  39.0803504
  32.3086977  51.0415506  33.0433393  32.6340032  50.1968479  32.7320719
  32.3661733  50.9836531  33.9970565  53.3869886   1.3431758  17.2810256
  53.4822655   1.4480349  16.3343692  53.8637686   2.0849875  17.6533592
  19.2899752  65.5954313  54.9259663  20.0378966  65.8210182  54.3728304
  18.6117005  65.3180027  54.3101692  73.0833197  55.9530878  58.9380503
  72.5172377  55.4703522  59.5403385  72.8867960  56.8738508  59.1106844
  75.6317329  75.4466772  46.8268776  74.7885370  75.2022219  46.4454365
  75.5595732  75.1962423  47.7479172  40.1109552  23.9750910  51.0454988
  40.3944492  24.5541191  50.3379774  40.9129524  23.5399270  51.3347483
  17.4590719  69.8117065  57.2181845  18.0383265  69.0682125  57.0511293
  16.7412806  69.7009277  56.5946960  50.4427910  76.2707901  36.1455631
  51.2353325  76.4821148  36.6389728  49.8919773  75.7968664  36.7686439
  59.0410376  11.1159253  23.2869244  58.6762810  10.3125286  22.9157925
  58.2756424  11.6450870  23.5114098   2.4371789  66.4722538   1.8625204
   2.2280370  67.2649527   1.3684364   3.1668478  66.0777950   1.3848019
   5.4200995  61.4094639  26.4501643   5.2574044  62.0767832  25.7834959
   5.8577037  61.8808222  27.1590781  40.7000065  61.2108469   8.3190370
  41.3471270  61.8675947   8.5762304  40.3222466  61.5515232   7.5081944
  49.9369574  52.9600096  -0.0002230  50.3341246  53.7929678  -0.2545270
  50.3573084  52.7379894   0.8305858  54.1471672  56.1898804  33.9989567
  54.8848772  56.6011238  33.5485172  53.3721161  56.5790653  33.5939074
  44.3538952   0.6150937  30.2861285  44.8270798  -0.1900383  30.4960990
  43.6114740   0.3252587  29.7559977  66.7767382  76.8426991  19.1444027
  67.0529127  77.3894167  18.4088361  66.6007996  75.9867144  18.7538040
  27.8937507  64.4333029  23.3106065  28.2424068  63.5593319  23.4862447
  27.1159172  64.2776585  22.7748990  23.1855059  77.9529715   0.5447276
  22.7041745  78.4724474   1.1886966  22.6359701  77.1828651   0.3991957
  46.7214060   8.4489065  61.3314104  47.4333048   8.2485461  60.7237196
  46.2938786   7.6064801  61.4855909  69.5558786  60.1887083  19.2028117
  69.0038586  60.8111572  19.6761703  68.9434338  59.6848011  18.6668849
  64.1816139  64.5252895  57.9068327  64.0468550  65.1859379  58.5862541
  64.7776794  64.9407339  57.2836590  60.4759884  17.2371697  59.7933531
  59.5655537  17.1047032  59.5291758  60.9201765  17.5135803  58.9917803
  40.5338478  59.8829460  44.3550062  40.0239849  60.6910801  44.2985249
  41.4383793  60.1773882  44.4615793  12.1580982  61.2443733  41.1667395
  12.1000504  61.3435411  40.2164602  12.5147688  62.0780945  41.4732122
  27.4187088  16.5685439  43.4127426  27.2394156  17.0139050  42.5846481
  28.3176064  16.2516272  43.3245325  59.5301342  51.6906357  52.2370434
  60.0409603  52.1663904  51.5821075  58.9166212  52.3401976  52.5804234
  55.3153706  74.4855595  61.4164495  55.2523804  73.5344267  61.3292122
  54.8446798  74.6835089  62.2260761  50.3516865  68.8586569  42.4530363
  49.6846390  68.9354992  41.7708492  50.5201864  69.7605276  42.7259302
  14.7749519  35.6920052   7.1851027  14.8244977  36.5456676   7.6152629
  15.6680989  35.3503346   7.2273135  78.3175850  42.5084114  29.0087366
  77.9593229  43.3327818  29.3378067  77.5506020  42.0085430  28.7292671
  13.3299291  29.6439195  19.0175116  12.8373432  28.9938688  19.5185339
  14.0091300  29.1380739  18.5713768  60.3385210   6.1112523  55.7939482
  59.9587011   6.8857956  55.3791571  60.6634569   5.5838192  55.0642490
  43.8522339  74.7033596  25.3622317  43.0739260  74.9625206  25.8554888
  43.7662315  75.1566601  24.5235682  22.0567489  10.1381540  29.5027423
  21.4101434   9.4927818  29.7884512  22.2852325  10.6171381  30.2993608
  26.2218189   5.8710897  43.1549215  27.0381188   5.4568481  43.4347296
  26.1441827   6.6467524  43.7103987  51.2601089  75.7425356  45.8178902
  51.9078588  75.2714205  45.2937746  51.7381525  76.0151386  46.6010857
  49.7523785   0.3841316  35.1775455  49.6710300   0.0937576  36.0860038
  49.5463848  -0.3931551  34.6582913  56.3307142  15.1879179   4.0013677
  57.0082760  14.5444858   3.7936762  55.5491972  14.8663557   3.5518515
  59.2693853  73.6358452  22.3614979  59.4426012  73.8706303  23.2731462
  59.5035648  74.4192123  21.8637753  63.7415171  72.1092129  19.3200862
  63.2806778  72.4995375  20.0627232  63.3312702  72.5027275  18.5499716
  35.3621507  52.5686550   5.3954458  35.0175524  51.6768074   5.4411656
  34.6080256  53.1045008   5.1496857  71.9283628  28.5331798  47.3588037
  72.2522306  28.9551187  46.5629959  72.5542974  27.8291249  47.5283337
  67.1976423  19.3194640  17.6494586  66.3011742  18.9839768  17.6439476
  67.6979494  18.6741555  17.1499574  60.7172060  12.9192245  37.0592022
  60.5167532  12.5288570  37.9098868  59.9116707  12.8160548  36.5525436
  16.6696632  78.7493849  15.5594707  16.6666067  78.9959431  16.4843655
  16.2170303  77.9063225  15.5348408  14.9855554  53.1321001  52.9879761
  14.8570979  53.2420921  52.0458364  15.2218628  52.2103167  53.0914783
  56.6173553  53.2876110  37.6870537  55.9991312  53.0296898  37.0033073
  57.3115396  53.7520695  37.2194910  28.0922151  39.8696065  10.9837806
  28.6033082  39.6075106  11.7494965  27.6710820  40.6883097  11.2457001
  15.7447147  40.2972412  50.0610781  16.4361310  39.9782538  50.6410980
  16.1992884  40.5283213  49.2510176  14.9116123  57.0897770   3.4666350
  15.1072431  57.7283239   2.7809092  13.9573574  57.0151138   3.4592000
  75.5976963   8.5923487  51.9189978  76.3572073   8.0115527  51.8736362
  75.9092474   9.3566322  52.4038029  48.0779171   3.9140606  25.6756139
  48.6185169   3.2348174  25.2723646  48.5216999   4.7338378  25.4582357
  31.8486285   9.5273334  45.6679201  32.1671247  10.1701951  46.3015795
  32.2980165   8.7157190  45.9036446  13.2229936  66.8400192  25.6989431
  14.0650392  66.7824554  26.1504698  12.6571691  66.2269640  26.1682391
  14.8153186  25.7625341   6.3290399  14.0194094  25.6895709   5.8023173
  15.1551175  24.8688412   6.3746381  55.1810837   3.6404926  65.4991245
  55.3176022   3.9505118  64.6038675  54.3274355   3.9949983  65.7477951
   9.1010517  69.1815281  14.3586123   9.8962045  69.2133999  14.8905408
   9.0326452  68.2669163  14.0846753  56.9277906  61.3013744  26.0343409
  56.2426424  61.8356228  25.6326175  57.2743750  60.7749939  25.3138995
  42.8084803  64.2656183  20.2150464  43.0897570  64.7377634  20.9987521
  43.1016636  64.8136854  19.4871044  64.3669510   6.9969159  44.8921776
  64.8032522   7.8262413  45.0873470  64.9014044   6.3357806  45.3320503
  28.4514928  11.7062318  14.0527093  28.6437488  10.7884252  13.8606179
  27.6285958  11.6814458  14.5410311  49.2649508  77.7506638  32.9165339
  49.9274254  78.1812286  33.4568810  49.7677279  77.2186184  32.2997856
  20.4842114  73.0139923  36.6760254  20.7219911  72.9147291  35.7541585
  20.7383561  73.9107943  36.8937039  12.1546292  40.9480762  51.1857653
  11.6177773  40.3684139  51.7261457  12.8931677  41.1832190  51.7474604
  62.9087448  31.4272904  31.1403084  62.0502472  31.4224482  30.7170033
  63.4256697  30.7952428  30.6407690  54.2869377  74.0920734  37.8245926
  55.1471758  74.4173717  38.0899358  54.4561005  73.2100439  37.4934769
  37.9896975  65.2014017  32.6974130  38.3077073  64.8983908  31.8469501
  38.7738609  65.2452326  33.2445860  79.8760319  53.3270550  19.8767877
  79.5746708  53.7627459  19.0795505  79.4472313  53.8042021  20.5872059
  21.3041663  57.9329777  38.9753675  21.4519429  57.1717215  39.5365119
  20.3962779  58.1836796  39.1460085  32.0828438  72.5062037  30.9176254
  32.3179936  72.2228527  31.8011689  32.2634935  71.7450953  30.3659821
  63.5410976  10.7481349  28.3285928  63.1812286  11.0985374  29.1434193
  63.7779236  11.5228212  27.8186846  41.3908672  61.6856623  28.9725780
  42.0752716  62.2380924  29.3502545  41.6802549  61.5263271  28.0741930
  19.1974092  61.9716978  35.0132155  18.3301544  62.2456360  35.3116417
  19.2652369  62.3185921  34.1236687  26.1827064   3.4620842  27.6921201
  26.4519334   3.7472102  26.8189335  27.0043731   3.3329266  28.1658435
   8.8364542  18.9165640  66.2250090   9.6607298  18.5731554  66.5697861
   8.4080625  18.1579065  65.8285856  31.3030243  77.6273346  11.9549417
  32.1729469  78.0263710  11.9703090  31.4658999  76.6927958  12.0827425
  41.9948435  62.6969814  52.4311543  41.5466833  62.6920080  51.5853643
  42.5958776  61.9532490  52.3881149  65.1259708  73.9574146  39.8975515
  65.2296782  73.8394642  40.8417797  64.2015409  73.7714148  39.7330451
  79.2325258  70.8085108  33.9442658  79.8648262  70.2069235  33.5511756
  78.6032915  70.2390003  34.3869328  14.9661613  10.8781815  49.1798401
  15.1233661  11.6764688  49.6840763  14.0439200  10.6743979  49.3353176
  58.1286716  24.3473244  22.4802423  57.3129988  24.7882366  22.7179575
  58.6517811  24.3629861  23.2817054  39.1903162  50.6051540  39.8418713
  39.5430279  51.4949894  39.8468375  38.2436609  50.7231855  39.7634840
  16.1001194  57.5309801  27.8387070  15.2088332  57.2816849  28.0830288
  16.3417864  56.9116688  27.1500278  72.3254776  12.1328092  25.8278704
  71.9601727  11.6526020  25.0847793  73.2541656  11.9009328  25.8296919
  73.2949543  32.7549648  18.0038393  72.8252459  31.9217658  17.9666138
  73.9790154  32.6152349  18.6586440  34.1596651  53.8510084  44.5329905
  33.2523680  54.0897274  44.7228765  34.2527175  52.9652691  44.8837662
  42.2883081  72.8731632  28.7188745  42.5042009  73.7169504  29.1159272
  43.1123161  72.5700378  28.3376098  47.2742653  67.2485733  30.5822587
  46.9803047  66.3961172  30.2611017  48.1710672  67.3304939  30.2578115
  61.3573790   8.3791471  50.6445837  60.6356096   7.7597290  50.7522917
  61.2100554   8.7712723  49.7839069  69.1126442  56.1897182  65.7139158
  69.1155767  56.1732721  64.7568607  69.8737335  56.7215109  65.9466600
  60.0451803  48.8874912  66.8100977  59.9694443  48.0576229  67.2810698
  60.7709599  49.3408918  67.2389460  52.0231342   9.1747183  16.3463426
  51.4668655   8.6829561  15.7422173  51.5733576  10.0122213  16.4582455
  74.6878815   7.7982992  48.7259102  75.6005478   7.6852608  48.9914131
  74.1951847   7.7752036  49.5462465  57.3419619  25.0547290  52.7148247
  57.5351429  24.8150253  53.6211681  57.3149586  26.0115290  52.7206802
   2.6855654  78.9187860  25.6397653   2.4821419  79.7985888  25.9572411
   3.4226507  79.0442896  25.0421143  58.7408400  14.1771364  35.1543522
  57.9637051  14.5721102  34.7590208  58.4512901  13.8956058  36.0221863
  62.1961451   3.1778589  18.2318282  62.3069191   2.3965630  17.6900375
  63.0573416   3.3212554  18.6242723  71.5818119   2.0359178  42.3699188
  71.5449190   1.1784828  42.7938032  72.3611546   2.4519345  42.7384138
  10.5100358  69.6198606  56.7333508   9.7223318  69.3259478  56.2757778
  10.7701552  68.8699341  57.2683001  31.1761618   9.1968286  30.2199745
  32.0122766   9.2626280  30.6812930  30.5670238   8.8570279  30.8755040
  72.7745104  21.3811183   8.2552165  72.0875359  20.9039235   8.7205976
  73.4846067  20.7463646   8.1599331  18.4879923  55.4972172  52.2561836
  17.6153338  55.1896286  52.0110607  19.0212929  55.3523922  51.4746189
  36.8317056   5.0254530   1.7910531  36.4252782   4.3157813   1.2936464
  36.4482427   5.8233267   1.4269298  13.7683141  10.5807781   4.4431001
  14.3159938  11.3652778   4.4720647  12.8717935  10.9126329   4.4916278
  82.7313709  20.3656983  38.5879278  81.8334389  20.4643989  38.2713914
  83.1318951  19.7425461  37.9817152  22.0613670   2.6790741  31.2738967
  21.7861700   2.7057415  30.3574991  21.6665721   3.4582829  31.6653061
  54.3540001  61.6109753  44.3657398  54.9164057  62.3339558  44.6436405
  53.8867617  61.9507027  43.6025190  41.0972643   0.5961512  31.1965084
  41.0367012   1.4405397  31.6432428  40.4417992   0.0488235  31.6289735
  48.0015898  18.6222935   1.7384481  48.4507465  18.1902599   1.0119242
  47.6729488  17.9034245   2.2783144  66.9235516  64.2367649  46.0715961
  67.8214169  64.5492840  45.9602451  66.7221832  63.7889290  45.2499342
  21.5573716  11.4445293  16.4169061  21.8325853  12.1915591  16.9483542
  22.0498896  10.7041550  16.7711711  23.7065363  49.2357206  37.2767711
  24.0916443  48.6186028  36.6546059  22.9938269  48.7472153  37.6886463
  41.7465448  48.6202097  31.2185121  42.5988102  48.2264709  31.4051604
  41.4671135  48.9938402  32.0543075  59.8592663   2.3648176   5.8401334
  59.3135023   3.1481174   5.9094924  59.2468262   1.6363467   5.9424937
  24.5814610   1.7489831  10.9567356  23.9956546   1.0506542  10.6645072
  24.7505426   1.5500745  11.8776476  76.2922859   9.0870661  28.5366440
  76.6266251   9.6659130  29.2217636  75.9204769   9.6793491  27.8830457
  56.9160318  21.5462351  23.7380338  57.6831007  22.0612431  23.9882493
  56.5277576  21.2752151  24.5699143   7.9529107  32.1797895  25.9004545
   8.2032043  31.8525577  26.7644572   7.8538257  33.1241250  26.0214686
  52.8990459  54.8311710  38.9215255  53.5412121  54.1975880  38.6014938
  53.1290388  54.9614334  39.8415089  55.5833626  67.6861191  58.4851742
  54.6382189  67.6354790  58.3424377  55.9236383  68.0992556  57.6915979
   9.8231727   5.4997420  31.2518787  10.3950715   5.0010067  30.6684184
   9.3528658   4.8336273  31.7532110  25.5899024  12.6301599  67.5279903
  24.8603797  12.1733212  67.1092701  25.4525042  13.5518575  67.3092985
  56.6897535  20.2815843  51.1121893  56.7960691  19.4017529  50.7504940
  56.1632204  20.7460022  50.4615688  57.3330593  76.5517712  24.3008876
  57.6514006  77.4533081  24.3469882  56.9362116  76.4820004  23.4326267
  30.3047180  54.6903658  21.5615487  29.6800828  54.1137886  21.1215234
  30.8639479  55.0192595  20.8577561  57.3328972  15.2151191  40.0273895
  57.2870779  15.6727004  40.8668852  56.6116047  14.5865846  40.0575256
  28.6820292  63.3455849  33.6274695  28.2786345  62.4809599  33.5504651
  27.9764318  63.9121485  33.9395070  46.5264988  60.7803345  37.6060748
  46.9471216  60.0869799  38.1145716  45.9278345  61.2006140  38.2234883
  52.8152275  46.1740780   6.8451768  52.7806187  45.9062052   7.7634788
  52.3335457  45.4913282   6.3782048   9.3106592  59.5995951  48.6717176
   9.0331888  59.4205379  49.5701504   8.5922503  59.2735338  48.1296825
   5.8782047  78.9662266  11.1868954   6.2203920  79.0544558  12.0764768
   6.2090701  78.1199837  10.8858383  35.0260854  62.0273066  19.4072282
  34.3316293  62.5818300  19.0516150  35.8219433  62.3302364  18.9701080
  26.3576245  69.2310858  30.5953145  26.2475348  69.4764948  31.5139461
  26.9788694  69.8717070  30.2490592  17.6341927  77.9350376   4.8706239
  17.9720569  77.0460987   4.7616833  16.6826999  77.8349161   4.8411286
  37.9974961  79.5180750  46.0601664  38.2362485  78.5944033  46.1380434
  37.3149252  79.5332813  45.3892708  55.7756281  64.7377110  26.2010860
  55.3196144  64.0213203  25.7594156  55.6639338  65.4884243  25.6178284
  40.3363085  69.0033340  40.3355265  40.0924683  69.5701551  41.0672998
  39.6579957  69.1563082  39.6777129  39.4613862  64.4192934  11.2790155
  39.5436358  64.2420244  12.2160554  39.0818000  65.2968407  11.2336826
  16.1791849  13.3207774  62.0178938  15.2233136  13.3584285  62.0514488
  16.3833487  13.2455778  61.0857487   5.6990945  75.8942938  25.6237674
   5.2686310  75.7793570  26.4709520   6.6081351  76.0989761  25.8428144
  18.6502826  61.9868708  65.4861832  18.3519351  61.5808487  66.3000441
  18.2610083  61.4515400  64.7947216  66.9486523  58.1754732  55.4352474
  67.3465681  57.4308395  54.9842310  67.6824856  58.7594080  55.6269217
  69.3131018  43.6617565   8.5326117  69.8776674  43.3325624   7.8332329
  69.4852734  44.6030474   8.5563385  43.1769753  77.3008060  28.0918646
  42.5583172  78.0111313  27.9217720  44.0389013  77.7029848  27.9843020
  59.9391985  76.9379520  38.7510681  60.2609158  76.9044447  39.6519613
  59.9585199  77.8676939  38.5242677  39.0028381  71.4372349  41.2869072
  39.1970921  71.5266895  42.2199106  39.5036864  72.1381807  40.8696985
  10.3594637  12.2698843  44.0756226  11.0200071  12.9599571  44.0146732
   9.5944971  12.6302731  43.6270952  12.5438881  73.2215786  19.4093597
  12.5486839  73.4844732  20.3297377  11.6190410  73.0843401  19.2042840
  56.5749359  58.9265156   9.4110733  56.2566710  58.1857395   9.9270064
  56.4588213  58.6523056   8.5013711   3.1990069  23.6668730  60.6973886
   2.5570440  24.1713142  61.1970425   2.7694204  22.8271627  60.5343676
  27.7949715  66.2451220  36.1934733  27.2720957  65.9801340  36.9501853
  27.4568462  65.7154989  35.4713941  74.2678595   8.2875317   0.5674841
  73.4744072   8.7350911   0.2736216  74.5205069   8.7484443   1.3674599
  46.1532450  76.6490841   8.8714761  46.5539360  75.9222651   8.3946031
  45.4549217  76.9581747   8.2943761  18.2366061  70.6475496  51.6299963
  18.8270402  70.2081680  52.2420120  18.2779646  71.5710115  51.8784714
  10.7789207  68.1269646  34.4449949  10.2873671  67.3477030  34.7045350
  10.7103372  68.1465101  33.4904552  41.6803360   7.1352226  58.8962126
  41.9433737   7.2712648  57.9859734  42.4613953   7.3504877  59.4059610
  10.0816011  60.9633875  67.4867678  10.7395315  60.2975321  67.6867628
   9.2807907  60.6405067  67.8999043  51.9628859  79.2888117  13.4017301
  51.5104485  78.5030937  13.0948377  51.7335224  79.3504906  14.3289948
  64.3046856  55.6881952  29.9051213  64.0139866  54.7763395  29.9208570
  65.2539825  55.6389189  30.0175357  37.4854755  62.5499678  10.4760838
  38.2752037  63.0467224  10.6900859  37.1013021  62.3332310  11.3255942
  33.2717872  53.3046865  20.5930853  32.9941869  52.9130983  21.4212346
  33.8554120  52.6534081  20.2039266  14.5743716  49.5278358  30.5835056
  13.7579513  49.6449518  30.0977349  14.4135785  48.7675619  31.1423993
  29.0102100  55.9885406  45.3202105  28.9135408  56.5525007  44.5528555
  29.7785425  55.4512453  45.1273060  32.7876568  47.9756737  25.7353783
  32.3213816  47.3498440  25.1811624  33.2639885  48.5325003  25.1195192
  56.2376261  20.2066088  33.3395743  56.6211319  19.5619678  32.7449369
  56.6002941  19.9865079  34.1976285   5.5646873  33.3450913  67.9051256
   5.2628702  34.1382003  67.4622822   4.8335034  32.7326584  67.8243256
  73.8338995  38.7065864  48.6325312  73.6083746  37.9566908  48.0820560
  74.7121572  38.9579892  48.3467102  43.0594540  13.0523837  31.2276387
  43.8881683  12.6981103  31.5500641  42.7826595  13.6689425  31.9054818
  44.4132757  63.9560938  53.2705641  43.4777546  63.7567425  53.3065128
  44.4669962  64.7611237  52.7555180  35.5588031  42.9844284  14.7214937
  35.7416010  43.8734436  14.4174063  35.4882431  43.0663729  15.6725657
  65.2096367  40.4754543   2.0596002  65.5518436  40.8119535   1.2314106
  64.5072317  39.8777986   1.8033591  27.2961426  72.7732944  37.8823423
  27.6341796  72.0867205  38.4573030  27.2893977  73.5602236  38.4272575
  48.6212349  59.5165253  35.8093858  49.1539001  60.0364590  35.2075791
  49.0612602  59.6035385  36.6549850  81.5008640  68.0588865  45.4984474
  80.7531738  68.1207085  44.9040031  81.2052059  68.4891701  46.3007450
  63.4834385  54.7028351  14.5167077  64.2852592  54.7441626  13.9955497
  62.9465914  55.4238558  14.1878319  13.7825012  77.8805923  56.0835266
  13.9148355  78.8279009  56.1199379  12.8715670  77.7556038  56.3496304
  59.8615122   2.2408114  11.8244863  59.7652912   3.0738157  12.2860897
  58.9764166   1.8771900  11.7995203  79.3663979  26.3841319  53.3120632
  79.4103146  25.5637383  52.8208828  78.7502241  26.9258189  52.8189707
  75.1865816   2.9335159  67.8765965  75.7582283   2.6793119  67.1521425
  74.7463036   3.7253669  67.5677967   6.9662786  38.2377768  55.0662470
   7.2966659  38.4095311  55.9480524   6.6140902  39.0786338  54.7744322
  22.6050663  57.7761602  17.9599798  22.8187633  57.5523806  18.8657880
  21.6926265  57.5063992  17.8554976   1.2203220  78.8836241  30.6862712
   0.7156134  78.1351185  31.0044575   0.6161753  79.3526077  30.1106906
  75.9291410  63.8383436  44.0996122  75.5978298  64.2981243  43.3282089
  76.2879324  63.0204773  43.7552404  67.5228977  11.8667817  42.6989126
  67.8335047  12.4521136  42.0081568  66.7330074  11.4660144  42.3360157
  75.4709625  68.5764980  37.6668668  75.6014872  67.7736378  37.1622801
  74.5654678  68.5227537  37.9725146  72.7150583  32.2198176   1.5285547
  71.9701052  32.1021962   2.1179962  72.5407887  31.6234922   0.8003670
  75.4168081   3.1720984  22.5948882  75.2125072   3.9255965  23.1487226
  74.8007202   2.4950874  22.8747511  50.8784628  73.2625818  63.8258648
  51.5136766  73.6476898  63.2221842  50.5845594  73.9969635  64.3648720
  50.7808495  73.1950283   4.2478704  51.6294622  73.0063725   3.8472480
  50.1615620  72.6461124   3.7668204   2.9592046  23.3365035  41.5520239
   3.6173066  23.5468531  40.8895397   2.2767863  23.9964914  41.4297390
  14.1800463  75.5993938  40.5598974  14.1330838  76.4990473  40.8833981
  14.2591023  75.6901503  39.6102953  50.8029175  32.6858473  65.3469467
  51.3277483  32.9327726  66.1084032  50.7912779  31.7288733  65.3642178
  78.1935072  61.3149023  17.4489629  77.4904442  60.7546997  17.1201587
  77.7506304  61.9489431  18.0129504  42.9413700  74.5232630  56.0037470
  43.3065271  74.7962809  56.8453836  43.1792831  73.5992098  55.9278774
   4.7827068  34.0522432  15.9749484   4.9917775  34.4857025  15.1475215
   4.7925216  33.1183410  15.7652676  63.8266134  63.1116199  37.3456907
  63.4743690  62.4173641  37.9026151  64.5725536  62.7076578  36.9022632
  81.1628819  10.6420362  26.6200471  81.1948872  10.1183259  27.4206305
  81.6809940  10.1444256  25.9874487  64.9642801   2.0510942  25.7766891
  64.4124126   1.5330404  26.3626027  64.4070005   2.2309157  25.0195003
  15.0690329   4.8006049  39.7281647  14.3403769   5.2377743  39.2875123
  15.6985855   5.5004424  39.9017262  26.2263346   8.6263204  36.5369272
  26.2879467   8.8082981  37.4746490  26.3590407   7.6809329  36.4671874
   4.9215135  14.8151958  38.8851070   4.1917214  14.8009694  39.5043278
   4.5057347  14.7741842  38.0239010  74.2093563  16.0992932  35.2103662
  74.4969082  16.2129879  36.1162472  74.8140383  16.6360021  34.6979809
  52.0032501  78.7379122  37.0350409  52.8543282  79.1658354  36.9413328
  52.1761036  77.9809713  37.5948620  49.4126177  46.2385035  62.9197693
  49.6130991  46.8395042  62.2022438  49.0106916  46.7912436  63.5899639
  15.7168639  60.0604725  66.1087465  15.9284282  60.8158731  66.6572380
  15.8456016  59.3047428  66.6819239  12.0986474  12.7355838  15.1341867
  12.1157753  12.5211513  14.2014718  12.1940958  13.6875808  15.1628745
  66.5157032  11.9680190  46.4464283  66.8816090  11.4078748  45.7618952
  66.0931683  12.6829612  45.9704542  73.6755800  20.0770259  38.6770248
  73.8782930  19.7273088  39.5446873  73.6215687  19.3047130  38.1141305
  57.2417116  22.9055238  33.6379313  57.2453451  23.0101752  34.5893860
  56.8774652  22.0320439  33.4944391   2.6103610   7.0241243  52.3982859
   2.6030082   7.1911699  53.3407688   1.8694125   7.5269908  52.0601273
  41.7073298  74.8830080  41.2168264  40.8767939  74.7349024  40.7645988
  41.9117832  75.8025932  41.0471344  82.3824692  34.2909431  16.5371168
  81.4885044  34.2867470  16.8792248  82.7690983  33.4799457  16.8673241
  44.6842337   2.8794846  10.1717830  44.2005730   2.0586970  10.0789893
  44.7650480   3.2122356   9.2779273  51.1646366  51.3142729  36.9009352
  51.4117146  50.4370260  37.1935558  51.9379330  51.8511724  37.0740891
  15.4003060  31.3530040  54.4653177  14.4925606  31.0498786  54.4466925
  15.8152270  30.9123516  53.7237644  12.4481153  45.4205275   5.2540958
  11.5455413  45.6647635   5.0492984  12.3694324  44.6022320   5.7444340
  12.6618338   3.3140871  10.4722130  12.3030937   4.1319901  10.1278698
  12.6010680   3.4073842  11.4229155  14.1003656   4.8440844   7.8601968
  13.6670709   4.8640531   8.7134778  14.8809421   5.3860289   7.9752088
  57.2952843   2.6307544  17.5171113  57.8178930   2.2226688  16.8267655
  57.1294928   3.5182261  17.1990860  14.0926481  73.2684374  68.3753093
  13.4790969  73.6829662  68.9819009  13.5923935  72.5551724  67.9787907
   9.1002160  27.8811669  26.5133834   8.2209027  27.9413009  26.1399889
   8.9825606  27.3874044  27.3249197  45.1462221  76.8094397  36.4103055
  44.8894501  77.7315569  36.4089394  45.2020025  76.5749788  35.4839420
  48.9155531  14.6416235  36.4891148  49.3891096  14.1389346  35.8263326
  48.6020136  15.4167223  36.0231233  80.2907372  61.2795496   2.7819294
  79.5963573  61.7139721   3.2772511  80.8024979  61.9966316   2.4075909
  80.5604076  21.6354704  35.3899527  80.0246525  21.8752241  34.6338344
  81.0967255  22.4101257  35.5587745  67.7939129  16.6957617  37.8172112
  68.2184124  17.1906328  38.5180187  66.9708014  17.1589112  37.6616073
  24.3767142  52.0675325  37.5007057  24.2760158  52.3765182  38.4010506
  23.9728308  51.1997175  37.4987149  14.7278416   6.8788856  50.4352617
  14.8738635   7.3720944  51.2425137  13.7874436   6.9560343  50.2742290
  81.8088245  24.6446490  50.1035881  82.3015404  24.3649793  49.3320656
  81.6303921  23.8341713  50.5805779  83.7618923  79.0219212  21.4958143
  83.4703636  79.7145176  20.9028935  82.9600143  78.5557127  21.7321706
   5.3416282  29.1544509  28.2041049   6.0759318  29.4163799  28.7594628
   5.4092383  29.7202897  27.4350214  53.6408329  21.5839982  51.9838190
  53.4934568  22.1753454  52.7219391  53.5992384  22.1489859  51.2122726
  59.2123795  23.0367827  24.9361300  59.5741844  23.9076757  25.1000643
  59.9789238  22.4670410  24.8725986  16.3737297  34.2469525  22.4837303
  16.8696856  33.4570932  22.2683668  16.0259426  34.0799809  23.3597422
  10.7279491  36.2866378  35.5285287   9.8390222  36.1293769  35.8468199
  11.1823666  36.6817784  36.2725711  28.7051606  61.7221308  24.1149926
  29.1389275  60.9015989  23.8808966  27.9230642  61.4509630  24.5956421
  16.8150115  32.8895593  56.0664940  16.1499250  33.1282783  56.7121744
  16.3393867  32.3814201  55.4093695   5.0059122  18.2962596  39.5491505
   4.2786533  17.7729332  39.2123175   5.2093554  18.9073706  38.8410664
  34.0301943  18.8529134  16.6579020  33.0831242  18.7263250  16.7150366
  34.1370130  19.5978248  16.0663533  20.5619574  28.5071445  15.4549491
  20.5856752  28.3996201  14.5041037  20.7568336  29.4335961  15.5961597
  72.0621252  77.1898699  10.7601976  72.1588230  78.1337690  10.8864510
  71.1312723  77.0672703  10.5738866  42.2727394   7.0312738  40.1325274
  42.8527403   7.3988152  39.4656372  42.5404978   7.4599230  40.9454203
  67.5546837  17.1343803  51.9168329  66.9975328  17.8902352  51.7311049
  68.0415297  16.9905305  51.1053419  79.9551630  36.5260053  40.1536655
  79.9825287  37.3870897  39.7365141  79.0390921  36.4113212  40.4064322
  54.5142031  30.7121921  44.7119856  54.6571970  30.4129410  45.6098938
  54.0066671  31.5182781  44.8061371  43.5662365  79.0485764  54.5728207
  43.0780983  78.2541990  54.3562174  43.1464911  79.3784761  55.3673077
  25.8179283  28.0787277  22.0533729  25.0722742  27.8118420  21.5157819
  25.4520369  28.7080479  22.6749134  24.8804760  23.4867406  13.9594376
  25.6132603  24.0969372  13.8762534  24.1060495  24.0473866  14.0060437
   8.2676345  29.8820543  15.0099504   9.2200428  29.8596931  15.1029587
   8.1218159  30.0567555  14.0801930  19.3323004  40.7885695  54.4712400
  19.4339836  41.3484240  55.2409554  20.2022004  40.4149008  54.3302536
  11.6964138  48.5422277  67.6116848  10.9909964  48.0729723  67.1662426
  12.0163012  49.1673660  66.9612169  24.7129822  22.4558115   2.0207635
  24.4081712  23.2443714   2.4696492  23.9138317  22.0413280   1.6955051
  19.5246542  27.5709820  17.7886915  19.2358637  28.2636619  18.3828533
  19.8194921  28.0350399  17.0051396  78.4163380  29.5343614  36.1728001
  79.0377998  30.0781178  35.6887054  78.3437586  28.7334728  35.6536245
   4.7528186  46.9350910  20.3113532   4.4797251  46.1601210  19.8203623
   5.2773547  46.5887213  21.0332417  31.0217285  10.2436566  21.7108941
  31.5456080   9.4465691  21.6306877  31.5919375  10.9390414  21.3829708
  27.7759194  32.5527859  23.0549693  28.2976294  32.7655244  23.8287878
  28.1008339  31.6970921  22.7748847  67.3024702  54.5319128  57.8044462
  67.2244692  55.4629230  58.0126810  67.8021622  54.5100689  56.9883204
  27.8146291  43.7343884   0.2472210  27.5337887  42.9541540  -0.2308919
  27.0039487  44.1087103   0.5920586  76.7727280  62.8418446  18.8599741
  75.9074831  62.4344444  18.9001858  76.8155193  63.3909750  19.6428263
  12.5156343  11.7130756  52.5458288  11.6783762  11.7420530  53.0088520
  12.4159467  11.0000420  51.9150543  43.9843893  45.7860184   5.9548998
  44.4369698  46.5567160   6.2975746  44.4610691  45.0435734   6.3260990
   5.0350440  22.3806167   5.1795018   5.3193802  23.0125475   5.8398420
   4.1958287  22.7202296   4.8686746  30.4475617   9.7146702  27.8717852
  29.5186257   9.9334860  27.9454589  30.6851721   9.3839872  28.7380552
  19.5095170  28.6509705  27.5931001  19.7741759  27.7628708  27.3533821
  20.3331995  29.1300488  27.6839852  32.5575256  74.3392324  25.4076529
  32.1971655  74.6968794  24.5961976  33.4995437  74.2834759  25.2472711
  70.2799511  65.1506329  61.1708927  69.8371506  64.6282768  60.5020857
  69.6366405  65.8134842  61.4219046  12.0213902  19.4910836   5.2133751
  11.1623752  19.1116691   5.3987646  12.3598301  18.9724541   4.4835025
   1.2559749  11.9906867  40.3528595   1.3426626  11.1365199  40.7760811
   0.3124254  12.1492314  40.3244066  40.4096270  38.3847356   9.2511749
  39.9691272  37.6953053   9.7480464  39.8572397  38.5146523   8.4803170
  28.5243058  28.0586433  23.0062461  28.6089611  28.7834740  22.3868227
  27.5918317  27.8427219  22.9962587   8.1748569  25.5051923  34.4336629
   7.6669580  24.8023748  34.8390269   8.1241822  25.3264332  33.4946704
  10.3726852  12.8249288  11.1851215  11.2624645  13.0766237  10.9377885
  10.2700269  11.9379747  10.8401477   7.4399334  52.2020721   6.6087139
   6.4886516  52.1199799   6.6762060   7.5762933  53.0160236   6.1238223
  26.1073732  76.8538094  21.7973876  25.8007336  76.7322922  20.8988118
  25.7807732  76.0867596  22.2677088  31.3563609  51.4840889   4.9678719
  30.9977531  51.9268751   4.1987360  31.4803410  50.5776691   4.6863228
   8.7425989  19.1152096  45.0133610   7.8097439  18.9288247  45.1195383
   8.7902045  19.6590924  44.2271328  48.2276154  14.7257292  11.6036189
  48.8908958  15.4140794  11.5539908  47.7161884  14.8276031  10.8009398
  45.1553059   6.3728136   8.5808796  45.1610184   6.6858488   7.6763314
  44.3063545   5.9418523   8.6798292   3.2289308  27.3565173  23.0198908
   3.2592425  28.0736327  23.6531806   4.1124579  26.9884729  23.0323482
  21.2971735  47.4062061  27.4929857  21.2782097  47.4676037  26.5379453
  20.9381413  48.2409668  27.7938318  19.9856412   4.8557085  61.9163275
  19.5446265   4.3146640  61.2613392  20.8842897   4.5264980  61.9332170
  67.8567266  79.3628883  60.2501726  68.0705547  79.0810919  61.1396122
  67.1109247  78.8179541  59.9990606  54.8973083  63.4926558   7.1162301
  54.4247055  62.8234816   7.6112902  54.3256474  63.6901236   6.3743162
  81.6954803  29.1101456  19.3261707  81.1890984  28.8328934  20.0896740
  82.5977993  28.8704085  19.5372939  69.6373272  20.5121589  16.8630815
  68.6974144  20.6427956  16.9884944  69.7309208  19.5708096  16.7170227
  11.3098907  41.7026234  39.6961737  11.3766360  42.5169992  39.1976023
  11.5713274  41.9437408  40.5848503  77.3671436  10.4508674  50.5562830
  77.3721361  10.1941657  51.4784050  76.4734554  10.7545078  50.3970289
  35.5604553  66.9929075  60.9550905  35.2153349  66.6584921  60.1272678
  35.1422215  67.8473330  61.0612392  66.6634083  68.7109232  41.1756420
  66.5014076  68.1822157  40.3943300  66.9733572  69.5506763  40.8365536
  72.5145578  53.3233976  52.4176788  73.1178379  53.5533953  51.7110062
  72.8811407  52.5236082  52.7947521  17.2411656  25.7082653  20.0051045
  17.2738922  25.6819153  20.9613824  16.6393661  25.0031757  19.7665286
  20.2450490  16.3090646  62.9660892  21.0923505  15.9098911  63.1634998
  19.7042990  15.5824602  62.6564646  67.0083332  65.2576494  60.6234932
  66.9904709  64.4276333  61.0999250  66.9273138  65.9261084  61.3038111
  73.5844994  22.1635461  12.2596514  73.7797689  22.8750086  12.8695059
  73.3273268  22.6055050  11.4504743  64.3786287  54.5923948  66.4278507
  65.1680708  55.1257801  66.5201044  64.6787500  53.7932730  65.9947634
   4.2958936  30.2596092  32.6795769   5.1774788  30.0195217  32.9648781
   3.7146261  29.7397637  33.2346630  62.2384357  32.1575570  40.6425762
  62.9402018  32.6483321  41.0702372  62.4293423  32.2321868  39.7075796
  35.5341744  47.2646809  29.0489030  36.1860251  47.7837992  29.5198965
  34.9212980  47.9108810  28.6981320   3.1838214  50.8315182  37.8859091
   3.5742831  51.3431311  37.1773720   2.2788352  50.6895781  37.6082683
  33.9773393  14.4652939  30.0324106  33.9609075  14.9047422  29.1822052
  34.2679572  13.5746562  29.8361015  21.5390944   9.8883349  25.4180384
  22.4210119   9.5713568  25.6129169  21.6447783  10.4210424  24.6298218
  15.9244621  60.1439524  19.2078006  15.8284545  59.8691559  18.2959330
  15.4856730  59.4587040  19.7119188  21.2250710  24.6597052  22.2404099
  22.0653939  24.4467735  21.8345141  20.7219434  25.0801563  21.5430474
  16.7722940  57.5570250  15.3866398  17.1090674  56.9033480  15.9994340
  16.0446692  57.1189928  14.9451399  57.2599220  44.2828894   4.5706889
  56.4691782  44.7526932   4.8357260  57.5307751  43.8076496   5.3561920
  18.3458400  14.2635691  13.3035362  18.7485826  14.1755080  14.1674078
  18.4716868  15.1841080  13.0733144   4.5654610  15.6215167   1.7300333
   4.4182977  14.9399567   1.0742503   5.5155289  15.6423330   1.8447939
  26.3929510   8.3738571  44.5982075  26.7755556   8.3022177  45.4726887
  27.0854568   8.7642354  44.0650320  27.8859591  16.4032221  20.0823045
  28.0825949  15.4698062  20.0029278  27.1612668  16.5479076  19.4739318
  38.6721373  35.7924390   3.7185821  38.3577752  35.2739620   4.4592512
  37.8785849  36.1602473   3.3297119  33.7938738   5.7761401  23.0697489
  33.3842301   6.4383829  23.6263967  34.6418405   5.6087601  23.4810519
  15.6949544  13.1820631  35.6821179  15.4868698  13.6844337  36.4698720
  15.3096282  12.3200142  35.8390546  26.1451936  47.9739809  27.4136734
  25.6190753  47.1747589  27.3876429  25.6532931  48.5661221  27.9825616
  16.8730605  24.1444874  32.2926807  17.6595712  24.3488312  31.7868376
  16.1741281  24.6311355  31.8557596  46.1784935  60.4546309  22.1767640
  46.3708353  61.3288450  21.8376708  45.6452942  60.6119442  22.9559827
   6.2158632  22.6889396  15.9687936   5.2748060  22.7850986  16.1150706
   6.5313560  22.2185183  16.7404151  62.3254204  69.1135025  48.2618141
  61.4360762  69.0748072  48.6136770  62.8548384  69.4489813  48.9852762
  75.3206062  30.6394315  15.4172432  74.8597383  30.8356309  14.6015596
  74.7582769  31.0000777  16.1027753  72.9884958  59.1691399  31.4381480
  73.4334803  60.0103903  31.3355827  72.0756102  59.3524313  31.2161708
  62.3015690  67.8449011  21.1615205  61.4821053  68.2544518  20.8840632
  62.8068876  67.7492857  20.3542161  29.1286039  19.7440445   5.4224235
  29.9076366  19.4164693   5.8719075  29.0979028  20.6747675   5.6438768
  63.4321022  26.3275814   8.5657340  63.0407000  27.1909451   8.4329128
  64.2958975  26.3909411   8.1582117   5.6169719   1.3886219  14.4938171
   5.0717688   1.4263082  15.2796698   6.4950508   1.6149074  14.8004174
  49.1017485  52.6614046  22.2175455  48.9331007  53.4690714  22.7027893
  49.5984840  52.1152353  22.8267980  44.0587091  67.9358149  15.4732311
  44.0664864  67.9564857  14.5162868  44.7994566  67.3763514  15.7067430
  40.2023411  47.3262691  29.1050267  40.6946373  47.6497412  29.8595095
  39.9092650  46.4533997  29.3666196  22.8029084  19.5918310  32.4200368
  22.1431208  19.1323555  32.9394555  23.2230306  20.1881504  33.0398202
  20.7571816  30.5653811   4.9341908  20.6831217  31.0110784   4.0903306
  21.3812661  29.8568583   4.7768819  70.7977486  22.2920823  14.9748874
  70.4540300  21.9609404  14.1451681  70.5603313  21.6227746  15.6166744
   7.8774905  42.9533148  39.2517710   7.3672181  42.1458340  39.1898584
   8.1050426  43.0223465  40.1789665  15.6107175  44.8636913  24.8302150
  16.1943400  44.3555927  24.2667842  15.9226215  45.7648611  24.7475243
  14.4807482  37.8771400  62.5934124  14.4924712  38.4244490  63.3786154
  14.6432400  36.9909620  62.9166985  27.5136256  51.2317419  15.0855327
  26.6191769  51.5266371  14.9145615  27.5147438  50.9954929  16.0131192
  74.4442129  41.8371201  10.5656636  74.7611332  41.5474224  11.4211547
  74.7820663  41.1850834   9.9517137  67.7265310  71.7340612  63.8267803
  67.9924393  71.4575195  64.7037363  67.1136379  72.4535751  63.9780903
  44.5800447  17.5789225  12.2613084  44.1892672  17.7213895  13.1234157
  45.2303600  16.8911612  12.4038076  72.5640154  43.4405899  64.4675922
  72.7657795  44.2243147  64.9787617  72.2190380  43.7764597  63.6402988
   3.5594720  65.8458662  31.0258484   3.6295092  66.4944124  31.7263603
   4.2549759  66.0807562  30.4115725  13.7479627  30.7303762  28.5929155
  13.8073301  30.3058600  27.7370572  12.8082919  30.8260202  28.7481666
  17.3547268  29.3611550   3.5339296  16.9048142  28.5534668   3.2860410
  18.2822239  29.1719580   3.3918574  83.5548115  20.0817084  56.0745382
  84.2591095  20.3548574  56.6624022  82.7595997  20.1579189  56.6018534
  32.1324563  12.3566771  20.5821490  31.6861653  13.1785798  20.7859445
  32.7390623  12.5820136  19.8768222  19.5267904  47.0282888  34.3430781
  19.9729311  47.8072071  34.6754622  19.0962994  47.3229933  33.5405445
  29.7126532  35.2583027  58.7503004  28.9562321  35.7090020  58.3748960
  29.6010470  35.3504395  59.6964979  18.5228789  56.5494633   4.9139136
  17.8942049  55.8444548   5.0687259  18.6666298  56.5386724   3.9676309
  26.3159299  16.6339779   9.2540199  25.7877135  15.8948886   8.9524138
  27.1800303  16.2580442   9.4220465  29.0063620  22.3377347   6.2287891
  28.5308695  22.8969216   6.8431562  29.4418168  22.9498243   5.6355298
  22.4726009  22.7919745  49.1461992  21.9804716  23.3349729  49.7619867
  23.3114529  23.2422662  49.0472269  70.6384706  29.1436100  22.8711867
  69.7749710  29.2322659  23.2745910  71.0181046  30.0207973  22.9227114
  55.1353645  78.8867140  17.3597383  54.2049360  78.8030910  17.1510851
  55.2339840  78.4370470  18.1989682   3.1236669  23.8897109  30.8905768
   3.5805708  23.0658984  30.7208633   2.6901439  24.0980506  30.0629997
  23.3305883  27.7292275   7.5016087  23.2213712  28.3765054   6.8049484
  22.9762506  26.9195795   7.1339881   0.5899306   7.9976463  44.9611044
  -0.2810153   8.3622491  44.8037863   0.6074869   7.1895492  44.4483662
  10.8515429  12.9574001  18.8006175  10.6472313  13.8406241  18.4933662
  10.5326164  12.3821378  18.1052113  23.5643220  27.8032494  42.5004339
  22.8012538  27.9345751  43.0632019  24.0237927  28.6427307  42.5201559
  79.4116163  19.6543992   5.5564266  80.1260853  19.4847643   6.1704195
  79.8495340  19.8907304   4.7387433  71.9349289   4.9708533  63.4669781
  71.1606932   5.5147415  63.3221436  72.6081276   5.5854303  63.7590933
   1.0895894  45.8915043  27.7117062   0.6928262  45.1770449  27.2133493
   1.9623134  45.9927416  27.3317909  58.8785553   9.6007890  20.3557682
  58.2566500   9.1220236  19.8078191  59.0076685  10.4328835  19.9005973
   1.8752946  50.0879002  46.7759705   2.0222491  50.4368782  45.8968496
   1.3834175  49.2792034  46.6335106  10.1802266  60.0267982  16.7901611
   9.8597145  59.8413467  15.9074879   9.9180299  59.2638922  17.3053896
   4.7895557  69.1317749  23.9447784   4.0744522  69.6478033  24.3170357
   4.4541308  68.2354450  23.9270639  10.5725467  50.2080297  13.3996212
  10.2169180  50.7080936  14.1342592   9.8215377  49.7278404  13.0508566
   7.0523065  42.0465469  48.0236721   7.8397232  42.5287008  48.2761240
   7.0292336  41.2971592  48.6187506  17.3445415  31.7764211  32.7513480
  16.6892159  31.9545388  32.0767713  17.3530471  30.8225846  32.8310919
  19.2079067  36.3677740  25.3151441  20.1584291  36.2744164  25.2517176
  19.0783870  37.2143984  25.7425618  72.1050072   4.7034776  25.1873469
  72.7027988   3.9563954  25.1600814  71.4715672   4.5288956  24.4912815
  24.1114163  30.8625507  34.9710059  24.5812774  30.1894403  34.4786763
  24.3141079  30.6743813  35.8873796   8.5905290  39.5532584  46.1055136
   9.3942636  39.3434334  46.5811348   8.0895150  40.0995493  46.7111349
  43.2577419  64.0792227  34.7931147  43.0310059  64.0102339  35.7205105
  44.0003586  64.6828175  34.7723675  12.8633845  11.0293674  12.9039812
  12.9925537  10.6543398  12.0328319  13.5253191  11.7177367  12.9689586
  54.6479082  77.3490047  19.5639288  55.1337385  77.4302006  20.3846645
  54.5846701  76.4055204  19.4153702  39.9208307  72.4777365  13.8607728
  40.4987001  72.8847504  14.5062494  40.3172016  71.6234827  13.6893952
   8.3583188  34.3863702  10.8661699   7.5209862  34.8344183  10.7463360
   8.1577730  33.6566520  11.4522791  63.2300377  41.2372589  67.3265219
  63.7438202  41.9367027  66.9227409  62.3801088  41.2808847  66.8884039
  49.1501379   0.1022011  12.5897360  49.8231506  -0.2240414  13.1871057
  48.3731031   0.2072475  13.1387484  79.6988010  54.9886131  17.5015903
  79.6813440  55.7117081  16.8746436  80.5237579  54.5370197  17.3234522
  14.5757449  17.8435385  31.7583346  14.3223572  18.2901907  30.9505439
  13.7670875  17.7932882  32.2680211  40.6942225  57.9983187   5.0665390
  41.2804317  57.2815800   4.8238972  40.8582306  58.1365156   5.9994030
  14.7854424   9.3569613  43.8377094  14.4199383  10.2382743  43.9146996
  14.8450553   9.0427351  44.7398949  28.3573675   6.8088961   8.5609877
  28.9555717   7.4856597   8.2441700  28.4502816   6.8338358   9.5133406
   1.2704717  15.7921946  19.4279671   1.9486849  15.7595289  18.7532878
   1.4267464  16.6186738  19.8848510   0.2070509   5.0008374  12.9599357
   0.3555926   4.1531932  13.3790624   0.9148434   5.5566108  13.2860911
  44.8561907  66.1497355  66.8565035  44.5768929  65.3648329  67.3278379
  44.5944548  65.9904099  65.9496737  18.6817110  10.1502895  10.1530361
  17.9662216  10.7218647   9.8744529  18.4721494   9.2992866   9.7681856
  72.0459557  18.6093533  56.4730215  72.6200533  19.1111803  57.0516586
  71.2477922  19.1343403  56.4134169  64.5965767   4.7040597  14.6569145
  64.6923351   4.5649487  13.7147307  64.4599104   3.8272762  15.0158083
  21.2368059  31.6794586  61.6856861  21.8262506  32.3035693  62.1090889
  20.4574609  31.6711950  62.2413731  22.2844052  78.2768011  55.9054661
  22.3659420  77.7562141  56.7045736  22.1722913  77.6301146  55.2087164
  58.1601095  47.0035410  63.0561590  58.4971476  46.7035246  62.2119808
  57.6884127  47.8111362  62.8523970  39.5097470  33.0108309  19.5835876
  38.6825323  33.1654954  19.1274881  39.8665857  33.8858938  19.7357881
  46.5287209  11.6282797  11.3843417  46.3638496  11.6075969  10.4416728
  47.4654245  11.4497435  11.4676368  68.8542843  77.4550486   7.2552228
  68.9383841  77.4420214   8.2086325  69.2044592  78.3071947   6.9955099
  48.9545679  22.7343202  43.0659008  48.1661415  22.6112223  42.5372601
  49.0200377  21.9347954  43.5881138  35.9495068  25.8537889  59.6940708
  36.1305070  25.6720734  58.7718678  36.2322545  25.0633311  60.1539183
   8.3576936  26.2080312  28.9438295   7.8872871  26.6706157  29.6373463
   7.8215832  25.4355025  28.7648988   7.1923763  42.3818779  34.9566531
   7.4978793  42.6119423  34.0791726   6.5333194  41.7032576  34.8105407
  81.3907814  24.8873591  58.8125896  80.6548309  24.9272275  58.2018280
  81.8778515  24.1062903  58.5500622  60.4058075  16.9584763  68.1290388
  61.0590553  16.4038265  67.7025890  59.7007751  16.3570893  68.3688307
   6.9577414  38.7018728  12.3277259   6.5224272  37.8785205  12.5486875
   7.8722221  38.4582877  12.1841216  78.8965797  22.6228905   4.8255700
  78.5083199  21.9174242   4.3080723  79.3957853  22.1730757   5.5072534
   2.4571608  50.4006958  25.6259251   2.2498465  50.4037762  24.6914506
   2.2820656  51.2968683  25.9130621  81.4820004  42.7124500  28.1820011
  80.5775261  42.9442501  28.3927608  81.9982338  43.0903578  28.8939905
   6.0761648   5.9496295  13.2033718   5.1897365   6.3087159  13.2425308
   5.9611320   5.0650716  12.8561592  66.4440727  64.7228432  32.1504974
  65.5847597  64.4422388  31.8357301  66.7849636  65.2804470  31.4511371
  57.7966118  19.0969634  63.5835361  58.7248373  19.3215191  63.6484289
  57.4988317  19.0444708  64.4917250  18.4974110  57.6529551   7.8384805
  18.1708038  57.6360512   6.9388837  19.0338182  58.4444427   7.8837091
  78.4615707  32.5769401   4.2474800  79.2082739  32.4628592   3.6595541
  78.7473154  33.2448745   4.8707342  79.0955162  44.3191910  59.7727108
  78.4054565  43.6590433  59.7074938  79.2600965  44.4016457  60.7120419
   4.6996328  38.1865597  35.4201055   5.1069641  37.3269367  35.5266976
   5.4267144  38.8057780  35.4845572  70.1211977  16.5392041   5.3622550
  69.2919636  16.0719228   5.2610141  70.3278446  16.4613271   6.2936324
  79.3514633  40.2654409  18.6193168  78.6648417  39.8609519  18.0890608
  79.6074438  41.0446453  18.1258178   6.6868836  56.5311289  42.7857018
   6.5779620  55.9701252  42.0178175   7.6129305  56.4483929  43.0133486
   4.1604051  45.2488375  42.2616529   4.4464391  44.3918085  41.9455576
   3.3713469  45.4400015  41.7546272  10.6732416  23.2173944  43.2170963
  11.2863898  23.3612561  42.4962759  10.4053509  24.0970778  43.4828424
  69.5600891  76.7120028  13.0235302  69.7978020  76.1205149  12.3094809
  70.3751278  76.8418360  13.5083854   9.1646373  28.0346870  40.6954622
   9.3884504  28.7572813  40.1089478   9.4994563  27.2546554  40.2531052
  24.6551442  20.0021696  26.4036584  23.8737416  19.9046028  26.9478297
  25.1905274  20.6465435  26.8666720  24.6081662  40.2645540  23.2490516
  24.0194225  40.7360363  22.6597166  24.6902037  40.8355331  24.0129113
  13.2000959   1.2064416  53.4182072  13.0680346   0.9280214  54.3244505
  12.8298843   2.0884176  53.3822441  44.5371056  19.8419058   3.3015382
  45.1171112  19.8419535   4.0630031  43.8173246  20.4224801   3.5486773
  29.4468737  29.7389579  26.5272856  28.8975263  29.0564919  26.1416864
  29.6221542  29.4313264  27.4165964  83.1077099   3.9047050  41.8700218
  82.6969051   3.2081664  41.3578701  83.5293674   3.4493256  42.5987625
  55.4672909  12.4092472  66.0128117  54.9389362  12.6257801  65.2445745
  55.6662750  11.4784002  65.9120178  12.7893829  50.9805822  14.7232091
  12.9081917  50.2956486  15.3812182  12.1278846  50.6284475  14.1276836
  19.1289294  54.8423862  32.9977798  19.2594612  55.0290918  33.9274740
  19.7839749  55.3789854  32.5514483   8.4104192   4.5384040  53.5087204
   9.0683311   4.3938023  52.8286648   8.9178324   4.6549329  54.3119526
  23.5660172  33.4478855  16.6670108  23.6491537  33.1039095  17.5563920
  23.4484220  32.6713181  16.1198843  12.8973854  17.4295473  58.9743614
  13.5064352  17.4042046  58.2363605  13.4539485  17.3363459  59.7475243
  20.3470492  19.5837498  26.1475992  20.7862282  19.4694865  26.9903898
  20.7425475  20.3724384  25.7764077  20.1238942  46.6216183  12.1737170
  20.2369833  45.9011507  11.5537405  20.3189707  46.2356281  13.0276430
   1.0292100  41.1020660  30.1759529   0.5586741  41.7716360  30.6724477
   1.5783755  41.5966558  29.5676494  37.1612906  54.5171022  35.5732918
  37.3708034  55.4054880  35.8615804  37.6894903  53.9516258  36.1367393
  67.3581648   0.6960433  58.3728313  66.7673683   0.5334409  59.1081905
  67.0234966   1.4968961  57.9692698  28.1185603  72.8267193  50.3493357
  28.7919593  72.9026937  49.6733236  27.3307180  72.5628757  49.8740244
  79.3798923  37.7756667  34.7827244  78.4677792  37.4873066  34.8163509
  79.3271065  38.7224340  34.6520519  10.2988291  46.8831635   8.7244117
  10.6114554  46.2747622   9.3939996   9.3516070  46.7473412   8.7008637
  77.6451063   3.8309392  53.6045170  77.6441431   4.0134037  54.5441628
  77.7207327   2.8785551  53.5455465  40.6197071  55.5265093  34.5419812
  40.7010078  54.8844385  35.2472234  41.5225983  55.7531500  34.3191528
  19.4680834  52.8293133  20.3663850  19.9071372  53.6767673  20.4390669
  19.3868661  52.6816702  19.4241345   7.2579587  44.1402388  19.5278752
   6.3153839  44.3068647  19.5322871   7.3543799  43.3227110  19.0394247
   5.1504952  56.8191385  47.3174191   4.9048170  56.2538576  48.0497646
   5.6297755  57.5417137  47.7228880  18.3472288  40.1703930  17.4173164
  18.3070374  39.5819163  16.6634536  18.1690741  39.6072364  18.1705403
  81.5185738  10.8006012  58.7321377  82.0217228  10.0879061  58.3382607
  81.1034107  10.4054928  59.4987965  42.6036739  41.0460997  23.7089872
  42.5165319  40.1160383  23.9178538  42.4394321  41.0965204  22.7673316
  47.0996189  35.1154089  17.2074103  48.0090284  35.3543568  17.0282018
  46.8904638  35.5657291  18.0257607  37.5957417  59.4677973  20.6480455
  38.1522012  60.2365208  20.5229521  36.7028856  59.8119926  20.6241727
  16.5718675  40.7957315  29.8535872  16.8767583  41.6984081  29.9454641
  16.8730938  40.5283880  28.9852405  26.7191052  31.9427443   2.5713870
  26.5606380  32.8855205   2.5235435  27.5317335  31.8614960   3.0706510
   8.8626647  53.0908775  11.3566446   8.8390988  52.5479889  10.5686426
   9.7482461  52.9749775  11.7009485   7.6929265  21.6663599  58.9728260
   7.2361821  22.3146081  58.4367418   7.0006710  21.0846281  59.2868423
   2.8530172  52.0993805   9.6228242   2.2446708  52.7306557   9.2385870
   2.4322537  51.8271017  10.4383337  62.2889996  60.4785538  53.4701872
  62.4564934  60.2550650  54.3857384  62.6068020  61.3770342  53.3809614
  38.9729118  79.1251087  16.9623923  38.8319159  79.1818953  16.0173380
  39.8842764  78.8466024  17.0522785   5.3752500  35.5806684  35.3733230
   4.6605468  35.0170994  35.0769806   5.2429950  35.6583738  36.3181520
  83.7407780  57.3941898  37.4632740  83.8033962  57.4729586  38.4151697
  84.6379089  57.5176525  37.1531987  29.8458385  46.3168335  25.3600931
  30.2548528  45.5623484  24.9361897  29.6739173  46.9293308  24.6448874
  56.7653561  10.1938009  43.4665060  56.5478086   9.3736809  43.9095688
  56.4345312  10.0797725  42.5755596  73.3751297  70.8282471  15.6826699
  72.9193830  71.5892887  15.3230250  73.7956810  71.1547565  16.4781320
  15.7299018  42.9671621   6.5648192  16.4329910  43.1645918   5.9460145
  15.7669461  43.6784267   7.2043252  64.3356085   5.9537613   6.1023581
  64.8367834   5.6251019   5.3560090  63.9852428   5.1672792   6.5205961
  17.5758600  39.8126888  64.1999483  16.6679263  39.7936821  64.5024824
  17.5104284  39.8012495  63.2450533   8.2627589   9.8070061  13.6031592
   7.9140854   9.7144455  12.7165413   8.5111952  10.7291436  13.6677682
  53.8417864  62.5675631  11.9402540  53.6417246  63.3059931  11.3649917
  54.5523500  62.1041775  11.4968514  34.9411249  42.5621939  19.7140253
  35.7164693  42.4199724  20.2570224  34.8367906  41.7449427  19.2267370
  23.4316707  66.8216228   1.6123955  23.3525014  67.6214314   1.0925210
  22.6024151  66.7611504   2.0866410   1.6937460  33.1848526  17.6894951
   1.3745958  33.8934541  18.2482946   1.5048370  33.4789443  16.7983973
  63.3382559  12.8601515  45.8685493  63.9520359  13.5856068  45.9835196
  63.7006950  12.1529210  46.4021158   9.2787641  72.6645041   9.1543144
   9.3586445  72.9070139  10.0768328  10.0652719  73.0233288   8.7433660
   1.5049966  50.8551311   1.5896183   2.2588268  51.0298109   2.1530537
   1.7487073  50.0694180   1.1002456  45.4627752  27.2126698  23.2841372
  45.2126360  27.7469397  22.5303364  45.5654478  27.8405976  23.9992595
  24.6273494  34.3577909  14.0351140  24.4544506  34.2008376  14.9633932
  25.1911020  33.6309719  13.7702525  40.0928259  15.5100811  27.4573946
  40.7995558  15.1410723  27.9871082  40.4416800  15.5200195  26.5660858
  46.8557024  44.6047640  17.8217471  46.8215179  44.1367626  16.9874585
  46.1973953  45.2944183  17.7366507   0.9727958  35.2750969  33.5451484
   0.6904133  35.0664687  32.6546621   1.4816609  36.0805225  33.4525394
   9.4225419  36.2078881   2.7047312   9.7296399  36.3105893   1.8039677
   8.5873759  35.7475710   2.6220322  46.6093731  29.0033984  18.6081088
  47.4985266  29.1361499  18.9367592  46.3036680  29.8820162  18.3827019
  78.8501263  15.1372898  60.8852482  79.7312403  14.8062086  61.0591698
  78.8595009  16.0325611  61.2238264  38.8108873  24.4347572  24.2724848
  39.6270585  24.2969131  23.7917638  38.1254554  24.1541433  23.6661267
  75.5414009  63.1554699   4.7909150  74.9597025  63.4567070   4.0929797
  75.0426006  62.4735308   5.2407950  48.8100433  13.0792034  21.0712838
  48.6465597  12.8975868  20.1458001  48.6844158  12.2360528  21.5066552
   2.1721770  40.3779936  55.5503845   1.4865762  40.9676933  55.2366447
   2.0674643  39.5865297  55.0223207  20.5335116  11.3334656   2.0104729
  21.0916948  10.5571246   1.9662106  19.6460152  10.9856915   2.0978390
  16.1684453  69.5070744  68.3896399  16.4476240  68.6007881  68.2594776
  15.2417469  69.4414616  68.6201954   7.8695691  37.4739766  26.2506127
   7.7775472  36.5212202  26.2460756   8.3605075  37.6709890  25.4528666
   0.8461212  64.4861126  21.3024044   1.7516699  64.2267179  21.4724827
   0.3304378  63.7076187  21.5127659   9.6382385  52.1561289  15.1010120
  10.2105927  52.8752756  15.3683531   8.7619889  52.4365044  15.3652263
  63.1791162  56.1790752  38.0174494  63.1759119  56.3842964  38.9523864
  63.9343548  56.6539764  37.6705813  44.5355082  57.5482559  38.4457278
  43.6370707  57.6612949  38.7559819  44.7866869  56.6767406  38.7516785
  81.2734318  29.4581389  37.0839429  80.9637833  29.8099732  36.2493396
  81.0258770  30.1200819  37.7295280  48.3747387  60.0994539  45.8777666
  49.2851973  60.0384998  45.5886555  48.1974077  61.0393810  45.9141397
  15.8919239  63.0171776  23.6136794  15.3145170  63.1706095  24.3615365
  15.3305840  63.1410408  22.8483105  64.1067696  65.0397491  51.7022228
  64.5860720  64.5957851  51.0026550  63.5153675  65.6377697  51.2452221
  39.0418601  26.4253092  16.0113275  39.0269995  25.6008196  15.5252934
  39.7815919  26.3358355  16.6121805  16.5260375  45.3224134   3.7061554
  16.2231505  46.0112524   3.1145573  16.4602172  45.7101345   4.5788360
  11.6440880  52.4257946  17.9260969  12.0002472  53.2722235  17.6560211
  12.4150431  51.8805504  18.0828464  19.3890500  48.7516928  20.6231093
  20.1015925  48.6394739  19.9938881  18.6749661  49.1313839  20.1111054
  65.1109982  61.1625051  66.5396357  65.5618811  61.9266605  66.8988132
  64.1812134  61.3519001  66.6655874  15.4770517  30.2748752   8.5557067
  15.3640664  29.3369579   8.4015030  16.4168870  30.3820086   8.7022150
  38.3889604  29.7144079  23.2711315  37.8176594  29.5553374  22.5197697
  37.9228544  30.3681731  23.7922549  17.5267994  36.1024189  46.1740017
  18.3095932  35.8538628  46.6656208  16.8031967  35.9460354  46.7807770
  24.7201562  37.6422977   1.3204235  24.2081904  36.8685102   1.5557373
  25.0831485  37.9508829   2.1506307  27.4310899  18.7261653  49.2384720
  27.9066277  19.4848800  48.9001703  27.3163724  18.9114916  50.1705313
  27.7769685  25.8797097  11.7084718  28.3021116  25.6643820  12.4792445
  27.1112919  26.4857030  12.0338631  79.7640991  27.0510054   2.4489218
  79.5157814  27.7345824   3.0712482  79.6726942  27.4641013   1.5903018
  26.6741276  25.2718759  22.8004622  26.2896991  26.1022115  22.5194120
  25.9393287  24.6585011  22.8091192  68.1364298  18.8041353  67.6652479
  68.8297129  18.9712644  67.0267677  67.3569727  18.6390722  67.1347475
  79.9804115  18.0628729  25.7133675  80.6727982  18.4371769  25.1686382
  79.9063873  17.1557736  25.4168510  22.7092481  50.9484768   9.5367062
  22.5300574  50.6217527   8.6550188  22.5959015  50.1849222  10.1027179
  43.4320402  56.0885763  31.2392759  42.7748203  55.4177761  31.0540295
  42.9322481  56.9024467  31.3029194  34.4378686  49.6804523  31.1729813
  34.3149710  49.7083521  30.2241135  34.4367194  48.7475586  31.3873148
  16.7533624  26.5526414  39.9708414  16.7153752  26.7013764  39.0260315
  16.5713739  25.6185532  40.0737619  18.5653853  38.8602757  28.3513117
  19.3633509  38.9744115  28.8675070  18.1427014  38.0899096  28.7309217
  46.1620474  20.7513237  11.7329049  46.1720085  21.4308167  11.0587966
  45.3427124  20.2790833  11.5848827   9.5724541  33.7582397  32.0684886
  10.3725743  34.2584419  31.9077516   8.8867873  34.4216204  32.1460724
   2.5601748  44.7001266   9.5424467   1.6665535  44.3589449   9.5780283
   3.0678201  44.0993643  10.0879836  25.9884381   8.4466481   7.8534019
  26.2137151   8.6850917   8.7526387  25.7698703   7.5159025   7.9000062
  57.6032305   3.2709864  67.2535563  56.8024254   3.5763711  66.8273115
  58.2984591   3.8029534  66.8663883  70.0895071  25.8651066  27.5903177
  69.9384594  25.8086705  26.6467977  70.9080076  26.3544488  27.6729965
  17.9753971  64.3557215  14.9655449  18.6528778  63.9381933  14.4336414
  18.4550095  64.9565840  15.5357802  58.7519073   1.4301029  15.6163597
  59.5934677   1.8280825  15.3935969  58.9020967   0.4886286  15.5309105
  13.0605006   8.6716479  62.3179197  13.2271707   8.0228776  63.0016994
  12.1988404   9.0293229  62.5320292   8.6198282  60.5429888  11.5119541
   9.1851550  61.2039661  11.9116342   7.7566248  60.9552145  11.4775729
   5.3246313  13.1678236  60.1126909   5.1999116  14.0950263  59.9102736
   6.0710323  13.1517386  60.7117414  30.6690598  37.5240707  31.4462376
  29.8471928  37.4554276  31.9320917  30.6418252  36.7959976  30.8254313
  22.5245404  19.6715665  27.9193997  22.7291059  20.2347040  28.6658978
  22.5026846  18.7873375  28.2853127  25.9011459  41.2403727  16.3797033
  26.3522744  42.0252466  16.6906559  26.3709402  40.9938955  15.5829751
  25.4654503  64.7427940  67.2268677  25.4533720  65.0816202  68.1220102
  24.5436120  64.7081089  66.9714403  47.4272633  16.1453295  24.2904997
  47.0094347  15.7689381  25.0650835  47.7269554  17.0085287  24.5756340
  28.5387897  57.6151991  13.4029651  28.8915300  58.4707832  13.6474693
  29.1114593  57.3125410  12.6982093  72.8408241  18.7096810  67.2695923
  72.3403072  18.8365722  68.0755758  73.7552452  18.7125564  67.5525427
  23.7648869  67.8017235  33.7932062  24.4645071  67.5443363  33.1927776
  23.6556578  68.7410641  33.6450887  74.7146845   3.4525985  38.2567501
  74.6515465   2.5688311  38.6189675  74.9570656   3.3191302  37.3404145
  68.9372540  36.9009590  35.1303577  69.7708273  36.8649673  34.6612167
  68.2737875  36.8980765  34.4404054  25.5309653  31.3606167  27.7657270
  25.4842520  30.4045582  27.7645135  25.9933496  31.5767956  28.5754800
  18.2187700  61.8612957  23.8928103  17.3762214  62.3074675  23.8075066
  18.6398983  61.9799423  23.0414534  42.7826929  26.0116363   6.4371896
  42.6217890  26.3016868   7.3350829  43.7135553  25.7892656   6.4205039
  19.6614444  46.2103605   5.3047419  19.8925114  46.2853384   6.2306029
  18.7154806  46.3547325   5.2815157  75.3314638  27.3522782  57.6041603
  74.9550772  27.8250718  58.3464766  75.7821798  26.6059375  57.9992056
  42.7257586  36.4774108  21.4502835  42.0432425  36.1681199  20.8546782
  43.4725857  36.6653371  20.8818102  70.5948830  22.8350449  64.8848104
  70.0221968  22.4773455  65.5632734  70.8946371  22.0686746  64.3958759
  82.3228455  45.0806475  18.9393377  82.6973248  45.9452343  18.7705541
  81.5159512  45.2592516  19.4222927  67.6869583  37.3173928  20.7439256
  68.1110573  36.9628453  19.9624705  66.7507792  37.2004390  20.5822992
  24.2499042  51.2006474  50.4141331  23.5279369  51.8140793  50.2773857
  24.4572401  50.8756208  49.5380068  61.1010790  35.5552220  60.9024954
  61.9345570  35.4600573  61.3634634  60.6851435  36.3129735  61.3136387
  48.6850739  75.2212381  38.2502651  47.7816200  74.9111843  38.1880546
  48.7991190  75.4429293  39.1744280  51.6821241  16.9810581  16.2348187
  51.0067844  17.6497674  16.1208880  51.2091732  16.1508310  16.1775863
  70.8476591  65.3233862  56.7018795  71.6449356  65.6972504  57.0771313
  70.1527023  65.5866432  57.3051739  68.5054827   8.2195663  63.7600946
  68.0662632   7.6834768  64.4203377  68.1836462   9.1068834  63.9192200
  58.5582876  55.8723402  56.8647766  59.1379356  55.1150560  56.7825556
  58.8432980  56.3059044  57.6691532  25.1573586  25.3313899  36.4398646
  24.4601178  25.0886226  37.0490885  25.3323650  26.2528372  36.6310239
  19.0276361  44.6049595  38.1120825  19.6241403  44.4284534  37.3845768
  18.5737193  45.4090834  37.8599405  25.6326461  15.3912520  22.7553511
  26.3817501  15.2373695  23.3310223  25.4803562  16.3348198  22.8074980
  32.9462624  50.3237867  23.9613819  32.6836610  51.0126543  24.5718980
  33.7075162  50.6842136  23.5066128   4.7962466   4.7402686  39.1216660
   4.6043846   5.6363147  39.3982911   5.7382590   4.6431100  39.2609668
  46.3552141  62.6052952  13.8872087  45.6454468  62.3181391  14.4616675
  47.1142387  62.0959997  14.1713476  53.6370945   0.4655177  52.2397375
  52.7853823   0.8737887  52.0843792  53.8657284   0.7210204  53.1334257
  41.0489368  34.4539285  16.1162055  41.0382843  35.2793741  15.6316864
  41.3108349  33.7994671  15.4686558  72.8547001  43.4309483   1.1902900
  73.5936260  42.8292036   1.1001145  72.0837593  42.8916502   1.0141113
  52.8796625  65.3511953  45.3710938  52.3176575  65.9723139  44.9078560
  52.8696537  64.5654202  44.8245621  18.0005634  13.1630194   3.4538004
  18.8249481  13.6274707   3.3092058  17.3351252  13.8510752   3.4555417
  53.9987612  76.0808277   6.6285670  53.2330704  76.3356590   7.1433592
  54.1486740  75.1641941   6.8599504  73.5041666  51.2797117   1.8309934
  73.7875175  51.6156626   2.6813358  72.5832415  51.0518408   1.9582781
  36.7557645  48.4084082  26.5460563  37.7126622  48.4177685  26.5681791
  36.4931011  48.7229300  27.4111104  78.0105162  19.8846364  46.9030190
  78.6854696  19.7882164  46.2311745  77.8040791  18.9876068  47.1656036
  16.0296965  68.7171602   9.0925676  15.1467323  68.3479404   9.1092992
  16.0629332  69.2217779   8.2798624  76.9791698  14.0444171  10.0674045
  76.8659544  14.8798561  10.5206776  77.8820038  13.7893307  10.2572751
  25.5903316  76.2885761  40.3784513  26.1606026  77.0560265  40.3332567
  24.7878218  76.6103554  40.7891464   8.8778836  45.7557344  55.7411909
   8.6209559  45.8128262  54.8208857   9.8119998  45.5482292  55.7166481
  36.2010312  66.8369913  67.9466677  36.4999676  67.3252344  68.7137985
  35.2678227  66.6926956  68.1033039  25.2513599  76.0180044  33.2796335
  24.6657586  76.7068434  32.9652977  25.4082942  76.2376642  34.1979766
  25.6752491  23.0196357  24.7807932  24.8101258  22.7736282  25.1083183
  25.9645939  22.2603726  24.2747974  21.1244726  50.8998728  22.0362902
  20.6289291  50.1114464  21.8148255  20.7378745  51.5863419  21.4926577
  70.2563143   2.2555789  57.8438854  70.1303053   1.3443361  58.1084442
  69.6642256   2.3733835  57.1010637  35.7841563  37.7510166  21.0731745
  36.5387392  37.5271487  20.5284548  35.6282067  38.6787963  20.8967257
  20.1878071  31.2934899  37.0030117  19.3212175  31.6859198  37.1090865
  20.1873851  30.9498310  36.1096311  39.4250083  49.9233007   6.2143677
  39.2246318  50.5891657   5.5565655  39.8410773  50.4082632   6.9270599
  10.7347667  55.4248667   0.7324447  10.3467989  56.1682034   1.1941397
  10.6055856  55.6248617  -0.1946716  14.6955788  49.9131203  39.4732189
  15.1277363  50.6148863  38.9863968  14.8551786  49.1264296  38.9517999
  72.7876520  47.0928860  33.3883882  73.1390715  46.9033480  34.2583370
  73.5592508  47.2814417  32.8542423  14.0380061  37.4687195  11.7281353
  13.5721207  36.6443825  11.8683076  14.2871535  37.7554274  12.6067460
  77.7064705  20.7714868  51.2224388  78.2677269  19.9975777  51.2702847
  77.5366545  21.0010481  52.1360588  63.0158329  70.2727842   1.7762935
  63.2588434  69.3595886   1.6238084  62.5946808  70.5477524   0.9618897
  36.9127917  57.9830933  29.0910268  36.5020227  58.1595421  29.9374104
  37.3063231  58.8178921  28.8371062  44.8302031  52.2245646  18.3408189
  44.9508619  52.4159813  19.2708910  43.9443779  51.8665314  18.2829237
  75.0828838  61.3978386  11.3770330  74.3300962  60.8451700  11.5870285
  75.3935480  61.7121315  12.2261155   6.5677279  16.0910058  31.4452577
   7.5036782  16.2251651  31.2961626   6.3140881  15.4326820  30.7983375
  74.1471624  29.6094370   6.2091690  73.6804104  29.1887069   6.9312233
  74.1618967  30.5377460   6.4420944  57.3041296   1.2714119  11.6813171
  56.4782190   1.5808588  11.3093638  57.0424175   0.6690250  12.3776436
  71.9005442   5.9213132  55.0418854  72.6674795   6.2061721  54.5449972
  72.0853329   5.0091434  55.2655602  78.4200811  75.5316114  25.5744123
  78.0469799  76.3728237  25.8378315  79.3037271  75.5357742  25.9423590
  35.6259418  48.6687469   3.8011622  35.7150483  49.0859175   4.6580541
  35.2740908  49.3561459   3.2355502  69.1117477   3.0127370  55.4698706
  68.5635519   2.9802158  54.6858692  69.2471266   3.9468777  55.6288862
  44.8184204  59.1532135  10.5028915  44.0122938  59.2081356   9.9896872
  44.5951462  58.5840845  11.2394202  17.3211074  23.8093686  39.6751094
  17.1072400  23.6126423  40.5871344  17.8094757  23.0435371  39.3730617
  22.1101618   8.9708847  55.4470873  21.2933087   8.5614496  55.1618767
  22.7834225   8.5711956  54.8964500  19.8774314  32.2257066   7.0629752
  19.0478075  32.3604918   6.6049480  20.4053307  31.7080832   6.4550102
  38.3614135  49.7646427   9.1742849  38.3879185  50.2878475   9.9753988
  37.4881458  49.3726826   9.1729879  41.3080978   7.5698364  32.9946232
  40.6825256   7.8252876  32.3166585  41.4120579   6.6251194  32.8808951
  55.4994822  28.5541296  10.9494185  54.6591997  28.5871196  11.4066577
  55.7803392  29.4677687  10.8982384  36.0507011  63.8197088   8.2341713
  36.4860797  63.4320641   8.9933866  36.4536071  63.3880949   7.4807733
  55.0569582  68.1595230  62.9797173  54.1909838  67.8169060  62.7585077
  55.3933811  68.5106611  62.1552467  32.6535726   3.1270111  38.1898570
  33.4596825   2.8730187  37.7405143  32.9420137   3.4099224  39.0576077
  32.8932166  68.3875751  36.3915300  33.0342650  69.1110325  37.0022225
  33.4723496  67.6929903  36.7052007  45.3066301  57.3895454  13.9560699
  44.5180082  57.2921848  14.4897676  45.0850487  56.9731903  13.1231320
   5.0740325   7.0192581  18.5716701   4.9141347   7.9565740  18.6816859
   6.0235840   6.9274426  18.6501169  16.3675284  10.2711487  54.9154758
  16.1490262  10.3260386  55.8457851  17.2949874  10.5040836  54.8731327
  16.4012253  67.6882982  14.2880380  16.3224089  68.6422443  14.2868984
  16.8592334  67.4848366  13.4725237  65.6775427  67.9293060  13.7370574
  65.6288815  68.3896589  12.8992379  65.2613831  68.5236216  14.3614233
  18.1555724  30.9070015   9.2628437  18.4113431  31.3333631   8.4449017
  18.9081156  30.3628492   9.4948089   4.8946634  34.6010804  41.8733788
   5.5321079  35.3150725  41.8628120   4.5765233  34.5773721  42.7758503
  47.6418447  49.9695158  43.1834507  47.3627949  50.6625319  42.5850487
  48.3139515  49.4906092  42.6985264  19.6374619  26.3563848  10.8079088
  19.1289520  25.9304309  10.1178277  19.7425914  27.2585535  10.5057955
  20.3509521   7.7997708  19.1367686  20.8613920   8.5911757  18.9654171
  19.5043576   7.9663897  18.7223470  12.3946702  77.7461910  37.7602887
  13.2738698  77.3690844  37.7923584  12.5403464  78.6920214  37.7397704
  49.2247105  64.7262239  58.1672430  49.7398520  64.3021679  57.4809265
  48.5601568  64.0787411  58.4025478  37.1433687  31.8024397   6.8003184
  37.7328610  31.2068486   7.2629201  36.4584255  32.0044994   7.4377012
  26.3842010  18.3340871  11.7387772  27.2225070  18.2778680  12.1973789
  26.6217637  18.4398007  10.8175707  65.8900690   9.3787301  67.8604889
  66.5390921   8.7612188  67.5233269  65.2946949   9.5255393  67.1255016
  78.6882401  60.9637117  32.5183487  78.7286472  61.4810324  33.3226967
  79.1967249  60.1766825  32.7139616   7.5325900  26.5111876   7.7325296
   7.4098337  26.2811351   6.8115306   8.1068367  27.2767711   7.7136844
  19.7809279  72.5685787  28.3179212  18.9111876  72.5782156  27.9183078
  19.6727109  73.0489683  29.1387415  25.3400970  28.2540798  16.3583148
  24.7038889  28.4803271  17.0367575  24.8208952  28.1826067  15.5573463
  42.5675583  37.0167494  26.1028290  41.8621397  36.4423299  25.8050728
  43.3633947  36.4969754  25.9900904  67.9450846  63.7396431  63.9294577
  67.1615696  63.2596350  63.6612654  68.5905027  63.5431194  63.2504511
  33.4811187  45.3226757  62.1742058  33.6397529  44.8997927  63.0181456
  33.9319062  44.7662926  61.5390205  50.5954838  36.8567324  58.3394337
  50.4264212  36.7596245  57.4023008  50.1232290  36.1293983  58.7446404
  37.9614067  50.4812193  31.8024588  37.8805184  49.6592617  32.2862697
  37.0736504  50.8388567  31.7877698  16.3451755  67.4734068  37.9169393
  15.9364712  68.2744741  37.5890970  16.4727569  66.9331646  37.1371341
  27.1899605  65.6306696  65.0666332  26.6275072  65.4951620  65.8292055
  26.5813732  65.7949209  64.3463039   9.8678529  54.4151640  29.8603058
   9.6300042  53.9098501  30.6376839  10.7757151  54.6770477  30.0133920
  30.5113316   3.7842542  24.0726018  30.9556937   4.0578663  23.2701612
  30.4999018   4.5695752  24.6197510  20.1092243  16.2333155   7.2007686
  19.9189365  16.5742481   6.3268197  19.8039138  16.9175220   7.7964860
  38.3514237  71.3222551  18.6505282  39.0432167  71.1872196  19.2981541
  38.5909033  72.1380568  18.2108128  50.3077364  46.9037199  46.1171675
  49.4589663  46.4989471  45.9383297  50.8667755  46.1767244  46.3913631
  66.5950346  62.7771235  58.2527781  65.9024763  63.4305000  58.1543589
  66.3278341  62.0569754  57.6816177   3.5050735   6.5853655  37.4182582
   3.8677299   5.8238482  36.9657040   4.1085935   6.7422682  38.1444645
  25.8399534  11.2473702  62.0299911  25.5322123  10.8646250  61.2083864
  26.3929749  10.5691576  62.4178362  21.5074229  20.6110787  16.5256131
  22.2830248  20.8546662  16.0203016  21.0772300  21.4436865  16.7203712
  13.4916079  52.7034426   6.8874472  14.1683125  52.7808094   7.5599933
  13.8836062  52.1446037   6.2164271  68.9991474   0.3434676  12.2709692
  69.4785404   0.9235626  12.8624952  68.1043339   0.3411312  12.6108754
  51.2502050  59.7751760  14.8578537  51.7106009  60.5710554  14.5916831
  51.6696739  59.0765285  14.3556917  29.6943665  67.9019690  35.1675773
  30.5458426  67.4684811  35.1100540  29.1194272  67.2486401  35.5661201
  62.7007484  66.4898157  66.9823790  61.8340063  66.5039396  66.5764332
  63.0937052  65.6711769  66.6796446  14.4825006  70.2795362  16.1174738
  14.1053271  70.9051752  16.7359793  15.1865613  69.8538876  16.6067088
  54.6189260  13.6499667  56.8546867  55.3208399  13.0735981  57.1569204
  54.2921305  14.0676129  57.6515627  32.3975182  30.0366378  26.2730503
  32.5956440  30.0519943  27.2093964  31.5005779  30.3653932  26.2126017
  25.4009295  74.6602392  23.3351088  25.2948666  74.8713446  24.2626977
  26.2854743  74.3000841  23.2710600  10.2334452  54.2007017  36.7910933
   9.8688966  54.8641634  37.3768830  10.2847326  54.6350718  35.9396696
  23.2188463  11.9727409  65.7544708  23.5226679  12.4601448  64.9887276
  22.3581767  12.3439240  65.9486437  48.3315229  24.4259906  61.9525766
  48.4065342  24.8892140  62.7868605  47.5621510  24.8111367  61.5331030
  28.2863784  73.7229967  23.3198905  28.8990402  74.4382763  23.4909248
  28.7469363  72.9374504  23.6149096   0.7354388  25.2211165  22.7544737
   0.8023724  24.7537065  23.5871077   0.0639244  25.8861089  22.9064131
  26.0274696  19.5833230  54.4359684  25.3557038  20.1252151  54.0220642
  26.6105795  20.2101374  54.8641205  43.1678295  56.3051844  19.6981323
  43.8123560  55.6734753  20.0171351  43.2810211  57.0691538  20.2636099
  32.5320435  61.7308760  32.0229626  32.5112987  61.9080400  31.0825276
  32.1028256  60.8803749  32.1159911  73.7828588  12.6780033  64.7128916
  74.5138884  12.5094962  65.3073978  73.3527613  11.8284559  64.6153259
  53.1620646  10.1549470  34.2498493  53.4182453  10.0810790  35.1691699
  53.9695215   9.9918747  33.7623572  62.7236271  50.0240040   9.2268389
  62.3620272  50.1869774   8.3556807  62.3234844  50.6937695   9.7813952
  29.9634933  54.5170498  30.0499892  29.2996550  54.8233891  29.4321632
  29.4667530  54.0573883  30.7268882  53.9452124   8.1802326  18.3080065
  53.5014582   8.5091180  17.5262439  53.6464405   8.7550414  19.0126789
  33.7976074  41.0653019   8.9482081  33.7030768  41.5361118   8.1201768
  34.4595027  41.5603304   9.4309837  42.7632999  53.2297897  39.1451597
  41.9806290  53.2497454  39.6958494  42.4256802  53.1831169  38.2506943
  27.2350430  64.5490360   5.8246475  27.6415086  65.3743458   5.5602998
  27.9628038  64.0146112   6.1424345  46.4129686  15.7901788   6.4898580
  46.8783855  15.1520956   5.9490550  47.0579958  16.4770007   6.6585273
  55.2378321  71.1474752   9.6961015  54.9196577  71.3853359  10.5669737
  55.7022715  71.9263840   9.3897873   4.8536506  78.6669350  54.6773434
   5.7549489  78.8375759  54.9507904   4.7400409  79.1924858  53.8854313
  38.2904720  29.6200299   9.7379476  38.0824184  30.5497479   9.8305309
  37.5993681  29.2750812   9.1725999  55.1919842  41.7568493   9.3069839
  55.3532982  40.8193731   9.2004740  54.7200108  41.8259001  10.1368678
  13.9031053  68.0077600  35.6289601  14.2695332  68.8698435  35.8258891
  13.0282187  68.1918049  35.2870083  40.1893282  44.9622440  12.5083315
  41.0497761  44.5586538  12.3944104  39.7543716  44.8412132  11.6642964
  29.6712065  54.5410299   1.1142185  29.8824191  55.4626417   1.2633896
  28.7661552  54.4513750   1.4126758  52.1039820  49.0009260  40.6854153
  52.8252745  48.4536934  40.9960604  52.1925545  48.9955854  39.7323346
  55.5284071  69.7741079  18.8164449  56.1442280  70.0161552  19.5081162
  55.4306746  68.8259268  18.9038122   9.3755162  78.1464720  13.2810736
   9.8892373  77.9696846  12.4929953   9.6837568  79.0015793  13.5810900
  15.0175500  34.8534989  39.5955944  15.1924288  35.6836009  39.1522193
  14.4629395  35.0910616  40.3386974  62.7762651  73.1608534   0.6430230
  62.4155903  72.3754930   0.2314897  63.5708761  73.3494568   0.1437711
  20.8654499   3.0802122  40.3465509  21.4502692   2.9815367  41.0978699
  20.5149531   2.2018194  40.1988649  62.6090622  62.8725338  24.5164275
  63.5231209  63.0812168  24.7092462  62.2340250  63.6986256  24.2112184
  41.3267469  70.2559566   8.5108835  41.1428404  70.0618410   9.4299763
  42.2076035  70.6304979   8.5167992  53.1712437  40.2446651   5.0091898
  54.1045952  40.3829479   5.1703417  52.7568960  40.3927708   5.8592558
  65.6826258  74.7618151  67.2026682  65.6189203  73.8679695  67.5391340
  64.8335218  75.1548386  67.4046087  62.7217674  72.9234886  38.9367223
  61.9116974  73.4086895  39.0935731  62.6885986  72.1951199  39.5568943
  49.7080421  48.2229853   4.7453317  50.6602812  48.2959938   4.8097253
  49.4792128  48.7454319   3.9766198  41.0506773  72.2011375  16.9139719
  41.1299324  72.7343893  17.7049196  41.8541813  72.3776197  16.4246202
  44.6554375  29.8284054  22.4311543  44.5935488  30.7324600  22.1227956
  45.1591015  29.8862243  23.2430720  29.1822243  77.1700716  38.0478740
  29.2990065  77.1796799  38.9978766  29.8866367  76.6077518  37.7256417
  39.4022989  12.6369083  64.2277908  39.3844581  11.7299557  64.5333242
  38.9649057  13.1317115  64.9206734  25.9063292  35.0034809  20.5055189
  25.1526403  34.8958445  21.0856891  25.5768442  35.5351830  19.7809744
  55.3671741  66.3713169  37.7894950  56.2593174  66.6008091  38.0495858
  54.8089647  66.9333506  38.3268547  72.9209042  75.5011892  22.8433967
  73.0859804  75.9856272  23.6522865  72.7620506  76.1789989  22.1864533
  45.0614691  48.6795473  24.3525338  45.2485132  47.7408886  24.3654513
  44.8407555  48.8922882  25.2593184   4.2826274   1.8552309  65.3707075
   5.2015579   2.0979543  65.4842138   4.1571733   1.8292542  64.4221210
   4.0636620  72.1481228  55.9226894   4.5432812  71.6357327  56.5735722
   3.6350757  72.8379536  56.4293242  73.8045311  14.8867893   1.3289231
  74.6776104  14.4982588   1.3837872  73.3119345  14.4697487   2.0357870
  49.6086597  74.2730999   7.0469403  50.1991272  73.7392378   7.5785184
  50.1821613  74.9048328   6.6130692  36.2718701  45.0292253  42.9245853
  35.7491779  45.2839041  42.1642160  35.6268859  44.8395586  43.6059475
  20.7528067  48.2019377  23.9114761  20.8215904  47.3440552  24.3304539
  21.2451816  48.7889051  24.4852972  76.1721039  74.9461174  41.5649462
  76.8468285  74.6177387  42.1592093  76.6548109  75.2338266  40.7900667
   3.8462636  17.9425967  62.0431089   3.5802177  18.1728363  62.9332972
   4.5318586  18.5746455  61.8269920  75.1133537  54.5533276  59.8477221
  74.7747517  53.6774588  59.6621513  74.4712305  55.1460743  59.4571257
  51.5811157  72.9775715  17.5518739  51.5271330  73.6713076  18.2091808
  51.9793367  73.3994627  16.7905200  33.4518218  14.4447172  55.8080816
  34.0971351  14.8206854  56.4067888  33.0879402  15.1986313  55.3439283
  59.5340014  38.0190897   0.5206178  59.0154219  38.7689137   0.2289466
  59.5151854  38.0720210   1.4761680  28.8139296  53.3490229  32.1382856
  28.9093828  52.8795624  32.9669762  27.9754353  53.8041210  32.2160292
  15.6935942  22.8786492   9.3891799  15.5346763  21.9446969   9.5259768
  15.6910527  22.9852247   8.4379351  35.0622082  48.1114149  39.9407887
  34.2866254  48.4703922  39.5097041  34.7194624  47.6549911  40.7091856
  17.5193596  47.9046631  40.2543449  16.9838548  48.2618237  40.9627962
  18.2119167  47.4169302  40.7001114  46.2101221  66.9697142  24.3986821
  46.0491323  67.1536684  25.3241444  45.6368208  67.5767088  23.9305806
  37.4138784  75.8337164  10.2272010  38.3310699  76.1036015  10.1808059
  37.3882818  74.9927568   9.7707254   2.1436988  76.8565512  34.4687247
   2.8125161  76.8208504  33.7848806   2.4387714  77.5522375  35.0562501
  15.9795952  50.6589985  46.0755825  16.9026315  50.7680130  45.8467770
  15.5053103  50.9045649  45.2812386  83.7747574  18.9990056  64.3249512
  84.5937538  18.6125469  64.6349764  83.8407230  18.9664316  63.3705854
  46.7158937  18.1897664  21.0738540  47.0314312  19.0439689  21.3688207
  45.8547974  18.0985892  21.4818072  80.1296139  21.2417102  60.7916307
  80.7283401  21.3516808  61.5303230  80.6383228  20.7578754  60.1409769
  39.3446398  23.8147688  15.8718657  38.9272380  23.1106019  15.3757274
  39.1643214  23.6020660  16.7875481  62.3059702  24.7148681  14.8008859
  61.5402937  25.1584315  14.4358897  62.0591116  24.5148778  15.7038224
  53.3376455   2.2929858   7.1720403  54.0968418   2.6207009   6.6899037
  52.9418802   3.0753371   7.5561351  40.2253723  65.4703712   0.5600059
  40.9361458  65.6064224  -0.0665133  40.6223440  64.9592972   1.2653063
  54.9331570  66.6696596  24.6214223  55.3322744  67.4749470  24.9507427
  54.8869848  66.7954397  23.6736441  44.0379477  69.3780518  29.6521044
  43.7000561  69.8665428  30.4027319  44.9819088  69.5357943  29.6689415
  54.8845291  53.3112288   4.4328472  55.5110168  52.6146889   4.2364424
  54.0316486  52.9341650   4.2168573  80.5935574  27.8204894  16.9779253
  81.1495781  27.9829645  17.7399445  80.4003239  28.6919308  16.6322601
  16.7385626  75.3903103  38.5221529  16.7529607  75.1270342  37.6019859
  16.8103147  74.5684528  39.0075755  15.5859125  53.9409542  18.2741857
  15.2054536  54.3311024  17.4872482  16.4696336  53.6841154  18.0109334
  43.1190968  64.5287180  11.3084674  43.7316656  64.8048115  10.6267309
  42.3401499  64.2450094  10.8299434  11.4568412  35.9771967  31.0096598
  12.1336198  35.3008270  31.0366321  11.7327750  36.6183758  31.6646266
   8.0306387  57.9548454   0.1702569   8.4267920  58.3434725  -0.6096555
   8.6879933  58.0714273   0.8562060  20.9817910  29.4800329  58.0253649
  21.4309335  29.5885754  58.8636494  21.4765453  28.7951612  57.5754738
  30.4977382  79.3320330  37.0030475  29.9558366  78.5597106  37.1645832
  29.8819650  80.0646581  37.0208430  41.8351269  60.9847927  32.4888110
  41.7368174  61.9274044  32.3544288  41.3889122  60.8132601  33.3180881
  22.8562236  59.5597029  33.5743785  22.9548931  60.2290916  32.8973150
  22.0908237  59.8384666  34.0770555  40.9201384  79.0243864  65.0855303
  40.1794958  79.0770483  65.6896114  40.6632519  79.5715761  64.3433523
  17.2207451   9.6841341  60.4482937  17.3550892  10.6153536  60.2721882
  16.6323352   9.6655631  61.2030506  29.8762536  59.0240812  28.2323503
  29.4097924  58.8885355  27.4075627  29.2369962  59.4527578  28.8013983
  11.1384952  24.0397048   8.0387247  10.9688485  24.4669318   7.1991241
  11.1825716  24.7589016   8.6688387  33.6529446  57.0428705   1.6195343
  33.9551616  57.7806425   2.1492395  34.4565034  56.6101170   1.3310024
  17.2344804  78.5167456  27.8342843  16.4851975  79.1112757  27.8708720
  17.3061180  78.1667614  28.7223220  59.0724421  66.3924217  13.9473510
  58.6448479  66.6080284  14.7761512  58.3535242  66.1555481  13.3614504
   4.6173748  58.8048220  26.7447448   4.6068445  59.7589254  26.6685343
   5.3486335  58.5284805  26.1923599  32.2344565  35.6627607  27.0162296
  32.6277518  36.0570574  26.2377191  32.9012895  35.0578141  27.3412013
  50.0151253  18.9937413  19.4501638  50.5427027  19.7919166  19.4217157
  50.4476500  18.4439039  20.1034880  74.6478748  23.0510664  44.0280294
  74.0764427  22.7541637  44.7362280  74.1163683  23.6789918  43.5386944
  78.9595127  18.9547384  63.0603027  78.6964321  19.8699236  62.9630661
  79.6189070  18.8214362  62.3793745  46.0315514  19.5913160   5.4173923
  45.3636694  19.1895401   5.9730375  46.7759705  18.9915454   5.4658931
  42.8434849  49.9729252  15.0866890  42.3207235  50.2173185  14.3229973
  42.8139734  49.0162849  15.1009500  36.2141991  43.0943394   9.2442179
  36.8292165  42.3795080   9.0799010  36.1117053  43.5222769   8.3941615
  46.8495131  49.3437719   4.4776088  47.4781609  49.6156120   3.8089216
  46.4274883  48.5680342   4.1083500  65.9837532  77.7119112  66.3660431
  65.7530022  76.7862844  66.4447975  66.4793062  77.9037952  67.1621799
  40.7326984  50.2511072  12.9628682  40.4896688  49.4776487  12.4540186
  40.6005335  50.9843731  12.3619652  30.4296136   2.9003888  62.3723555
  30.8748412   3.7475359  62.3537922  29.8829150   2.9342884  63.1573439
  69.5870447   4.6801251  10.0405526  69.7170115   4.7063851   9.0925801
  68.9554405   3.9737993  10.1762366   6.3631523  37.8732824  45.2206516
   6.7992228  37.0277166  45.1153278   7.0774877  38.4960341  45.3553295
  24.6659899  61.8051100  12.8602946  24.6051788  62.4188471  12.1282721
  25.0603175  61.0192776  12.4818695  54.1464138  65.5838108  16.8890619
  53.6869860  65.2946806  17.6774549  53.5534048  65.3617239  16.1712515
  35.7729721  41.3494349   3.4496963  36.4865756  40.8509254   3.0515882
  35.3128481  40.7133341   3.9973250  11.8580782  71.7315912  54.4424248
  11.1181128  72.0721054  53.9396954  11.6088951  71.8666363  55.3567028
  54.2262602  60.6875849  65.1789618  54.8217058  59.9686003  65.3904676
  54.5630026  61.4320278  65.6775999  39.1772413  60.9482431  34.5486021
  39.0516353  60.9188700  33.6001348  38.8945580  61.8273640  34.8005271
  60.1252127  49.5544052  41.9636583  60.6734848  48.8072300  42.2031546
  59.3712759  49.1658115  41.5200329  48.1422138  55.8766222   3.6956039
  48.7513590  56.2999773   4.3005377  47.2822475  55.9969902   4.0983382
  32.9592419  58.1249714  42.5769758  32.4545550  58.1095028  43.3901691
  32.2995424  58.1949902  41.8869591  19.3988466  68.0404854  24.4001245
  19.3277884  68.6606359  25.1257968  18.9764881  67.2445250  24.7230577
  24.2256927  19.8529303  12.4234450  25.0333858  19.3614864  12.2739518
  23.5279226  19.2523313  12.1614754  34.9935246  27.2396183  22.9644203
  34.2972898  26.5829015  22.9789686  35.0834942  27.5135589  23.8771582
   8.3867621  18.5889053  48.9419508   8.3208698  19.1708136  48.1848049
   7.4788481  18.4176934  49.1921711  34.9077964  44.0883064  24.9804926
  35.1913404  44.7468996  25.6146002  34.6601868  44.5928335  24.2056561
  69.3734503  31.6050196   9.1207904  68.7492132  31.2374091   9.7464263
  70.0139332  30.9070849   8.9833021  18.6088979  47.3685265  29.7398877
  18.0552518  48.0462217  29.3520284  18.2567084  47.2471476  30.6216240
  26.6266108  40.2630758  62.8858805  26.0747099  40.1433420  63.6587334
  26.0986590  40.8006191  62.2954988   8.2111299  49.6631718  34.1262841
   9.1100907  49.5555878  34.4369721   7.8354234  48.7839270  34.1709948
  71.9909525   9.7982717   4.2603618  72.3111534  10.6623101   4.0012479
  72.4805450   9.1865927   3.7104729  56.8775225  73.3953762  31.0632849
  56.7174292  72.4723959  30.8665299  57.7525091  73.4093142  31.4511514
  32.1880436  28.0725384   8.8591331  32.1920061  27.1892452   9.2279327
  32.3476529  28.6458373   9.6088558  26.9969463   9.4084185   3.5464171
  27.3792410   9.5034289   4.4188023  27.2100329   8.5117626   3.2878947
  23.5903811  49.0452003  29.0154457  22.8536224  49.2131329  28.4278965
  23.6909580  49.8575115  29.5117021  48.1567192  69.7737265   4.8388284
  48.9084291  69.4433737   4.3468648  48.5322094  70.3990459   5.4586804
  19.2969513  42.5995255  29.6420121  19.5191646  43.4732819  29.3204594
  18.7036705  42.7582169  30.3762221  27.7516484  26.2403345  30.6339383
  26.8777895  26.1243200  30.2609229  27.6391816  26.0617208  31.5675759
   5.5285925   5.7789123   9.8768473   5.9867620   5.0325912   9.4904304
   5.8329129   5.8032036  10.7840586  78.0143404  24.8351049  30.6521988
  77.4132729  24.9637222  31.3859582  78.5548830  24.0895152  30.9132361
  11.3399613  61.7272854  18.9321434  12.0970583  62.1658516  18.5439456
  10.7780480  61.5149164  18.1869030  25.7249165  76.6079617  15.2375078
  26.0857630  76.9890356  16.0380089  24.9874735  77.1755457  15.0133348
  36.0047221  45.9401274  21.5832734  35.2550673  45.3450727  21.5706348
  36.0117412  46.2977028  22.4711490  72.5982046  10.2132821  52.9249144
  72.9649782   9.8999643  52.0981455  71.6506815  10.1441813  52.8080559
  39.4056749  33.2437658  23.4494090  39.2121243  32.3387218  23.6936736
  38.5491014  33.6323595  23.2719088  61.6697407  66.6806078  25.1786351
  61.9648314  66.3191128  24.3428874  62.3828983  66.4889622  25.7876563
  64.7455406  23.5640121  39.3826056  63.8433981  23.5349345  39.7012401
  65.0365877  24.4567251  39.5685911  83.4760380   7.8411573  40.6943893
  84.0211868   7.5702131  39.9557185  82.5793648   7.7821565  40.3646421
  73.6369228  74.5094776  16.9600546  74.0531397  74.8493099  17.7522087
  72.7272177  74.3552589  17.2147799  32.7926946  38.5026932  28.6587214
  32.1750426  38.7659359  27.9764915  32.5492668  37.6007271  28.8671279
  18.4723067  76.4023829   9.0352327  18.4676778  75.4590845   9.1977066
  18.3191037  76.7942619   9.8949951  62.7863693   8.4275800  33.0406237
  63.4274483   8.5286504  32.3370337  62.0081568   8.8856900  32.7232099
  18.4001124  26.3509297   1.9911258  17.6142406  26.6108441   2.4718362
  19.0700853  26.9739175   2.2726449  41.1666203  45.9098673  40.7637787
  40.7977438  46.7617369  40.5303717  40.4405689  45.2960110  40.6530619
  60.0009203  57.4450922  25.9638667  60.1772451  57.7578402  25.0765491
  60.3340387  56.5477657  25.9721613  44.7401619  67.2108746  44.3596697
  44.3944597  66.3611364  44.6329117  44.4978809  67.8070879  45.0682354
  55.1320171  67.3804474  21.9395638  55.7319403  68.0634212  21.6397905
  54.6918154  67.0821047  21.1436701  51.2077618  79.1394711  34.0717363
  51.5762663  79.0174675  34.9466920  50.5692577  79.8447847  34.1769814
  28.7134790   8.1516039  52.7825546  29.2223096   8.7546158  52.2406149
  28.3948183   7.4892420  52.1693945  24.9705863  73.1555462  19.0282643
  24.4926620  72.3402691  19.1803932  25.8829021  72.8834152  18.9289773
   1.9276327  46.9730091  13.2716739   1.9057837  46.6104507  12.3860633
   1.3548416  46.3986206  13.7798262  26.5071011  65.5451107  42.9150248
  25.9144306  65.3752804  42.1828127  25.9737396  66.0251760  43.5484982
  43.6805916  30.2869010   8.2557678  43.4784985  31.0657167   8.7742627
  43.1085777  30.3531456   7.4911457  25.1513481  53.3743143  22.9374981
  25.7118082  53.4065199  23.7127924  24.4837093  54.0415049  23.0967116
  37.6493144  57.1539211  13.4682000  37.2689319  56.3411856  13.1350374
  38.1016135  56.8951750  14.2711353  64.0572882  36.3401747  59.0954733
  64.6528912  36.0999942  59.8052645  63.2925320  35.7791376  59.2243576
  35.2769923  45.1496220  40.1542711  35.3106880  46.1007833  40.0523758
  35.9514999  44.8210192  39.5598841  21.5147233  24.4585729  46.7668724
  22.1767378  24.8890495  46.2258959  21.9491315  24.3144107  47.6075506
  50.8814621   3.7650409  27.6775503  50.9490395   4.5688653  27.1622539
  51.6721630   3.2724091  27.4576855   3.1789756   2.8474000  11.1791098
   2.9445750   2.1294911  11.7672384   2.8502914   2.5727835  10.3230810
  72.7200508  37.4543452   5.5486274  73.1943989  36.7430878   5.9791362
  72.7592802  37.2388411   4.6168277  64.6059179  53.5301924  37.9259968
  64.7434855  53.3520889  38.8563657  63.8587141  54.1280699  37.9045153
  51.0099363  66.3399506  17.5511825  51.2340689  66.9282961  16.8301785
  50.6121588  66.9091511  18.2099771  45.7217360  77.6650238  13.5363984
  46.6361904  77.9325342  13.6282933  45.2477264  78.4818888  13.3805645
  73.7943029  10.3777337  11.8459475  74.0669012   9.7811025  12.5430501
  74.0539360   9.9359715  11.0374498  67.3874950  63.5648108  29.6181130
  67.6028872  63.8886070  30.4927516  68.2193422  63.2437515  29.2699981
  29.2736363  27.2590232   4.1205087  29.6279955  27.4822044   4.9812356
  29.4800615  28.0163980   3.5727835  77.4036551  28.1636000  66.0547113
  78.2806015  28.4430552  65.7918453  76.9257259  28.9800453  66.2004280
   9.5451325  60.3049517   8.8574320  10.4979360  60.3794479   8.8040638
   9.3540221  60.3431273   9.7945827  15.1118612  46.8464899  39.5528316
  14.5968211  47.0781946  40.3256702  15.9494114  47.2918653  39.6808171
  26.5368342  39.8501182  31.4239573  25.5923748  39.8152113  31.5756559
  26.6227818  40.1235819  30.5106878  22.7692723  53.9868975  44.3130684
  23.4066081  53.3425188  44.6209812  22.7396870  54.6451807  45.0073481
  76.3824320  67.5139856  58.2992458  76.9768572  66.9625282  57.7905321
  76.9012785  68.2884216  58.5166693  19.8107195  45.6505871  25.4556942
  20.0197506  44.7171926  25.4194379  18.9443862  45.6864405  25.8611727
  15.5339825  59.8533535  10.8126092  15.1444113  59.3361855  11.5175927
  15.6254375  59.2371225  10.0858855   1.8571694  28.5259867   8.8379914
   1.2485634  27.8196359   9.0545547   2.6035374  28.3861423   9.4207525
   4.3295208  29.0465832  58.3675957   3.4913015  29.4367623  58.6153460
   4.4469428  29.2936921  57.4503279  52.3258400  60.6815434  24.5291972
  52.0665073  60.3712654  25.3967834  51.9001770  60.0768328  23.9214444
  70.2309322  48.9214754  36.1092854  70.0879192  49.2545605  36.9951940
  70.3547573  47.9793596  36.2247086  61.6244888   0.6151105  21.1891389
  61.4254236  -0.3211603  21.1901927  61.9878483   0.7836977  22.0584941
  14.1791058  20.0904226  59.3478823  14.3030703  19.9421966  60.2853775
  13.8455617  19.2569888  59.0156651  30.0213504  43.0611277  18.5613191
  29.8893929  43.9763498  18.8086855  30.8167911  43.0692148  18.0289280
  65.6553030  56.8251181  49.0878773  66.1486578  57.6239920  48.9017725
  66.0049820  56.1791992  48.4740829  19.3532991  52.2296953  40.3574753
  19.8678565  51.7071342  39.7423363  19.9911380  52.5397539  41.0003281
  41.6473436  56.8250608  13.0528474  41.8815947  57.0252228  13.9591002
  41.1622429  57.5947094  12.7552736  23.8324451  76.1589050  27.4323201
  23.5608339  76.9429111  27.9096031  23.0174327  75.6851435  27.2663856
   0.3100543  58.7146759  52.0667934   1.1513360  58.9433765  52.4619818
   0.4301610  57.8198576  51.7488241  18.4875000  10.2313852  52.2048187
  18.7405026  10.4235804  53.1077480  19.2963576  10.3317273  51.7029095
  56.1082602  16.3596082  15.1443231  55.1944065  16.4645362  15.4090869
  56.3542652  17.2137082  14.7890377  77.5400972  65.5006075   9.4083315
  77.4079323  65.6493521   8.4720415  78.2983685  66.0403061   9.6318966
  45.4824591  48.6807632   6.8805838  45.9184408  48.7492037   6.0311913
  45.9881639  48.0223513   7.3570132  22.3849964  19.3160486  18.7602377
  22.1428609  19.7330236  17.9333556  23.1412053  18.7715137  18.5414624
  33.7693930  38.5369277  65.7316875  34.2773247  38.1093526  66.4211941
  32.8690290  38.5272861  66.0564709  13.5481632   8.1722772  36.2829709
  13.7380350   9.0941131  36.1086178  12.6109993   8.1532800  36.4768672
  31.3893509   3.4991002  28.8359809  31.3869023   2.8660986  29.5539880
  31.7395902   4.3006998  29.2245722  15.5208099   9.6509439  68.1768036
  16.1058593   9.0484446  68.6360931  16.0967934  10.1478946  67.5958443
  75.1549006  50.0394392  40.5927038  75.5986643  50.5705214  39.9314499
  75.8407784  49.8196363  41.2231684  35.8024740  24.0385222  19.0273654
  36.4785600  24.6852875  19.2294431  35.0598288  24.2886138  19.5770609
  46.7618752  60.5758524   1.0934769  47.4928045  59.9712610   1.2217094
  47.1773529  61.4185333   0.9104497  43.8588095  51.3995504  40.8684731
  43.0971909  51.0194874  41.3063335  43.4886885  51.9435310  40.1732588
  59.6910572   9.3346649  35.5684304  58.7587070   9.5487303  35.6020403
  59.9697018   9.3335354  36.4841747  57.4046469   0.3668470  41.2047100
  58.1263256   0.1949003  40.5998516  57.8263378   0.4684833  42.0579863
  11.5578723  64.8048925  67.7645493  11.6045690  65.7151175  68.0570316
  11.4238238  64.8638535  66.8186188  13.4011340  57.5020266  18.9819884
  13.0384564  58.3431149  19.2599666  14.1513491  57.3619986  19.5597422
  35.9189415  72.7914333  31.1560202  35.3629327  73.4839106  30.7988572
  35.4186106  71.9872332  31.0175991  29.2739439  52.5701475  41.0898590
  29.4185948  51.6502476  40.8682823  28.3236408  52.6787996  41.0530663
  37.1655536  36.3147807  23.3497572  36.7510104  36.7250466  22.5907636
  37.0388293  35.3758430  23.2134962  53.5150671  10.5830908  43.5001516
  53.8206959   9.9672741  42.8341246  54.2730522  11.1402118  43.6770821
  56.7683506  56.6280699  28.2952309  57.5419283  56.2050486  27.9225874
  56.9742346  56.7277622  29.2246962  31.0484624  26.2851024  68.2848883
  31.6777682  25.9689498  67.6366234  31.3947582  25.9800386  69.1234875
  47.9259872  61.3635111   5.6196874  48.4921217  60.8961296   6.2339175
  48.0224991  62.2853041   5.8588916  46.1280632  52.9771614   4.7270191
  46.3488436  53.3655405   5.5735695  46.9696856  52.7036858   4.3621695
  22.4088645  48.2659101  33.0022383  22.6304841  47.4152851  33.3811235
  22.9241085  48.8947392  33.5075402   4.8331571  47.8283072  61.6109610
   3.8910970  47.7898121  61.4458179   5.0318861  48.7639427  61.6474533
  14.6288955  68.7311506  43.8333702  14.7534585  69.6796799  43.8650322
  13.8871777  68.5674095  44.4158459  13.5942817  19.0232384   7.9322058
  12.7836990  18.5967815   8.2102752  13.4737921  19.1790724   6.9954938
  38.8884234  60.1742077   5.3000385  39.6221113  59.5720911   5.4241085
  39.2140794  61.0169411   5.6162375  47.2589064  53.5733652  45.2630758
  46.7851973  52.9507113  45.8145571  47.8566074  53.0310249  44.7484350
   4.2035064  11.1395991  55.8455420   3.4328985  10.6026065  56.0300207
   4.9444994  10.5476511  55.9749937  18.8946378   2.2800894  36.1834216
  19.2691755   2.4213074  35.3139329  19.6338975   2.3843482  36.7824697
   5.3470391  17.9381049  55.2298689   5.4138386  17.3083186  55.9476042
   5.5959725  17.4407279  54.4508457  29.3770337  52.5781679   3.2027733
  30.0136423  53.1208611   2.7375364  28.5388803  53.0186987   3.0625397
   7.7191663  10.6053376  62.8483486   7.8605783  10.5843437  63.7948132
   8.3333802   9.9590892  62.5000143  50.9292793  61.4280701   6.8093419
  51.0462141  60.4863596   6.9347918  50.6414175  61.5147161   5.9005737
  19.9389338   4.4169247   4.4003358  19.3994129   4.6915963   5.1417559
  19.3774724   4.5437881   3.6355498  13.5455608  54.5410776  25.6469893
  13.7201428  54.3376207  26.5658784  12.8347826  55.1816082  25.6743574
  52.2436237  72.2279119  22.6691461  53.1464863  71.9990349  22.8898048
  52.2164154  73.1826687  22.7318001  23.5545325  37.0178223   9.4117290
  24.1379595  37.6218057   9.8711294  23.6416578  36.1919832   9.8877871
  12.2805023  73.5410976  33.5261750  12.0219862  73.7326002  32.6246619
  12.6849413  74.3512201  33.8365960   5.0540125  61.4464045  51.0902119
   5.5097622  61.6877127  50.2838039   4.1357708  61.3670635  50.8318138
  68.3664942  52.2929144   7.6650220  69.2413473  51.9180346   7.5633997
  67.9696846  51.7863512   8.3736593  46.2701845  73.6232281  24.3662238
  45.5316639  73.7268305  24.9662948  46.0520935  74.1809273  23.6194706
  55.6712818  56.0806656  38.5209823  56.4284611  55.9435081  39.0902781
  56.0439682  56.1681747  37.6436687  17.3462200  16.5098846  66.0745430
  16.9818592  16.0787237  66.8475723  18.1953323  16.0880816  65.9429264
  24.8547626  18.0840051  18.4302115  25.0198627  17.1565068  18.5996854
  25.2483273  18.2445323  17.5725579  10.7448769  25.0636530  17.2909200
  10.1909435  25.8347011  17.1689618  11.6332030  25.4145145  17.3542082
   5.0051588  30.9079337   2.6960307   5.0294220  30.7742810   3.6435431
   4.6083763  31.7720604   2.5861216  83.7512684  50.6898403  17.9810202
  83.8717937  50.0399733  17.2886467  82.8026295  50.7428455  18.0972481
  44.3424225  68.0393744  37.6035261  43.6015177  68.6437702  37.6482582
  43.9721870  67.1887493  37.8393126  51.2079716  68.7609816  11.3273513
  51.6223049  68.8666296  12.1837378  50.5454683  68.0836964  11.4637268
  16.0877073  73.0213165  31.7192221  15.3708363  72.9723406  32.3516226
  15.9321022  72.2883797  31.1235499  41.6965342  62.8447151  24.9790788
  40.9640074  62.2729301  24.7495151  41.6234112  63.5824490  24.3735790
  39.2286754  25.3875828  62.6278114  39.0609384  26.3132119  62.4508810
  39.6070623  25.3765178  63.5069752  19.2916059  68.6381197  47.7712059
  19.7602785  69.3273115  48.2419395  18.5148299  69.0735197  47.4200964
   2.7670509  11.9666469  20.8846593   2.4216384  11.9898701  19.9922574
   2.3874080  12.7363420  21.3085365  34.4115305  32.5286508   2.1412052
  35.0210071  32.4253225   2.8720236  33.5805202  32.1881080   2.4723852
  35.9456372  68.4947634  25.6869698  35.9050655  67.9723883  24.8859000
  35.0500584  68.4852505  26.0247254  38.1630564  67.4038315   0.8971762
  38.5511565  66.7213345   0.3496296  38.9020205  67.7703571   1.3827941
  44.6828651  64.5035934  31.8545032  44.0003014  65.1739979  31.8844652
  44.4095182  63.9147520  31.1510992  47.8831100  42.9949903   4.8739421
  47.2303152  42.8144312   4.1975635  47.4222326  43.5391855   5.5124348
  41.4626884  39.7704959  66.6816759  42.4149084  39.7649956  66.7790270
  41.2111616  38.8484669  66.7348528  75.7403660  72.1276617  38.1891251
  75.1202250  71.4263058  37.9897261  75.3932142  72.5360203  38.9821959
  37.3741412  63.4352493  18.9100146  38.0711794  64.0383530  18.6518812
  37.8166962  62.7683115  19.4349635  35.6532788  23.3861852  53.5103273
  36.4570284  23.4001780  52.9906893  35.1427436  22.6649117  53.1424284
  31.7171955  33.9752507  16.0347366  32.3974609  33.6549973  15.4423618
  32.1782494  34.1548228  16.8541360  43.6598682  64.1332769  26.3627720
  42.9574633  63.7133360  25.8662796  44.1938353  64.5703745  25.6994033
  61.5633678  22.1003079  10.4060245  61.4453936  21.3508701   9.8223662
  62.1212530  22.7021432   9.9132812  21.8122053  29.2572284  60.5331945
  21.6282105  28.7077975  61.2951040  21.5794826  30.1421523  60.8142328
  10.9992313  47.5877333  51.6811514  10.4063845  48.1398773  51.1713505
  11.5675068  48.2063770  52.1400404  75.2571726  77.2711372  59.9867058
  74.4692421  77.7276421  60.2816677  75.0605774  76.3438034  60.1194954
  80.2765751  65.1605177  44.2554569  80.7435703  64.4040775  44.6103525
  80.9443378  65.6509256  43.7760592  60.3468752  19.4279647  35.5838609
  60.7434988  20.2596283  35.3245211  60.3537560  19.4474351  36.5408373
  67.8141117   6.0289305  25.1538587  68.5817480   6.5764052  25.3189063
  68.1751394   5.1925910  24.8598742  78.6294174   0.8328898  15.9511304
  78.2773113   1.4914881  16.5498781  77.8929186   0.2456246  15.7810795
  16.0468400  11.7339158  39.3385649  16.9775009  11.5105939  39.3536782
  15.6057882  10.9435761  39.6501231  70.8989382  51.0506535  34.6499133
  70.1321745  51.5456438  34.3613029  70.5371904  50.2567101  35.0436521
  81.0281086  69.2207289  59.0766144  80.7347679  69.9222326  59.6580553
  80.4426289  69.2751265  58.3213091  42.4089193  37.1185017   3.4811619
  43.2234764  37.5242805   3.1843972  42.0728779  36.6633892   2.7090350
  83.4774113  66.0683060  45.5165720  82.8468418  66.7858648  45.5775166
  83.7582588  65.9189224  46.4193678  26.6677356  37.9295921  61.5179968
  25.8712411  38.2214117  61.0745192  26.8286014  38.5968804  62.1851397
  38.6368251  60.3098583  31.5671706  38.4380698  60.7090092  30.7201719
  37.7999878  59.9547148  31.8668532  55.9510183  61.0784817  22.1224523
  56.4639759  60.3700256  22.5112939  56.6043186  61.6706085  21.7498612
  23.3073854  42.8740692  65.8400440  22.8637671  42.9679871  64.9970675
  24.1883659  43.2153940  65.6864214  58.4338045  66.7833948   6.8964112
  58.1333351  65.8964825   6.6980821  57.8560591  67.3515558   6.3868636
  74.4046450  13.7321711  41.4549589  75.2553129  13.4551930  41.1145544
  74.1119766  12.9977810  41.9946337  64.9906921  14.5352173  42.4503803
  64.9163771  15.2072299  41.7728043  65.5502224  13.8632810  42.0609474
   7.9211402  71.6342211  44.5813465   7.9647404  72.4217606  45.1236677
   8.2665694  70.9386635  45.1409054  24.2141867  75.6054306  38.3013272
  24.8224545  75.6730795  39.0373063  23.4327483  76.0753489  38.5924673
  70.4156590  62.5880432  56.5048933  70.3786898  63.5400248  56.5976048
  70.0213623  62.4151611  55.6499815  50.2467966   6.4300185   9.2522603
  49.7548723   7.2488153   9.3140262  49.6235037   5.8032614   8.8849550
  32.8760576   9.7303140  39.4184875  32.4946523  10.5977249  39.2829871
  33.2168412   9.7555250  40.3126144  34.0161037  63.6268997  16.0607469
  33.3719707  62.9193640  16.0339332  33.8526297  64.0681648  16.8942904
   2.5018337  26.8634462  45.3720284   3.3057469  26.5896487  44.9304533
   2.2236569  27.6475000  44.8986292  16.4349234  77.7718258  20.9457874
  15.6823635  77.1855164  20.8675218  17.0531154  77.2953939  21.4999390
   9.8254120  13.6437464  47.1990585  10.7099211  13.4024096  47.4740696
   9.7481453  14.5702064  47.4269438   6.1246252   3.9215758  32.3890567
   5.6501842   4.7256324  32.6003170   6.6284156   3.7261239  33.1791377
  61.0481834  77.9153728  17.2934365  60.5483341  77.8378057  16.4808071
  61.6778040  78.6155367  17.1214461  46.4407158  67.2897673  42.2284985
  45.9743547  66.9609690  41.4599705  45.8178282  67.1883440  42.9481888
  62.7795601  60.9816504  31.6000628  62.0030355  60.4238415  31.5543509
  62.5173140  61.7117786  32.1607518  59.2672110  78.6511374  24.9386120
  58.6539125  79.0240002  25.5719137  59.5141745  77.8057432  25.3135037
  47.6555967  67.1794558   6.2889260  47.8877926  67.6504707   7.0892167
  48.4806395  67.0992470   5.8102822  32.3332095  19.7438824  58.8366461
  33.1810331  19.8861945  58.4157228  31.7153001  20.2478838  58.3071136
  23.7723160   9.7337836  64.1741514  23.0029702   9.7673589  63.6056328
  23.6974359  10.5131698  64.7247696  48.8382339  61.7367458  22.3498750
  49.6426392  62.1335506  22.6841021  48.9004564  60.8166885  22.6065040
  36.6155982  50.2600574  13.7347865  37.3756552  50.7207680  14.0901649
  36.3693118  50.7660294  12.9604697  76.6876793  25.7173896   5.6810993
  77.1036911  24.8827124   5.8967000  76.7185736  26.2180400   6.4963466
  54.7014189  75.9399986  59.3637991  53.7555027  76.0815144  59.4018316
  54.8883343  75.3690386  60.1089859  72.1604681  19.5956397  36.1161089
  71.6975164  20.0019670  36.8487787  71.4802980  19.1248095  35.6345320
  65.8940172  40.0329494  49.6451569  65.0252390  40.4100132  49.5063066
  66.2390471  40.5001020  50.4060507  36.7371750  40.5297089  16.2242365
  35.9240580  40.9641886  15.9667444  37.4295759  41.1041594  15.8974135
  25.0892639  15.1613104  66.0364532  25.7481122  15.8317113  65.8555841
  25.0295925  14.6587789  65.2239656  28.7625289   9.5333326  59.5011616
  28.3696675  10.2691340  59.9707222  28.4041834   9.5954609  58.6157465
  62.0537663  21.1853194  30.2929020  62.8616714  21.3471913  29.8057461
  62.3309088  21.1396861  31.2079668  63.0038977  22.6937199  65.8737183
  63.5438490  22.9977775  66.6032600  62.3044920  23.3437252  65.8062029
  65.3103876  74.7200203  24.7913265  64.4090366  74.9982262  24.9537992
  65.8335829  75.2297592  25.4099250   6.7396039  19.6514213  56.7822695
   6.8848020  20.3646493  56.1606169   6.1073011  19.0794754  56.3471794
  23.8475418  37.8643918  31.0421348  23.8763642  37.0183921  31.4890003
  23.2404709  38.3899331  31.5631938  52.4516010  10.7894897  26.1460376
  52.2821283   9.8781943  26.3848901  53.1918955  10.7447863  25.5408955
  35.5441332  64.7541857  31.2219763  36.3557363  65.1044035  31.5892363
  35.3501654  63.9859247  31.7589879   1.9102685  15.9334970  27.4866605
   1.6331914  15.2940619  28.1428480   2.8663352  15.8880150  27.4966574
  76.3149452   2.9330212  10.4973948  76.1356115   2.0567729  10.1564264
  75.4829311   3.2178789  10.8753324  27.9999828  67.5223255  12.9570532
  27.8702188  68.4283781  12.6769471  27.8111672  67.0010281  12.1767771
  40.2895260  29.8521829   6.8857783  39.8901224  30.6524062   7.2268832
  41.1211157  30.1409698   6.5098953  67.1174002  72.8849936  27.6721311
  67.0536470  71.9300175  27.6583648  67.6171446  73.0802727  28.4648156
  23.5712957  76.6815424   6.9819462  22.7625060  76.5099669   7.4642861
  23.9010954  77.5008154   7.3510712  56.6733360  56.3608503  31.0976672
  57.3533201  55.6921148  31.0161543  56.7557573  56.6778564  31.9970798
  62.2792625  16.0610759  11.4052832  62.5446320  15.8869755  12.3083329
  62.6239634  16.9342959  11.2184644  37.0450735  54.9701214  41.0967445
  36.2264299  54.8790359  40.6091404  37.3691225  55.8392715  40.8605099
  31.6182899  52.7533484   7.2628421  30.8556700  52.5857449   7.8165114
  31.4288712  52.2892714   6.4473766  38.1054616  32.2567391  58.6492395
  37.9288054  33.1954789  58.5876703  37.5499916  31.8638277  57.9759598
  62.2848606  61.3586330   8.7423795  63.0884123  61.1812973   9.2313439
  61.5935373  61.3438654   9.4042587  40.7298946  65.6066990   6.1828828
  40.9085321  66.5166759   6.4200836  39.8417997  65.6220961   5.8261216
  40.7623577  68.5680294  57.4942970  40.0335646  68.7497854  56.9009542
  41.5440083  68.7917852  56.9891357  52.9826450   4.2348334  13.9101470
  52.5444221   4.6205017  13.1515610  52.8163052   4.8523086  14.6223879
  74.5701694   1.9928932   1.8274669  75.2246809   2.2829337   1.1920750
  74.3243361   1.1154117   1.5345077  37.9349232  45.8274174  16.4529049
  37.9120970  45.9251070  17.4048328  37.5064731  44.9874926  16.2879896
  65.5732584  17.2577810   9.5199209  66.4597607  17.3417258   9.1687888
  65.5004072  16.3363302   9.7686201  52.2147942  62.5964928  16.7875707
  52.9800129  62.5697613  16.2131524  52.5022936  63.1047297  17.5460362
  48.7604427  56.5074778  40.6244278  48.9509869  55.7552767  40.0639677
  48.3227587  56.1321115  41.3884735  57.2182846  71.7881203  41.1447287
  57.8930807  71.4788103  41.7490578  56.5806389  71.0749626  41.1123514
  82.1206665  25.5818009  16.5207362  81.5150833  26.2957025  16.7203331
  82.3738384  25.7301569  15.6096220  54.4910765  65.9830332  34.4442368
  54.9189234  65.2260733  34.0439987  54.9415016  66.0980797  35.2809644
  76.7768526  66.0777235  46.1441851  77.2309017  65.3922129  45.6541300
  75.8672810  65.7820606  46.1828518  36.3788581  75.5597448  12.9892361
  37.3220992  75.4024363  13.0314600  36.2018466  75.7063484  12.0600390
  17.2673643   3.3928043  43.9121008  16.6989851   3.2888219  44.6752262
  16.8634164   2.8480616  43.2365894  19.5368016  53.7695980  66.0851669
  19.6797860  54.7131348  66.0108280  20.2182031  53.3801794  65.5371952
  22.5803137  12.1930242  61.0164404  23.2708001  12.3930204  61.6484690
  22.9893708  12.3331571  60.1624680  53.9817286  52.9402161  10.0404060
  54.4090557  52.0973825  10.1928866  54.3820000  53.2695913   9.2357147
  58.3300447  68.8450718  32.4052119  59.0004587  69.4757748  32.6678705
  58.4716272  68.7219763  31.4665771  11.4290142  15.6527400  53.3627367
  11.1385679  15.5310524  54.2666531  10.6203532  15.6633556  52.8506994
  68.3783054  20.8023357  46.4387655  68.1573486  21.7182803  46.2700796
  69.2798328  20.8285642  46.7593813  59.2851448  70.9703541   5.9385765
  58.7508726  70.3107357   6.3809466  59.0318489  71.7976665   6.3480073
  55.3635836  70.1399803   3.6811993  55.8637238  70.9029579   3.9709428
  55.4045630  70.1755476   2.7255386  75.2760124  54.8417902  35.3980064
  74.8011351  55.6400156  35.6294489  76.1756992  55.0082874  35.6792021
  51.8553543  38.1293654  12.0834339  51.0438299  37.6521945  11.9103098
  51.9890022  38.0401707  13.0270505  56.9862795  20.9067035  15.5128574
  57.8038836  21.3827324  15.3674328  56.8115616  21.0109138  16.4481902
  73.2339191   9.3291324  67.6785707  73.1330919  10.0927114  68.2469130
  72.4595118   8.7950289  67.8553820  64.1317415   2.6184753   0.7879091
  64.1184235   2.0235930   1.5376887  63.9628887   2.0554608   0.0324388
  13.6538863  41.2493753  60.2696991  13.1772840  42.0430708  60.5128574
  13.4658456  40.6312418  60.9759426  69.8777008  65.1798868  25.7220125
  69.2417049  64.5325184  25.4176188  69.9168873  65.8267641  25.0175619
  81.8025398   4.0110278   3.0226022  80.8582211   3.8546905   3.0297577
  81.9938278   4.2809510   2.1243912  13.1886268  23.9451027  56.8537617
  12.7765334  23.1457829  57.1816254  13.9596486  24.0620875  57.4088001
  46.2077236  48.1241512  44.4649220  46.8475962  48.8037872  44.2530489
  46.5844679  47.6664019  45.2164268  59.1179800  68.7404203  29.7055817
  60.0467062  68.5177517  29.7696877  59.1099262  69.6622229  29.4477940
  69.7334719  63.6807346  13.8724196  69.7799063  63.1897879  14.6928155
  69.2239571  63.1207657  13.2867050   0.5207632  18.3350289  33.8251758
  -0.0781476  18.9894044  33.4655499   0.5499669  17.6463866  33.1609821
  21.5779328  18.8721919  62.5993586  22.1549845  18.9871442  61.8443537
  21.0641813  18.0917454  62.3915243  40.5712318  53.6847019  40.6311083
  40.0538111  54.1610050  39.9817657  39.9236703  53.3318567  41.2413549
   5.6568044  20.0935555  61.8918753   6.5625644  19.8452544  61.7070055
   5.2945954  20.3311181  61.0382938  69.8854733  72.7535152  37.1637011
  70.4480982  72.2421789  36.5821338  70.3650188  72.7881479  37.9913902
  54.2289543  44.2123079  55.5561352  54.4053268  43.3857536  56.0055017
  53.7799120  43.9559317  54.7506142  63.4033155  75.6691313  35.0751281
  63.6860418  76.4733601  35.5104589  63.0790567  75.1141262  35.7843924
  21.4055037  17.3793375  54.4517517  21.1216235  17.3954105  53.5377550
  22.3024917  17.0469010  54.4181395  20.1589203  35.5804825  38.5226822
  19.4985616  36.2653494  38.4172463  20.7110190  35.6582904  37.7446294
  80.1211834  15.5524492  24.6704006  80.3164291  15.7542849  23.7553215
  80.1789951  14.5984364  24.7228479  10.1831269  39.6648860   3.6933494
  10.4351187  40.1813698   4.4588405  11.0140908  39.4066000   3.2945788
  68.6195946  54.1771746  60.1173306  67.7851868  54.5500374  60.4018831
  68.6393213  54.3276978  59.1722441   8.1439948  70.8116245  22.9069233
   7.9523700  70.8146286  23.8447428   8.6714798  70.0242281  22.7727652
  66.1494875  23.7595201  33.8510060  67.0788622  23.7334704  34.0786457
  65.7092381  23.3468676  34.5940590   7.4970573  17.0335221  39.1181326
   6.7778558  17.6414645  39.2895603   7.4891961  16.4362144  39.8660588
  61.8915558  69.0858841   4.2213178  62.1805716  69.6019459   3.4687352
  62.6808882  68.6334896   4.5188579  57.7705956  15.2092135   8.9233941
  58.1055021  14.4427502   9.3888015  58.4031200  15.3579164   8.2205212
  77.3570871  35.2313566  15.5127263  76.6388655  35.8500671  15.3800964
  77.0769310  34.6945119  16.2540388  79.7752953  72.9249716  48.1849480
  79.8607635  72.8419113  49.1347027  79.4691277  72.0653391  47.8959322
  72.5993776  72.5676537  22.1361566  73.1790161  73.3292341  22.1516609
  73.1770277  71.8235159  22.3058867   8.1115007  10.1913762  24.0886688
   7.2542065  10.5266178  23.8261986   7.9485154   9.2794919  24.3297839
  21.7642617  15.7200420  32.3155499  22.1754766  15.3048003  31.5574551
  21.1586809  15.0592232  32.6514387  64.0551615  69.1443300  25.8758521
  63.9894485  68.7397766  25.0108361  64.0448523  68.4072065  26.4864087
  17.2940528   6.9866687  23.0926847  17.1714449   6.5345824  22.2579288
  16.7857218   7.7930146  23.0052924  16.8940246  73.5415316  25.9325147
  16.0783172  73.8062572  26.3576913  16.8160081  73.8722992  25.0376773
   3.5485980  30.0515318  29.9990463   4.2710489  29.7712159  29.4371557
   3.9458641  30.1616240  30.8629274  38.2959986  69.1512775  38.4291291
  38.8245010  69.7253799  37.8747654  37.8328919  68.5834980  37.8131843
   3.5498682   7.7061856   3.2837927   2.8785399   8.3364040   3.0223069
   4.3615311   8.0535793   2.9139924   4.5347682  43.0753660  10.6068003
   5.4067463  43.1140995  10.2138805   4.5350760  42.2615671  11.1107433
  68.0651188  15.6283283  58.4996748  67.9973221  16.5814114  58.5568571
  67.3113871  15.3658724  57.9712439   3.0682939   4.0639952   5.2778697
   2.5511494   4.8122010   5.5761677   2.9630044   3.4095129   5.9683764
  46.0405540  26.2567735  48.5257816  45.9135342  26.8693113  47.8012848
  45.1943684  25.8195710  48.6209393  32.0626831  57.1315098  38.0738974
  31.2313700  56.8252087  37.7115035  32.7276993  56.7635870  37.4919868
  41.7059565   4.3373010  40.0266027  40.9662914   4.4459015  39.4288254
  42.0579624   5.2207923  40.1350737   5.7755804  64.3293476  33.8958335
   6.6984487  64.2187834  33.6670947   5.5013609  65.1099300  33.4144545
  61.4664745  11.4312744  15.2421105  60.9092426  11.0377800  15.9135914
  62.2232008  11.7648315  15.7241249   1.4188470  78.5942936  53.6654615
   0.6373366  78.0968237  53.4246349   1.6586587  79.0648746  52.8671694
  37.9716921  33.8206148  67.2039318  37.6351810  32.9748440  67.5000143
  37.2181058  34.2496157  66.7985916  53.7917089  27.1130133  51.5312052
  53.3323622  27.7524781  52.0755577  53.2873440  26.3058233  51.6326618
  48.6341333   1.4275248  31.5096688  49.3865395   1.2711073  30.9390116
  48.2629061   2.2521396  31.1959291  56.6525888  75.5097675  49.1229773
  55.8876085  74.9387598  49.0524054  56.7181683  75.7079601  50.0571346
  72.4475813  34.5751572  38.9238214  71.7955351  33.8965964  38.7488365
  73.0085993  34.5739198  38.1482625  14.0676606  62.8275681  65.1541758
  14.0638733  63.0213451  66.0915470  14.2044210  61.8814278  65.1057386
  75.9709120   9.2367983  64.9820280  76.5282297   9.9130899  65.3670740
  75.0779963   9.5376235  65.1506662  33.9711213  61.9672298  21.7696381
  34.4517326  61.9984341  20.9424305  33.7179494  62.8755951  21.9339633
  60.3671646   6.0383976  36.1415696  60.9521389   5.9100616  36.8882728
  60.3565407   6.9858468  36.0057020  79.3343449   0.7935124  48.1328344
  78.7829256   1.0573781  47.3962593  80.2264977   0.9886549  47.8461027
  51.9070196  20.9774518  19.8810267  52.0029116  20.8801746  20.8284307
  52.0764971  21.9051623  19.7171390  71.0123396  75.3386688  65.7251787
  71.3384819  74.4482136  65.5949783  70.0604630  75.2428961  65.7566547
  39.7386646  37.2606993  65.0384760  39.2649555  37.8310609  65.6438875
  39.4056582  37.5001764  64.1736126  66.8319654  31.5158629  65.8031082
  66.7468882  32.0300579  66.6059780  66.1855793  31.8939638  65.2069044
  66.3833284  77.4125051  59.3856955  66.5580797  76.5062237  59.1320372
  65.4288244  77.4690390  59.4299603  38.7303495  32.8892541  15.7844496
  39.4398642  33.4448242  16.1071932  38.6370659  32.2085595  16.4509201
  44.5430231  12.9807234  25.5528498  43.6839247  12.5615537  25.6026196
  44.5244265  13.6473083  26.2395453   1.4457817  67.8835392  38.4195757
   1.4186737  66.9776487  38.7275600   2.3062930  67.9715109  38.0096817
  40.1590252  68.0032206   2.7283865  40.0178480  67.1270084   3.0869368
  41.1101198  68.0810213   2.6535952   1.1455826  54.9762821  21.2826252
   0.6780074  54.2649841  20.8448386   1.1056746  54.7525454  22.2124529
  30.8748770  27.3751044  23.2905817  29.9985433  27.5452256  22.9451370
  31.0504007  28.1142020  23.8729572  71.6757154  77.5699902  21.1580229
  71.0494041  76.9893122  20.7258439  71.2025166  78.3950424  21.2657166
  47.3295736  12.0460975  41.0456705  47.8567982  12.6289380  41.5920782
  47.9696941  11.5674746  40.5189848  50.6455946  10.9466851  14.0061677
  51.2811995  11.6432166  14.1707337  49.9236345  11.3831854  13.5539818
  56.2428999  69.5565987  60.9173441  57.0899677  69.7711897  60.5266237
  55.7416868  69.1646433  60.2022314  20.9538817  43.9882183  66.9653511
  21.0007739  43.8613987  67.9129553  21.8640471  43.9434576  66.6723824
  26.6434669  11.7786717  22.3795033  27.0652199  10.9408367  22.1887445
  26.4744282  11.7527866  23.3213019   0.1061295   2.1848471  44.1166401
   0.7404358   1.9879605  44.8059320   0.1713997   1.4451158  43.5126781
  56.7242241  50.5810690  60.9065580  57.0375919  50.6651402  61.8070936
  55.8621693  50.9970570  60.9131145  72.7276373  61.4668798  42.7651644
  73.6004543  61.1292648  42.5640535  72.4489641  61.9046307  41.9608355
  44.2955446  17.2957230  22.5494647  44.1406965  18.0130792  23.1640005
  43.6764288  16.6154921  22.8144407  24.8542571  22.1981955  11.2975049
  24.8175502  22.7419639  12.0843983  24.6424317  21.3169193  11.6052628
  59.1500282  57.1717644  59.0333891  59.4515705  57.1154642  59.9401045
  59.7725010  57.7631330  58.6102533  68.5025930  71.1640549  49.3777132
  67.7083397  70.8120203  48.9758921  69.1431236  70.4568148  49.3017817
  52.2588587  58.2495356  48.2682228  52.0903683  58.9767027  47.6689959
  51.9002342  58.5417223  49.1062260  78.1933832  56.5432405  40.6212044
  77.6035452  55.9932470  40.1056242  79.0623569  56.3655472  40.2612925
  50.6889105  16.7698562  12.3772931  51.3056993  16.7793918  11.6453695
  50.8195162  17.6128173  12.8115642  41.5821743  20.1926994  22.3373842
  42.1782541  19.9811947  23.0558443  40.7676172  20.4493618  22.7696490
   6.3414115  73.3234882  61.9723082   6.3524503  72.3895502  62.1817589
   6.5182924  73.7581539  62.8065777  32.6721287  28.4997535  15.7326853
  32.2540998  29.0250731  15.0503922  32.7200842  27.6189137  15.3611338
  12.8081381  53.8519096  38.1149769  13.5609281  54.4033718  37.9018450
  12.2480607  53.9013290  37.3403144  52.8262758  11.2983036   8.8410056
  53.2573366  11.4199340   9.6869516  51.9149685  11.5449131   8.9989048
  31.4212036   1.2916529  18.1995344  31.4090371   1.7884374  19.0176344
  31.3764668   0.3759453  18.4746885  74.3802643  78.9777946  37.3651338
  73.6060810  79.2037010  37.8807259  74.5001221  79.7215128  36.7745852
  41.7900801   3.8488549   0.5272742  42.4962711   4.4506696   0.2920285
  41.5523958   3.4245467  -0.2971651   6.7319113  23.1532621  27.6098561
   5.8119142  23.1649733  27.3458481   6.7348057  22.6902509  28.4476161
  37.9661989   1.9706310  68.4542561  38.3064246   1.6262838  67.6284790
  37.7024031   2.8676149  68.2491589  42.4536133  41.2915564   1.3432372
  42.4451494  40.9751081   2.2465760  41.5729952  41.6395712   1.2031082
   1.2210987  73.1783533  41.9641924   1.6194203  73.2526064  42.8314066
   0.2791566  73.1633568  42.1337557  68.9377213  24.6943164   1.9443703
  68.7360048  25.6038523   2.1641132  68.4002924  24.5091271   1.1742354
  64.9383307  66.4101696  64.8198843  65.5808830  65.7498598  65.0793934
  64.8699379  66.9891739  65.5790377  79.3769550  75.1420927  29.8476052
  78.9196920  74.3032932  29.7878790  78.7342453  75.7868338  29.5518637
   3.4527937  11.7730439  44.1252518   3.3765227  10.9946978  44.6771479
   2.5497958  12.0606315  43.9906406  46.0487986  65.0391722  49.2106676
  45.2249479  65.2354860  49.6567249  46.7204380  65.1684141  49.8803139
  11.9825256  38.5935926  23.3886647  12.8705144  38.7623692  23.0736685
  11.4422369  39.2460299  22.9429674  34.0656662  38.8877964  24.8024631
  34.9184251  38.7228966  25.2047634  34.0442514  39.8350120  24.6662402
  54.2574406  40.3543377  14.4570446  54.9581766  39.9012589  14.9260032
  53.4582329  39.8997092  14.7231412  66.3497162  51.8597269  57.8047228
  65.6672001  51.9381714  57.1381998  66.5853167  52.7636147  58.0138159
  55.4550695   4.5976362  12.9779136  55.5157089   5.5418909  13.1226158
  54.5925379   4.3582678  13.3169866  72.3717213  11.3053727  31.7224622
  72.4949884  11.6974211  32.5869465  71.4296675  11.1462700  31.6637421
  45.5501842  27.0690775   8.2742882  45.5101109  26.1589766   7.9804492
  44.6409655  27.2992897   8.4654826  19.1107273  69.6738577  35.2688789
  19.7639573  69.3936872  35.9099936  18.3536768  69.9311733  35.7950854
  37.5651407  76.8264771  62.2844601  37.0886731  76.6592789  61.4712858
  38.3413720  77.3153019  62.0110607  30.0625253  10.3417516  51.3471746
  30.1534629  10.5300903  52.2812462  30.8289409  10.7502711  50.9447479
  16.3365769  54.9322605   4.8552090  15.9186220  55.5775595   4.2850065
  16.1288667  54.0882301   4.4543335  58.8686609  54.7449827   3.7923512
  59.2058659  53.9429379   4.1914073  59.5902729  55.3698015   3.8638732
   0.0011761  23.6644101  54.1459465  -0.3312768  24.4799137  54.5209932
   0.9339043  23.6646199  54.3610001  82.4200916  41.2415028  46.5184307
  82.3772430  41.8653393  47.2431517  81.8390560  41.6082811  45.8520174
  28.3384848   1.9954355  13.8339925  27.8758430   1.2213846  13.5129929
  28.4457946   1.8384403  14.7721124  68.4640360  65.7700014  58.0322409
  67.9275656  65.6991434  58.8218021  68.7969065  66.6673088  58.0485678
  54.0412855  59.8605442  61.6315413  53.1028843  59.9060774  61.8147373
  54.3575764  59.1418123  62.1789122  56.4479733  50.3891850  65.4326200
  55.7669210  50.4359722  64.7616386  56.3303900  49.5280075  65.8335972
  53.0920935  45.1820755   3.2562250  53.8556480  45.1059484   2.6840168
  52.7148390  44.3024683   3.2704967  27.5557232  25.2709389  19.7459960
  26.8662882  25.3696918  20.4026246  27.1216321  25.4560995  18.9132226
  37.3652005  75.6050777  39.5492506  37.0623875  76.4731073  39.8158288
  36.7920899  75.3645945  38.8212776  32.2830582  38.1912589  15.9643817
  32.0077085  37.3027468  16.1901164  33.0251980  38.0688906  15.3723621
  17.2545362  37.2556520  11.7303300  17.5971270  38.1478143  11.6763473
  17.3829639  36.8962479  10.8525109  18.8409376  33.4149337  19.5234346
  19.2232382  33.2365346  20.3826499  18.3728361  34.2421579  19.6366429
  28.7219286  31.0074902  19.4532597  28.5024357  30.0782299  19.3859720
  27.9562759  31.4606190  19.1001534  25.2447891   7.6488155  63.4112644
  24.8253560   8.2895029  63.9855671  24.5935726   7.4735647  62.7319717
  22.0495176  21.0514307  22.7482533  22.4384499  21.5677047  23.4542441
  22.3236752  21.4969826  21.9466591  71.7716837  36.8568730  63.0449009
  72.2310257  36.8329024  62.2054577  72.2407007  37.5165892  63.5558176
  45.4795647  48.7243319  12.9127669  44.7997999  48.5966825  12.2510564
  46.1699295  49.2060041  12.4571168  43.9295912  63.7502289  62.0962954
  43.1803751  63.6713314  62.6867867  44.5763206  64.2492151  62.5952816
  83.2020760  14.3858707  55.2900743  82.8266621  13.7922513  54.6397543
  84.1362858  14.4083989  55.0827646  68.3184004  70.8141518  60.3761053
  68.3525038  71.7483997  60.5816412  67.7205372  70.7545137  59.6309614
  40.5265427  72.1691847  68.4012842  39.8544717  71.5151072  68.2096195
  40.2203989  72.6004744  69.1990900  44.1433287   9.1376126  16.6543925
  44.3041945   9.5146900  17.5193596  44.6790743   8.3446127  16.6354096
  57.8029776  35.1233697  17.6643896  57.8186131  36.0228992  17.3375309
  57.3700714  34.6243358  16.9717193  25.3873420  36.0953951  17.8193891
  24.6353006  35.5145621  17.7040708  25.0027990  36.9624901  17.9478574
  57.7468443  65.1170444  44.4545269  58.2668591  64.3907404  44.1105843
  57.5682688  64.8745728  45.3631258   2.4927266  77.4836826  56.1780739
   2.8808483  76.6396666  55.9473419   2.6579890  78.0395031  55.4165077
  73.6434078  53.9123869   0.5500269  73.6962366  53.0193281   0.8904499
  73.2269812  54.4121361   1.2522194  62.7087212  49.3943501  39.3013406
  63.1492138  49.4971704  40.1449203  62.3012114  50.2450562  39.1386676
   7.4012315  14.4201779  51.2811470   7.2064412  14.9586487  52.0481777
   8.1702107  14.8327839  50.8878803   1.2570262  55.8790064  51.9140434
   1.3167287  55.1907778  51.2514687   0.7203711  55.4969883  52.6085186
  51.2403774  68.3525372  59.9099398  50.3823996  67.9337645  59.9787378
  51.0601950  69.2866039  60.0161600  26.2060523  28.4467435  11.9741237
  26.2346268  29.1968560  11.3801980  25.8280230  27.7405667  11.4500642
  26.1521626  30.5295205  10.4784369  25.5674028  31.2844443  10.5445910
  26.4447427  30.5323291   9.5670527  45.0369453  37.2077775   9.4634640
  44.8752403  36.5065217  10.0945926  44.4185686  37.0377684   8.7528718
  83.9946556   1.2652729  60.3011942  83.4946632   0.9865124  59.5340347
  84.2971611   0.4491129  60.6994534  64.7637939  18.3645916  65.4783106
  64.1596603  19.0712881  65.7059908  64.6876907  18.2813597  64.5277786
  22.3912287   4.8017833  53.8663387  21.7396045   4.2415407  53.4447432
  21.9263124   5.1966149  54.6040344   5.4006672  10.2544475  51.8621778
   5.5042422   9.3527091  52.1661091   6.2884992  10.5364871  51.6420889
   9.8474377   7.9026335  36.7225838   8.9583862   8.2568216  36.7033553
   9.8775274   7.2909397  35.9869504  11.7881882   5.3265828  59.7037983
  12.5643122   5.6974185  60.1237345  11.9765234   4.3905175  59.6363926
  62.9509974  22.6187992  59.2944479  62.2012997  22.0741081  59.5342350
  63.0003834  22.5519276  58.3408642  34.0158677  29.4689584  21.8492293
  33.9450788  30.0371051  22.6163197  34.1461062  28.5925746  22.2114730
  25.7418990  53.3896208   1.0420890  26.2901497  53.0514240   0.3340806
  26.3312769  53.4488535   1.7939919  32.9832196   7.0969492  16.9027627
  33.0337691   7.2506326  15.9593332  33.7554765   7.5364172  17.2587383
  32.4025989  20.7097483   1.2378556  33.2590532  20.8118773   0.8227819
  32.3089218  19.7656119   1.3645978  17.1349144  12.8909838  59.6573353
  16.8692088  13.5193968  58.9859724  18.0581367  12.7188075  59.4722748
  64.0735531  29.6649480  13.4674478  64.0169334  28.7334967  13.6805844
  64.4333982  30.0697947  14.2566526  38.6910963   7.7137363  67.7313995
  39.0554929   7.1101826  68.3788347  37.8035951   7.3907369  67.5756979
  45.8749151  20.2914762   0.8037105  46.7680025  19.9516428   0.7476727
  45.4805803  19.8098731   1.5308905  43.8147926  59.5478344   3.9850187
  43.7627125  60.0084686   3.1475598  43.8730335  60.2448130   4.6385175
  27.8510761  28.0939722  19.9652183  27.0564628  28.0548000  20.4974651
  28.0153823  27.1853638  19.7129023  35.8788610  69.4347572  35.4605579
  35.6340146  68.8060522  34.7815776  36.7709017  69.6972799  35.2334499
  52.7777338  61.1790800   0.6634996  52.7359247  60.7682419   1.5270370
  53.6671257  61.5284538   0.6072893  57.4716949   9.6338677  53.6269236
  57.4985504   8.8230044  53.1189728  58.1732845  10.1706970  53.2583904
  51.5490866  20.4372811  14.3670571  51.4701176  19.7835398  13.6723495
  50.8750391  20.1947355  15.0019300   9.4481027  19.7682261  16.4174092
   9.5317173  19.7071469  17.3689926   9.3611646  20.7056189  16.2442911
  48.4062958  16.8529332  19.3062377  47.6487589  17.0495725  19.8573256
  48.9315224  17.6529014  19.3267667  60.9261322  50.7837534   7.3655075
  60.2678251  50.1508427   7.0786613  61.5953350  50.7599211   6.6815251
  11.1775446  18.1103563  55.9247065  11.2908983  18.3607554  55.0078201
  11.5681422  17.2385561  55.9849548  70.2655125   9.4796193  66.4914846
  70.4770327  10.0027847  65.7183170  70.0352049  10.1238561  67.1609211
  83.4703827  70.9614611  60.4000759  82.8823185  70.9448099  61.1551476
  83.4515476  70.0661373  60.0620317  42.3175478  30.7419324  18.9383984
  41.8144369  31.1922073  19.6168983  41.9911957  29.8422503  18.9555681
  48.1537390  53.3056164  10.1562428  48.8262415  53.7822342  10.6428707
  48.6245632  52.9082060   9.4236994  67.3638391  63.0960798  43.2633305
  67.2508430  62.4890518  43.9947557  67.6934862  62.5512648  42.5486660
  56.3118172  51.5368509  52.2776985  55.3968525  51.2644815  52.2077656
  56.7989254  50.7181978  52.3713303  63.0239725   7.7634358  37.2736049
  63.8795805   7.6443398  37.6859021  62.6275349   8.4923679  37.7508092
  35.4479146  35.1302648   6.2077808  34.7628331  34.9351788   5.5683780
  35.0189829  35.0274134   7.0572925  58.1510639  67.1069098  42.3096418
  57.8928471  66.5433359  41.5803003  58.1969357  66.5179729  43.0628252
  51.1681128  35.2653146  19.4883990  50.6163740  34.6338987  19.9500573
  51.9254589  35.3855038  20.0613022  83.2450104  58.5044575  48.8786125
  82.8737164  57.7176666  49.2777729  82.7143860  58.6487675  48.0951262
  40.3605652  61.0989285  17.1684766  41.1269903  60.5263138  17.1378994
  40.6145000  61.8665457  16.6561127  26.4492989  38.0515552   6.7453855
  27.1648812  38.6847210   6.6881585  26.1577296  38.1012726   7.6557410
  35.4024553   0.1900225  54.4980288  35.1355720   0.9221760  53.9421892
  36.1326289  -0.2133400  54.0285826   9.2306083  28.0692005   1.7261477
   9.0845633  28.8336754   1.1689399   9.3573606  28.4323859   2.6026532
  18.0162871  19.9699771  42.1964025  18.8245869  19.6241283  42.5749159
  17.9924595  19.6078146  41.3106823  43.8214540  55.3824615  40.6872034
  43.1297922  56.0043430  40.4611588  43.5301542  54.5525503  40.3095484
  41.2794065   5.0357938  54.0506029  42.1512079   5.4015338  53.9008284
  41.4391136   4.2284048  54.5393229  68.0793524  70.9711313  40.3189850
  68.5228348  71.8040514  40.1583576  68.0444956  70.8983803  41.2727785
  40.1975155  20.5843449  59.7583580  40.0578976  20.3555298  60.6772614
  40.8299160  19.9381912  59.4440508  66.2194443  65.5335045  56.3137293
  66.1585760  64.9580765  55.5512285  66.9398499  65.1717806  56.8298674
   5.6561184  44.5328569  28.6933470   6.3647282  44.7456503  29.3006563
   6.0667938  43.9762783  28.0316830  13.4950721  22.6885509  40.5009604
  13.8250089  22.1188998  41.1958504  13.6224771  23.5754871  40.8376265
  26.6037989  10.5351937  33.2819271  26.8744802  10.0056612  34.0319657
  27.0125723  11.3878369  33.4307098  24.5563936  77.5243807  60.6541824
  23.7482071  77.0198393  60.5619621  25.1197958  76.9764328  61.2005901
  41.9502068   5.3220004  31.5772104  41.6398096   5.4357201  30.6789064
  42.8808546   5.5425680  31.5387726  10.7271791  10.2618289  48.0964041
  11.3176787  11.0121727  48.0291319  10.2332413  10.2715015  47.2765493
  13.1271052  13.2117939  20.3682518  12.2114038  13.1371212  20.0996494
  13.5941243  12.5993204  19.7999191  31.2489009  19.8910916  26.4060068
  31.4910674  19.5835137  27.2794962  32.0835900  19.9984860  25.9499454
  67.7621460  78.8350248  62.9212618  67.4883080  79.7484398  63.0043888
  67.9348516  78.5540295  63.8198423   9.0789622  63.4935617  52.7648354
   9.2272758  64.4239759  52.9338455   8.4873688  63.4781170  52.0125008
  47.3024273  55.2295113  64.7384834  47.6530027  55.0782967  65.6162405
  46.4209604  55.5712986  64.8882294  76.9673443  10.3408873  11.4880407
  76.4082146  10.4529142  12.2568417  77.4845695  11.1453545  11.4487767
  46.9439650  46.6106606   7.9710186  46.6200972  45.7908106   8.3440983
  47.8363895  46.4095545   7.6892972  53.2184982  32.3916006  10.2488577
  53.3560276  33.2051158   9.7635633  52.6529121  31.8672228   9.6819627
  32.3897004  25.5644584  47.1291590  31.6715097  25.9995604  46.6696787
  33.1529570  26.1159539  46.9573450  11.7212236  52.3157120  61.6193104
  11.1492252  53.0149031  61.3027906  12.5320637  52.4263906  61.1228037
  66.7960787  55.9450293  66.8819809  67.6684332  56.1495352  66.5452242
  66.9514418  55.6238794  67.7702141  44.5969915  27.3595333   2.7010503
  45.4589319  27.0126081   2.4709718  44.1033840  26.5958071   2.9998884
  25.7045054  22.6275849  28.4643102  25.9578347  22.8425765  29.3619919
  26.4672875  22.8646731  27.9368782   8.5761261  29.7076893  32.3194242
   8.1609601  29.0774441  32.9082036   9.1223025  30.2464342  32.8918552
  58.3111858  12.5956929  65.5510092  58.0900764  13.5102606  65.3752041
  57.4904680  12.2040296  65.8497715  27.6202202   8.9529359  16.4927173
  26.7619467   9.3646902  16.5929866  27.7363753   8.8687217  15.5463314
  68.1428671  23.4359193   7.7656859  69.0602303  23.4354687   8.0389595
  68.1778860  23.4482837   6.8092066  80.0004864  29.5003319  43.4121180
  80.9236431  29.7522402  43.4358358  79.8740387  28.9789748  44.2048550
  16.7164993  26.1288905  12.3830974  15.8976638  25.6340218  12.3540103
  16.5075982  26.9625902  11.9617462  29.4952774  21.9373131  61.0703611
  29.4846201  22.4073172  61.9041586  30.0913143  22.4430680  60.5179262
  37.9545951  38.1484675  13.5594761  38.1456518  38.9889646  13.1431878
  38.0664182  37.5041032  12.8605330  46.6345549  32.2802877  11.4598536
  46.0864496  32.4453139  12.2270453  47.5313425  32.3676181  11.7829275
  54.8954058  54.4879246  15.2446997  54.5270872  54.0723181  14.4650543
  55.2124310  53.7587738  15.7776797   7.4097329   5.7584894  68.1707668
   8.1126463   5.1213658  68.2981157   7.4132860   6.2823737  68.9718676
  31.7986393  16.4551198  58.1424379  31.7898130  15.5776763  57.7600193
  31.9455075  16.3077176  59.0767479  78.1647587   6.5569335  21.3982224
  77.6027536   7.2913343  21.6452813  77.6952791   5.7818031  21.7064333
  22.3699737  11.6169596   7.3419654  22.1147346  12.4410653   6.9273168
  23.3270359  11.6319370   7.3355120  23.8035417  17.5085163  30.9387946
  24.4351196  17.1763015  31.5767407  23.3530116  18.2189667  31.3954282
  40.4422665   5.9747612  19.6628201  40.6679487   6.8646604  19.3919349
  40.6933832   5.4270494  18.9190578  41.2629223  11.7300034  22.5215888
  40.4908752  12.0944488  22.0887375  41.9975328  12.2227716  22.1558619
  17.4727976  52.6690102  64.2256546  16.8661344  52.9349804  64.9166298
  18.2438636  52.3490858  64.6939850  24.9646044  59.0651703   6.0120320
  25.5955076  58.3746147   6.2153250  24.7753072  59.4729900   6.8570650
  44.0236759  71.6245651  56.8986416  43.9168739  70.9535027  56.2244797
  43.2887220  71.4835978  57.4954653  47.2760153  11.8733430  14.4144356
  46.3645697  11.7883933  14.1346347  47.2902298  12.6693690  14.9458218
  34.4482279  12.9352927  47.2779083  33.7051082  12.3499417  47.4240971
  34.9901223  12.8344524  48.0604744  19.0460563   6.3350344  64.1419554
  19.4583321   5.8329171  63.4390068  18.1773984   6.5521574  63.8035440
  67.6543140  21.8107390  37.3343730  67.5644016  21.2157607  36.5899611
  66.9906759  21.5160394  37.9580474   1.5171878  77.1412563  66.6163731
   2.3654082  77.5389910  66.8127441   0.9988479  77.8543663  66.2435055
   0.8629181  72.2351933  21.0131574   1.1218165  73.1337166  20.8085680
   0.4476161  71.9171762  20.2115202  67.2758389  15.9103930   4.8917502
  66.6675138  15.4312444   4.3290880  67.1851921  15.4962027   5.7499236
  82.4076843  77.2206688  57.2904730  82.9840279  77.2121191  58.0546665
  82.3439217  76.3022852  57.0282888  62.3727798  65.3307581  64.1825628
  62.2752666  64.8528862  63.3589363  63.2077932  65.7905054  64.0953112
  39.0304279   8.9346701   9.7970957  39.5428753   9.3855923   9.1260523
  38.6190319   8.2048315   9.3341476  65.7354307  20.6412625  59.3424988
  65.5751801  19.7100592  59.1894960  64.9875355  20.9302592  59.8653460
  27.8367281  63.7739229  44.6149111  27.4995208  64.0705919  43.7696266
  27.8162694  64.5546675  45.1683140  21.5739083  15.4595709  24.2166162
  22.1682453  15.0087094  24.8163843  21.8940139  16.3614035  24.1950941
  28.8986754  70.8906651  19.7410512  28.9687681  70.2778864  19.0090513
  28.4651875  71.6589832  19.3695593  67.6746035  51.6008997  61.2787008
  67.9021597  52.4282551  61.7028856  67.9117060  51.7294598  60.3602839
  67.0009089  57.0954084  58.2125139  66.4805984  57.6502752  57.6314545
  67.9082537  57.2751951  57.9662704  59.6564674  73.3132410  58.7179422
  58.9299726  73.8005114  58.3293533  60.4003620  73.9137077  58.6701250
  38.9240646  23.9553595   5.3659964  38.6424851  23.2369399   4.7995880
  39.8305821  23.7435770   5.5887181  56.5585613  58.3949566  44.1381550
  55.9005070  59.0342855  44.4110155  57.3573589  58.6652756  44.5910168
   6.2254572   6.2845635  65.7580185   6.1887956   7.1853912  65.4364634
   6.4986664   6.3673121  66.6716623  14.8027778  75.5369902  56.7702293
  14.4897318  76.4126205  56.5432787  14.0703356  74.9583626  56.5582180
  74.6094942  13.8356924  45.9897566  74.4988728  14.5797122  45.3977823
  73.7785816  13.3632565  45.9385300  18.1568325   8.1733966  45.4845381
  18.5621464   7.3881561  45.8524370  18.5122979   8.2333934  44.5978165
  16.8195641  38.8514686  19.5585382  16.4943862  39.5982599  19.0557539
  16.4559615  38.9763308  20.4351425  25.1463771  24.5332789  33.6015892
  25.7059240  25.2776337  33.3800626  24.9072075  24.6775413  34.5171332
  68.7075806  19.2307055  28.4445524  69.4990492  18.6924624  28.4548616
  67.9993153  18.6117721  28.2670236  11.0881829  31.2851191  28.7214184
  11.0815609  30.7163000  29.4912457  10.2897656  31.8068719  28.8022614
  39.3064404   4.7365654   0.0053334  38.7510347   4.8288098   0.7794441
  40.1182413   4.3531555   0.3373087  10.0503790   5.7434338  65.9358740
  10.9906483   5.7272601  66.1143780   9.6588576   5.2719176  66.6711378
  56.7764473  23.3704162   4.3222061  57.2594261  23.4423161   3.4989250
  57.0135546  24.1599131   4.8087296  37.7342248  16.8596363  26.8301225
  37.6973081  17.6169419  27.4143791  38.5293365  16.3946939  27.0906138
  53.8426161  25.3394270  18.8595688  54.7279406  25.0780416  19.1127789
  53.9233875  25.6017971  17.9425800  48.4611130  42.4146652  65.9301805
  48.1031322  42.7394056  66.7563915  48.3020401  43.1223631  65.3056145
  11.0178280  73.0201054  36.1359310  10.5286717  72.2028589  36.0407138
  11.3343799  73.2139587  35.2536321  10.9582984  34.2168403  46.3312483
  11.8764949  34.2088127  46.0609150  10.9899056  34.3018675  47.2841406
  55.7300329  77.4289608  26.9609737  55.6201458  76.5344620  26.6384411
  55.0526619  77.5272036  27.6301169  29.0876007  41.1429358   5.6246924
  29.9432874  40.7812929   5.8554459  28.4801912  40.7323313   6.2400728
  30.4041123  24.1260386  11.3463998  29.5928264  24.1857219  10.8419323
  30.1360559  24.2873454  12.2510314   1.3365206  15.8229959  61.3244057
   2.1785097  16.1951470  61.5866852   1.4654307  14.8761439  61.3799572
  68.7565088  52.5749969  34.2795014  68.8843298  53.4445429  34.6586871
  68.1817484  52.7232885  33.5285735   2.2564822  32.4802661  51.8638372
   2.7886051  31.9821429  51.2433910   1.4166716  32.5967550  51.4195633
  27.4044037  27.2955894   7.6419938  28.0654764  26.6051841   7.5914669
  26.6113567  26.8943143   7.2866267  79.2024994  75.2771282  52.8246260
  80.0659370  75.0961018  52.4532366  79.0659332  74.5787668  53.4648371
  30.5553865  24.6474791  63.3546448  31.2713981  24.2942834  62.8266191
  30.3294325  25.4746079  62.9291630  54.4912910  38.9226007   9.1736400
  53.8185835  38.4075284   8.7282163  55.2703047  38.3667135   9.1546381
  15.0033379  39.3768311  64.9833441  14.8737133  38.5163116  65.3820133
  15.1189137  39.9698138  65.7258034  66.6070127  47.8400040  43.9755154
  67.1513844  48.1398535  43.2475185  66.6251135  46.8851709  43.9106894
  53.7912607  71.8346405  50.2443314  54.1408539  71.0524321  49.8175240
  53.2694292  71.4972496  50.9723997  27.3678946  13.0451882   8.0142951
  27.5395060  12.8184593   8.9282835  26.4215112  13.1833231   7.9754215
  25.7311392  44.0561628  65.4468107  26.5259838  43.7197065  65.8606434
  25.5165434  44.8443270  65.9457922  38.3075333  22.8467822  48.1190014
  38.0338454  23.6664248  47.7072811  39.1810465  22.6807094  47.7645588
  60.9951544  31.0767937  50.8777857  60.8681297  31.9602942  50.5320644
  60.1083899  30.7424188  51.0122347  19.8534870  76.1149931  65.8154249
  19.2109013  75.5076551  66.1820984  20.4690337  75.5553722  65.3419733
   0.3360212  49.1744184  37.0538473  -0.2412442  49.9203014  36.8905830
   0.1733048  48.5806799  36.3208866  65.3169394  63.7027931  49.7329855
  64.8339939  62.9079008  49.5068550  65.3908348  64.1812229  48.9072275
  67.8867149  64.9963331   2.7524608  67.8069401  64.5588923   3.6001131
  68.4546471  65.7476902   2.9231918  28.4709096  65.7208920  25.8156323
  27.6835251  66.1867523  26.0971141  28.2614231  65.4059982  24.9363208
  82.2981167  19.1599286   6.4376169  82.8387642  18.5246003   6.9069672
  82.9273891  19.7526824   6.0266584  33.3166814  25.6108451  40.8185387
  33.9583945  25.2369547  41.4223909  33.4866095  25.1706362  39.9857283
  34.2395926  53.7704849  40.2136326  34.5363665  54.6803713  40.1975346
  33.3177137  53.8236618  40.4657173   3.6297929   7.1414411  55.3088808
   3.9327499   8.0463195  55.3840065   4.3617183   6.6161758  55.6323242
  19.3963420  15.2409708  52.1348238  19.3368173  15.0310457  51.2028265
  19.5260632  16.1890328  52.1589851  28.3563018  12.4119413  52.1654224
  29.2221522  12.1835458  52.5036097  28.2993007  11.9561517  51.3256407
  48.7427187  66.9040728  43.5839844  49.3854141  67.4506950  43.1318998
  47.9115200  67.1070433  43.1548738  30.3063655  69.5789003  26.6109085
  30.9810591  70.0379324  26.1106014  30.2621937  68.7098169  26.2121916
  58.3940077  46.8576574  68.2159328  58.1792736  46.1672640  67.5886583
  57.6821041  47.4914026  68.1276131  51.4622211  44.6673250  63.5177755
  52.1058273  45.1309443  64.0535545  50.7021952  45.2489281  63.4995794
  12.4141884  24.0056968  48.3351231  12.6483011  23.1325054  48.0205488
  11.5155125  23.9133358  48.6514807  12.8923678  20.0182295  64.3024015
  12.8934693  19.0610421  64.3070364  12.7147913  20.2619410  65.2108669
  46.7365742  16.0823631  13.3162832  46.6820955  15.8067083  14.2313123
  47.2958851  15.4257536  12.9012287  44.8588848  74.2580223  46.1062336
  45.3106356  74.9777412  45.6655979  44.5849752  73.6769533  45.3966141
  61.8086338  70.2186537  40.7205582  61.7439938  69.5607281  41.4127922
  62.2792673  70.9470940  41.1256599  15.0661767  69.4803953  55.8834887
  14.3557775  68.8499403  56.0022020  14.8997402  69.8699522  55.0251293
  77.4030447  47.4947500  41.6948891  78.1128073  48.0805397  41.4316034
  76.6907549  48.0810785  41.9500208  17.3892915  12.5781059  44.9184608
  17.6626241  12.1244192  44.1211605  17.7956593  13.4423304  44.8535538
  37.0103359  68.8090086  57.7850151  36.9380760  67.8783083  57.5733471
  37.7231359  69.1261292  57.2304153  20.2582884   4.1199642  48.8398695
  19.4666231   4.0232390  48.3105850  20.2463508   3.3654487  49.4287634
  66.3230991  56.3352060  64.0886879  66.1638212  56.3540220  65.0323534
  65.7195425  56.9863033  63.7308884  11.6777802  48.6288261   3.2637969
  12.2875237  47.9283190   3.0320039  10.8219206  48.3034897   2.9847041
  31.5150952  19.9289310  47.6517534  31.2662959  20.7121515  48.1425667
  31.4735484  20.1980686  46.7341089  69.8984718  49.6329975  26.0477829
  69.0599155  49.3705034  26.4274597  70.5219936  48.9829397  26.3716412
  51.3421583  35.3283501  68.6566830  51.7997360  35.7907939  67.9545403
  50.7191038  35.9692001  68.9992380  29.5299697  14.3819344  42.7867365
  28.8713622  13.9924932  43.3618927  30.0502610  14.9417984  43.3630037
  29.4167256  17.7261448  46.0009766  30.0839829  17.5623560  46.6674376
  28.6270976  17.3084927  46.3449049  63.8383484  53.7834311   8.3867425
  64.1894388  53.2430792   9.0945458  64.6124840  54.1102839   7.9283667
  57.3723507  37.7156401  44.8459053  56.4916277  37.9884338  45.1030922
  57.6078701  37.0380807  45.4796839  58.7019205  46.4435196  10.6118274
  58.9507818  45.5617619  10.8889675  57.7655458  46.4991617  10.8024573
  74.1969013  24.4049215  13.4788954  75.0065231  24.7265244  13.8755190
  73.5424423  25.0677299  13.6993551  28.8397217  29.0685034  13.0464637
  28.1097913  28.5660672  12.6845372  29.1880631  29.5563126  12.3001850
  50.6952715  31.3965774  18.9374328  50.2436590  30.6411457  19.3137300
  49.9921799  31.9558024  18.6070371  16.1239374  26.8535566  47.2414970
  15.6292665  26.5978980  48.0200672  15.6154430  27.5685024  46.8587208
  35.9211230  37.6625919   7.2242755  35.8710504  36.8475294   6.7248780
  35.0238967  37.8182936   7.5191921  34.3191242  45.9095860   8.6955148
  35.1140761  45.5748510   8.2805067  33.6061502  45.5780745   8.1496227
   8.4308708  53.0530691  65.1939058   7.5678635  52.7122879  64.9587059
   8.4909219  52.9207659  66.1400127  47.7000856  14.8240566  62.9976034
  48.1224585  15.5093968  63.5154295  47.1547318  15.2992868  62.3707247
  57.2479534  56.0459471  62.9752350  58.1051970  55.7346821  62.6845884
  56.9217634  55.3506708  63.5465670  20.6143212  58.4982586  10.1874089
  20.3516555  58.9194012   9.3689477  21.2511373  59.1000605  10.5728090
  26.5413117  68.4571362  15.1385975  26.6265035  67.8585339  15.8806527
  26.9733548  68.0040359  14.4145322  52.8813982  52.4743843  49.6376467
  52.2785711  52.8769112  49.0125084  53.7332630  52.5042248  49.2021370
  24.3193793  55.0060987  35.2239442  24.1716194  55.1020384  36.1647916
  24.2694259  55.8985186  34.8814225  43.2693672  39.9627638  15.9263313
  43.6535168  40.0398445  15.0529933  43.8051319  40.5355501  16.4750600
  30.5336952  38.7771630  18.2045341  30.9741235  38.5981989  17.3737347
  29.7547436  39.2767930  17.9599178  24.2133951  25.4552674  65.5321693
  23.7007380  24.6475887  65.4994488  24.9387455  25.2547526  66.1236906
  67.7945566  36.5671134  18.0205190  67.4115229  37.3533559  17.6314926
  68.7188292  36.6040134  17.7743745  27.7265644  49.1098881  21.1322403
  28.5487771  49.1072035  20.6421447  27.9942703  49.0526485  22.0494604
  30.9569454  30.2556562  14.4852340  30.7779336  31.0518074  14.9855649
  30.0929976  29.9397445  14.2206061  78.2624960  57.1582270  19.2460692
  78.7363911  57.6858950  19.8888934  78.9378548  56.8585491  18.6375344
  57.1410084  26.6465473   0.2715432  57.7217770  27.0234370   0.9325221
  57.5157309  26.9258380  -0.5638081  31.4266419  54.2822886  16.6579163
  31.6942739  53.3979893  16.9081604  30.4701638  54.2606163  16.6881359
  35.8604193  27.8328609  19.4182432  35.0392461  28.2689047  19.1907072
  36.2989497  27.6948404  18.5786772  28.5367250  56.3539743  28.4984684
  28.9019084  57.1920347  28.2147026  28.2923579  55.9116364  27.6855373
  12.3804200  12.6947546  47.5937891  12.8568411  12.8546846  48.4084558
  12.9917574  12.9532790  46.9041061  76.3423491  25.4561758  49.2780399
  75.4486370  25.5615306  49.6042442  76.6363335  24.6243382  49.6493292
   5.4607058  71.3899088   2.0442601   6.1393911  70.7516909   1.8244937
   5.1477540  71.1191273   2.9073757  41.8616343  47.9202557   0.9570378
  42.1972036  48.5548973   0.3239089  41.5728092  48.4517765   1.6988581
  75.9289789  74.6421146  25.1192355  75.8923817  75.1848602  24.3316317
  76.6112947  75.0449800  25.6562376  37.3600054  46.4659977   8.8568038
  37.3341513  46.9196987   8.0143571  36.7531538  46.9561386   9.4115323
  54.0201378  38.0189848   3.0504405  53.6825275  38.8059282   3.4781894
  53.4436989  37.8897333   2.2972849  18.0396438   9.7673655  49.2755556
  17.2523952   9.3291605  49.5987368  17.7879786  10.1102412  48.4180403
  38.1571484  52.1005297   4.8728630  38.1801486  53.0490160   4.9996567
  37.4844670  51.7938519   5.4808772  29.1423011  38.1722713  60.0086308
  29.3773651  39.0996099  60.0405693  28.3888865  38.0958581  60.5940866
  40.4759932  52.2821951  25.1261139  40.3531790  51.5358353  24.5395207
  41.3550043  52.6030922  24.9246144  26.9985962  19.0172863   0.3571160
  26.4718270  18.2306957   0.4986099  27.4531889  19.1538370   1.1883393
  66.9443464  42.9458094   6.1308134  67.4735546  42.5786638   6.8388897
  67.4663353  42.8007507   5.3416890  40.5909252   7.8495884  14.0787792
  40.7825136   7.0585960  14.5826209  41.0761881   8.5423857  14.5268655
  22.5961781  20.1455235  49.6218252  22.7818847  21.0517454  49.3758488
  23.2576919  19.6313417  49.1589546  35.4278851  72.3524046  15.5656457
  36.3426232  72.0706940  15.5767953  35.4718781  73.3084774  15.5509520
  20.5601335  14.1432977  39.7026801  20.1705360  14.1299784  40.5769062
  19.8143864  14.2338467  39.1094732  83.3028412  12.5061965  49.1063786
  84.1390133  12.1906793  49.4491339  82.6454926  11.9627368  49.5408630
  77.6547098  23.0822301  49.6949005  78.3503103  22.7512288  49.1267347
  77.4965048  22.3729730  50.3179216  46.0393810  52.2799921   7.5212824
  46.6268730  51.6160583   7.1603370  45.6633472  51.8692970   8.2998455
  39.4809842  43.6490440  20.7058334  40.3848505  43.5204935  20.9934592
  39.5175982  44.4184399  20.1375699  52.3129272  42.3222828  14.3594408
  53.0208969  41.8376875  13.9349604  52.7595043  42.9602909  14.9159944
  30.8361554  45.6492662  65.6364441  31.2089181  46.4673948  65.3078890
  30.8041501  45.7649899  66.5860844   0.2668208   6.2077570  19.4330323
   0.4537100   7.1109146  19.6891773  -0.6805138   6.1884314  19.2973280
  59.8678017  78.3551979  19.6871102  60.5757189  78.8627768  20.0839114
  60.2007484  78.1151772  18.8223743   1.2920681  17.6918554  39.6761012
   1.3066158  18.5009873  40.1873016   1.5392318  17.9626906  38.7919116
  28.1776309  15.4367518  23.8289452  28.8321161  15.9879780  24.2579365
  28.6900854  14.7922003  23.3409142  28.5516024  58.1952238  43.8168097
  27.6050305  58.1491041  43.6822414  28.8325310  58.9422560  43.2883596
  77.6367521  76.0521698  39.4595313  78.4431314  75.8873081  38.9708567
  77.6933289  76.9740009  39.7110438  13.5770857  21.2620521  15.8817196
  13.1575584  21.9747639  15.3997779  13.0234826  21.1355639  16.6522753
  45.8248568  43.6193419   6.6975510  45.5566311  42.7070332   6.5881169
  46.0648870  43.6892366   7.6215267  62.4533701  59.0467405  22.4710250
  62.3819065  59.1090059  21.5185308  61.9797564  58.2456064  22.6948833
   0.1051296  40.4003525  22.2987700  -0.5548530  39.8034310  21.9461465
   0.7873288  40.4264975  21.6278338  33.0821252  21.4417100  55.6076431
  33.0571318  21.1410165  54.6992445  32.1650887  21.5969253  55.8338785
  10.7952070  15.3655446  55.9840345  10.0823021  15.6458592  56.5579844
  11.3305676  14.7902524  56.5305281  41.4695692  12.9285467  60.6672859
  41.3849688  13.3994329  59.8382282  41.9664907  12.1409917  60.4457998
  38.4447598  32.2116017  10.2006149  37.6026797  32.6558256  10.2995896
  39.0773010  32.8040195  10.6070220   5.7276309  14.6192122  48.9086294
   6.2499332  13.8792610  48.5989428   5.9473449  14.6955276  49.8371410
  44.9196148  60.3801155  27.0823526  45.0663424  59.5902634  27.6027703
  43.9671087  60.4568005  27.0267677  66.4985609  71.9728327  18.4203815
  65.7739258  71.9420242  19.0450299  66.3564014  71.2165308  17.8511429
   1.3854004  10.9002495  49.0374660   2.1959510  10.3937185  48.9858341
   1.1244167  11.0281968  48.1254625  65.6173229   4.5372486  23.1349659
  66.0274506   3.6798397  23.0214810  65.9409142   4.8474804  23.9807057
   3.4664226  21.8590426  47.0331573   3.7276036  21.5162468  47.8878546
   2.5534320  22.1220398  47.1493959  28.5092545  56.1432695  34.7595477
  27.8129339  55.6840897  34.2899489  28.0706167  56.8891144  35.1688671
   5.5042422  12.8282297  66.2163448   6.2960505  12.4685991  66.6162682
   4.7899157  12.5007820  66.7629242  22.5182438  14.8455846  43.2914877
  22.2442627  15.2391911  42.4630928  22.9578543  15.5551481  43.7599897
  73.7991810  53.1187773  68.1938839  74.5101452  52.8775406  68.7876606
  73.0704021  53.3443117  68.7720203  17.5036645   4.0797850  64.9669075
  18.3348787   4.4955930  65.1958561  17.3007572   4.4149190  64.0935564
  61.2240839  30.8871603   6.8862426  61.4886570  30.4775715   6.0625494
  60.5683088  31.5361261   6.6312349  11.8412125  12.5163996   7.8595412
  11.2541521  12.5851512   8.6124456  11.3073719  12.7903891   7.1137691
  40.3009748  64.2660046  21.1014509  40.1012468  64.2631578  22.0375776
  41.2534237  64.1805363  21.0594940  79.8818398  76.9652224  66.8144608
  79.4523382  76.1291361  66.6335773  79.2807198  77.6236105  66.4660215
  40.7349682  60.7698870   1.2315446  40.3359509  60.7042980   0.3639519
  40.2547264  61.4764500   1.6632469  60.9045029   8.5992461  62.5774145
  61.3670683   9.0992755  61.9049263  61.1905146   7.6956874  62.4432182
  32.5432324  73.3267784  47.1962166  33.3769393  73.7953854  47.1565342
  32.4181509  72.9851007  46.3108683   3.3050349   3.6382464  42.2020292
   3.8162407   4.2517939  42.7297211   2.6578933   4.1859558  41.7576694
  20.1537108  44.9759722  28.4268117  20.3676987  45.9052324  28.5100031
  21.0010648  44.5436668  28.3203340  43.3957577   8.0732000  67.5351477
  43.8969803   8.8845807  67.6168013  43.8574743   7.4490738  68.0950737
  23.7271857  17.6226878  22.3909450  23.6227918  17.6894224  23.3400917
  22.8963232  17.9385686  22.0358086  38.1050777  11.5456355  13.7596083
  38.9265108  11.7739189  13.3244479  37.7214813  12.3878241  14.0041590
  43.0065441  42.6038647  25.8985710  42.8067064  42.0740128  25.1268506
  43.8886166  42.9387760  25.7372880  73.7162161  16.7130136  29.2114949
  73.3820343  15.9755123  29.7220325  72.9669809  17.3021257  29.1230226
  46.1337852  34.8581767  57.3717833  46.2398577  35.5580425  58.0161190
  45.5434465  34.2329407  57.7922773  28.5870671  38.0701375   0.8773160
  28.9898872  37.2115993   1.0072382  27.9203629  38.1279302   1.5617102
  14.4844198  34.1278219   5.0114346  14.5105910  34.7354937   5.7505429
  13.5865867  34.1864872   4.6848080  36.0330391  53.2056999  24.2109871
  35.7941771  52.3253965  23.9207482  36.1030221  53.7136412  23.4026980
  33.0615330  26.0319281  13.8831162  32.1143579  26.0398149  14.0210569
  33.2108450  26.6943407  13.2084703  14.2528248  11.9187260  65.0897646
  14.0595150  10.9834170  65.1534986  15.1948822  11.9799161  65.2479219
  74.0902138   5.6768501   0.7832573  74.7950983   5.3988999   1.3681588
  74.3705130   6.5332824   0.4604771  38.6835599  69.9232674  56.0978270
  38.8461971  69.7663116  55.1676941  37.9635048  70.5537844  56.1120081
  41.8075180  41.7825460   4.2013758  42.3135614  41.7264938   5.0119382
  42.2712088  42.4330282   3.6740312  18.1422305  17.7013969  63.6931229
  18.9995909  17.2821712  63.6195421  17.7842200  17.3714483  64.5172548
  83.3796310  45.2735329  49.5082521  84.0472031  44.6429396  49.2382097
  83.7131214  46.1188936  49.2076063  19.2879581   3.4678113  59.2925167
  18.5260427   3.8105395  58.8253403  19.5777273   2.7236754  58.7647581
  48.0255222  78.7770557  47.0689917  48.2508421  78.0556488  46.4815950
  48.7948513  78.8788795  47.6293468  35.3885770  73.5107517  25.3860474
  36.2829876  73.8280106  25.5109859  35.4889894  72.7040434  24.8807073
  60.1416731  38.2843161   6.1237603  61.0664320  38.2623410   6.3698828
  59.7703791  37.4944544   6.5168172   5.4881990  21.1744261  35.3362060
   4.5355922  21.2036824  35.2472353   5.7461512  20.3697610  34.8865366
  72.7423048  13.8004339  58.0260372  72.4959946  14.5009422  58.6300659
  73.4057856  14.1946757  57.4598265   3.0609271  68.3910847   8.0427611
   3.5738993  68.0508709   8.7757987   3.6444792  69.0152311   7.6113206
  36.5553117  76.8123865  54.5984507  35.6045079  76.7913151  54.4900036
  36.6959286  77.3553181  55.3741312  46.0961580  72.3634672  31.2003565
  46.0002851  72.6718044  30.2992630  46.1240244  71.4096117  31.1254263
  35.1503611  36.4011121  10.7249236  35.4598737  37.1861553  11.1767399
  34.1959524  36.4656782  10.7591259  41.2246943  34.9192929   4.8629656
  41.9263649  35.5570841   4.7321677  40.4578686  35.3193712   4.4529030
  30.4146671   7.3595446  62.2137880  29.8577428   8.0550933  62.5634718
  29.8624730   6.9090807  61.5747261  69.6858168  48.9530420   0.4951018
  69.8940468  48.5202122  -0.3328646  69.1772461  48.3051586   0.9827842
   8.4339309  35.4123306  51.8217039   8.2983273  35.7509685  50.9367371
   8.7169522  36.1733651  52.3286104  61.0110760  66.5959215  54.6885061
  61.1897802  65.8144379  55.2115536  60.3380299  66.3191938  54.0666866
  31.3250947  39.0353608   6.5051389  31.6588163  38.5013914   5.7842100
  31.2921453  38.4367061   7.2512996  53.1116581  49.5125437  68.5376501
  52.2169685  49.6141911  68.2129574  53.2497883  48.5658121  68.5667419
  44.3885326  14.7046089  37.3991656  45.2161741  15.1831651  37.3519659
  44.3306065  14.4155395  38.3098340  10.1919425  50.9542942  27.4627709
   9.9725902  51.6907930  26.8920803   9.4137543  50.8327293  28.0067182
  18.5032821   9.6075898  63.2370806  18.9839971  10.3043151  62.7901793
  18.9571118   8.8035029  62.9846621   5.0617498  52.3179865  20.2251005
   5.6060219  52.4828005  19.4551420   5.6879109  52.1639013  20.9324980
  79.5434093  70.0280333   8.4162486  79.3989563  69.4693375   7.6525575
  80.4384518  69.8301649   8.6919034  30.9971380  32.8536963  58.8784599
  30.3962851  33.5187554  58.5424519  31.8507552  33.1003022  58.5224295
  54.8441887  35.3155351  51.7583704  55.6066608  34.8805308  51.3767433
  55.1874781  36.1380696  52.1074057  24.5062280  38.5046291  60.1483822
  24.4058990  38.1723857  59.2563200  24.1095257  39.3754578  60.1256657
  43.8959885  61.3982201  16.1519384  43.3574343  62.1890450  16.1798847
  43.3532715  60.7548380  15.6961358  36.1067462  28.5494018   4.4487923
  35.2923203  28.3523941   4.9115336  36.7088556  27.8555751   4.7176740
  19.4528806  26.8876219  65.1251698  18.7976360  26.2384105  64.8694134
  19.9561274  26.4598918  65.8180094  64.5493269   5.5922747  31.4656734
  64.1698408   4.8887545  30.9390950  63.7944412   6.0886103  31.7819500
  67.0466805  28.0142808  15.2202356  66.4825010  27.3796654  14.7784245
  67.6417828  27.4801898  15.7463801  81.9582844  26.1400914   1.1086769
  81.2930298  26.3501120   1.7640904  82.7553082  25.9882283   1.6165322
  52.5449514  36.6240263  61.6915274  51.7267561  36.2379789  62.0041800
  52.3748207  36.8349719  60.7734919  34.5074701  63.8652277   1.1128101
  34.2140889  63.5531330   0.2567993  34.7315645  64.7845936   0.9686369
  28.6551094   5.7190448  61.0480690  28.2837200   5.4266566  61.8804216
  29.0751147   4.9388462  60.6859684   9.5950752  56.9708586  59.2231560
  10.5003572  57.2798109  59.1878557   9.4554651  56.5414476  58.3791494
  39.1101241  38.6807466  27.7083158  39.6449542  39.0656209  27.0140100
  38.9558864  37.7808475  27.4208689   2.1115513  36.7365289   6.6929084
   2.3076299  37.4689889   6.1087096   1.6433623  36.1093426   6.1418468
  82.3617554  15.4322577   3.3070707  83.1825161  14.9790001   3.1143355
  82.6170540  16.3458252   3.4353232  28.7372661   3.4324914  68.2085705
  28.1496406   3.4769398  68.9628553  28.5016274   4.1923404  67.6762772
  77.2967672   7.1379042  49.1406775  77.4662447   6.6411126  49.9411201
  78.1232452   7.5841618  48.9562416  24.5106006  30.8306456  61.5134621
  24.9266791  30.3761482  62.2459507  23.6730933  31.1336255  61.8641996
  10.6978285  29.8217130  48.6172962  10.4095757  29.4146299  49.4342566
  10.3834140  30.7239389  48.6753035  48.9129591  76.4812946  16.0811532
  48.1623793  76.9309807  16.4692831  48.9604759  75.6473351  16.5485799
  50.2754164   8.0066729  14.3262208  50.4770041   7.9293126  13.3936918
  50.4050016   8.9343959  14.5231199  63.2897615  55.6800127  17.0250154
  62.9549360  56.5748787  17.0828080  63.0667496  55.3976583  16.1380124
  44.3904638  53.5782671  21.7676926  45.1615667  53.2769728  21.2872171
  44.6803045  54.3763971  22.2095180  43.4139729  45.4193354  19.5933580
  42.5537729  45.8347178  19.6545494  43.9892864  45.9825468  20.1110840
   2.8916821  15.3467572   4.3514127   2.1262693  15.0032496   3.8905677
   3.2820702  15.9684253   3.7371176  78.0702066  65.0609112  30.8128500
  77.2420883  65.5234718  30.6844044  78.4455109  65.4557419  31.5999222
  29.4460559  22.6697707  65.5335617  29.4277215  21.8369484  65.0620699
  29.6029067  23.3259916  64.8545837  37.0608187  72.9389954   3.6848891
  36.8775821  73.2700920   2.8056678  38.0156279  72.9514408   3.7513426
  52.3228121  50.4813051  18.1884730  51.5974331  50.8047724  18.7227237
  53.1063223  50.6880045  18.6980033  73.5940599  75.6509018  41.6594744
  73.6310148  75.4212379  42.5879812  74.4894743  75.5244780  41.3456535
  81.1554718  67.1938419  36.5997100  81.3219452  68.1101847  36.8206930
  80.9421444  66.7806435  37.4363613  17.3091936  29.1822433  32.1790314
  17.4886179  28.4716582  32.7947474  17.6481712  28.8651204  31.3419175
  26.5635347   2.2619690   8.5351390  25.7755160   2.2116803   9.0761822
  26.2346458   2.3531160   7.6408488  63.2601070  64.5291424  61.4233112
  62.4404192  64.0516138  61.2955952  63.1423855  65.3425360  60.9326267
  57.2459650  76.5926933  44.0842867  56.8050766  76.3883638  44.9089670
  57.8342915  77.3162460  44.3000889  76.5662909  17.0828485  56.9754553
  76.4378262  17.5460887  56.1477232  77.1338320  17.6594114  57.4870205
  32.1918821  11.6748893  27.9290056  31.7145896  12.3473608  28.4150147
  31.6205668  10.9074366  27.9581094  54.1815376  19.0523815   9.5964366
  54.9903154  18.5450816   9.6654266  54.1915512  19.3989289   8.7042278
  28.9208627  38.1878805  15.4277027  29.1005421  37.2736764  15.6472027
  28.4459758  38.5274506  16.1862576  44.2834282  65.2202415  22.5297761
  43.7817240  65.9010315  22.9781628  45.0099850  65.6892061  22.1193838
  54.5616531  24.3376875  27.4910760  55.0599718  25.1541185  27.5278449
  54.4193220  24.1024590  28.4079409  56.8207598  21.3923073  -0.1513555
  56.7428207  21.2355232   0.7896950  57.0671606  22.3146319  -0.2209058
  78.2580137  65.0641727  51.7801285  78.9019489  64.6194267  51.2289667
  77.6137400  64.3878174  51.9891357   9.8248965   7.7491665  52.6839256
   9.1100556   7.6878083  53.3175421  10.6195736   7.7357793  53.2173491
  33.9970660   2.6310238  58.5498238  34.4837832   3.4128588  58.2889175
  33.4831095   2.9105580  59.3074131  63.1966543  57.1134090  58.7444735
  63.2720518  56.6837406  57.8924608  63.9938164  57.6379347  58.8195801
   3.4346366  62.3560810  55.2720690   3.6301461  63.2727432  55.4663420
   4.2048624  62.0420933  54.7983694  76.2359142   5.2276838  33.0605149
  75.3545284   4.9068540  33.2514453  76.1735964   6.1768901  33.1670761
  53.2320833  28.5943413  17.4563110  52.5914955  29.0759349  16.9329095
  52.8682041  28.5964751  18.3416462  48.9502811  40.4919767   5.3545356
  49.1072655  40.3314781   6.2850338  48.7700224  41.4304924   5.3004444
  34.8409033  73.4356022  58.2166481  35.5047250  74.0300226  57.8670263
  34.1232800  73.4796524  57.5847435  19.6727157  10.1092982  59.3901253
  19.0733039   9.9429125  60.1176214  19.5881104  11.0474229  59.2198372
  17.5117171   4.9162149  57.6827335  17.6178253   5.8610976  57.7930498
  16.6351104   4.7325894  58.0204821  36.0371637  74.9117327  16.1747038
  35.4007483  75.3678846  16.7252779  36.5658140  75.6109095  15.7901061
  10.2251494   4.5717072  47.5696945  11.1098492   4.2067692  47.5508118
  10.3568840   5.5137551  47.6765728  57.2570848  70.1063347  66.2750530
  58.1385469  70.4226303  66.4730930  57.2915077  69.8651505  65.3493786
  41.7527723  69.9440432  24.6651101  41.5412474  70.6120634  24.0130067
  41.6426039  70.3871870  25.5063725  49.5938206  37.3160172  66.8293381
  49.5683336  38.1934309  67.2110796  50.5265474  37.1236920  66.7330837
  61.8130350  55.4420614   9.4627285  61.2890768  55.8757019   8.7891901
  62.4754906  54.9540710   8.9735937  23.5329413  67.2845221   9.1749310
  24.2655969  67.5053072   9.7499961  22.8660846  66.9289446   9.7623819
  69.9624300  49.7861433  14.6532035  69.7620773  50.4478598  15.3151906
  70.5838728  50.2158070  14.0654743  55.1302338  22.1417856  42.7373743
  56.0767031  22.0299673  42.6483440  54.9534845  21.9609523  43.6605740
  32.0254874  65.2267218  20.6259966  32.7552080  65.2568674  21.2447309
  31.9883943  66.1088371  20.2562284  15.4339576   0.8673115  45.8575296
  15.5500209  -0.0774257  45.9586859  14.7299385   0.9546850  45.2149153
  74.9432707  59.4937038  59.9063063  75.1202250  58.8446093  59.2254305
  75.7951403  59.8921633  60.0845623  80.8066273  10.7020807  53.1368446
  81.4684582  11.2471426  53.5624123  80.2281475  10.4281723  53.8485813
  65.4391432  33.7342405   6.9494253  64.6898508  33.3516598   6.4928859
  65.3331757  34.6785498   6.8341798  76.0461950  52.0709467  10.6682551
  76.4852762  51.6106033   9.9530476  75.1362944  51.7779112  10.6188130
  23.9059854  55.9259081  32.1056056  24.1467690  56.5183592  32.8178215
  24.6876550  55.8834505  31.5547657  44.0395451  32.7668023   9.8044324
  43.6964083  32.2548103  10.5367923  44.9899817  32.7324700   9.9127012
  70.2653885  42.4772167   6.1800629  71.1579132  42.2077608   5.9632176
  69.8446178  42.6170111   5.3317446   4.6566850   4.3941268  48.2230139
   3.7308788   4.5058328  48.0070591   4.6572244   4.1181642  49.1395712
  68.3369255  56.1518478  54.0616322  69.1219234  56.5507889  53.6863279
  67.9542160  55.6519413  53.3406210  69.5040226  38.4937239  13.8879311
  68.7468290  38.9624786  13.5369980  70.2583551  38.9137030  13.4746122
  65.9780455  13.7839150  56.3063240  65.7396889  13.0709410  56.8988514
  65.1735020  14.2932105  56.2085772  48.8957453  55.3435421  48.8715219
  49.6135092  54.9964476  48.3418274  48.3536720  54.5800304  49.0701103
  28.0768204   8.7047863   6.1584103  28.8280845   8.8710940   6.7277759
  27.3162484   8.7981617   6.7320317  67.6460934  53.8915634  63.9648676
  68.4379482  54.1167068  64.4532442  67.1708965  54.7185946  63.8846493
  14.5525932  69.8855734  58.5597706  14.7497511  69.6844339  57.6449490
  15.3850055  69.7641420  59.0164757  63.4789181  33.1542373   9.4938564
  63.8221931  32.3354125   9.1362000  63.0154657  33.5599613   8.7611717
  79.4236946  56.8459892  36.8040061  79.3352127  57.3601580  37.6065230
  79.9972916  57.3706102  36.2454486  61.6615057   4.0075797  30.2648425
  62.5617218   3.9959526  29.9397278  61.7427015   3.8267925  31.2013030
  41.1148739   8.5822427  11.4338183  40.8548832   8.6634779  12.3514450
  40.3293276   8.8184440  10.9405017   6.1710888  45.5274343  65.7436466
   5.2661192  45.6827211  65.4731894   6.3049555  46.1198044  66.4835167
  73.2094955  63.4521723  31.9997239  73.1327820  64.2871428  31.5380192
  73.2900333  62.8000927  31.3036370  56.3506746  37.4657655   4.1917539
  55.9420252  37.4969435   5.0567758  55.6164932  37.5011802   3.5786021
  14.0875101  48.1735563  55.0839615  13.9443827  47.3058224  54.7060966
  14.9361145  48.1071329  55.5217886  70.7507324  74.5024538  51.7687178
  69.7977495  74.4202471  51.8047380  71.0354471  74.3880081  52.6753998
  66.9018126  61.9701958   8.7206411  66.7094803  61.0782814   8.4312671
  66.6920662  61.9694567   9.6545786  76.3979673  24.1760707   0.6681523
  76.8685722  24.3818665   1.4758727  75.4763222  24.3155360   0.8857615
  58.8813782  12.8810394  61.7603397  58.2492876  12.2124469  62.0243073
  59.4918108  12.9370832  62.4954987  41.3092995  21.9340372   1.7956968
  40.7102776  22.3697281   1.1894122  42.0256901  22.5577092   1.9142194
  83.5287952  75.0737715  38.6031103  83.6557102  74.8256922  37.6873684
  83.4331894  76.0259581  38.5822630  36.5781450  65.1265478  38.7333584
  35.8880424  64.5338535  39.0311909  37.1424031  65.2406502  39.4980979
  75.3814077  64.9054623  38.4102392  75.3622437  63.9609337  38.2561922
  74.7601271  65.2641487  37.7765298  46.0873985  22.2121119   6.1821872
  47.0281601  22.1718621   6.3541728  45.8733273  21.3527369   5.8190376
  42.8693390  11.9749379  52.3649597  41.9594765  11.9087827  52.6548004
  42.8109884  12.2878397  51.4622307   4.8196769  62.6024103   0.0278049
   5.6209493  62.1053743   0.1925728   4.1583037  62.1788645   0.5750022
  32.3937798  28.8186908  30.1551032  31.9556808  28.2602358  30.7973075
  32.6108432  28.2287860  29.4332099  82.8521919  59.5381689  35.8622479
  82.1024418  59.0097857  35.5885410  83.2415104  59.0454292  36.5846610
  21.8020797  51.9975185   0.0752252  21.9037747  51.4923525   0.8818834
  22.2802782  52.8102350   0.2396892  68.8948011  31.4402747  26.4456892
  69.1424561  32.3557591  26.5752602  68.1981802  31.4711070  25.7899427
  64.5950270  51.8341208  33.7984824  63.7066031  52.1483898  33.6306453
  64.6877146  51.8749666  34.7503066  23.0045605  45.7595825  54.7253704
  23.8023949  45.4381943  54.3053675  22.7980113  45.0977373  55.3853178
   4.7135422  79.2784786  39.1576362   5.0378311  78.5057783  39.6202374
   4.0717393  79.6631908  39.7545600  50.9194040  11.7707896   5.4491019
  50.6769753  11.1849976   6.1662543  51.6084480  12.3252273   5.8152282
  14.9211383  20.4484797  42.5865555  15.8341408  20.1852798  42.4708700
  14.9161720  20.9417582  43.4068489   7.3970938  65.3608131  66.9326878
   6.5241516  65.0296211  66.7216969   7.8343129  64.6262550  67.3633814
  17.7690697   0.7253308  19.6654332  18.2233179   1.4922827  20.0142527
  17.2372937   1.0680649  18.9471161  11.9720054  74.8684168  30.8786750
  11.8924081  75.6060171  31.4835238  12.3558533  75.2474260  30.0879526
  63.6598396  36.6580772   9.3384713  62.7362680  36.7639327   9.5666039
  63.9790869  37.5514817   9.2114305  18.2404065  43.3679008  46.9064951
  18.6016989  43.4656286  46.0255003  18.3309901  44.2356968  47.3001337
  78.3497047  16.6698623  64.8733282  78.8881159  16.8744838  64.1088152
  78.7258530  17.1960318  65.5789423   2.6570734  66.9820166  44.7261238
   2.7330336  66.3728380  45.4605341   2.3492154  67.7973032  45.1220608
  82.6640511  33.9109826  55.1257467  83.3726978  34.5531416  55.1667261
  82.7769184  33.4835887  54.2767334  14.7522616  34.7456574  43.5468435
  14.2389429  35.0213671  42.7874231  14.3440211  35.1940417  44.2874670
   7.7669746  48.4662628   5.9178525   8.2015741  48.7739754   6.7132574
   6.8327779  48.5631418   6.1025751  62.6830339  25.8953881  66.0761881
  61.8171597  25.5168557  65.9238672  62.7817917  25.8920240  67.0282745
   2.8534883  73.3481884  44.1761303   3.5276863  72.6752663  44.2702913
   3.3008435  74.1669893  44.3898249  48.6132193  22.8046274   9.3387437
  47.7631998  22.9855990   9.7399282  49.1170359  22.3736668  10.0291598
  81.6779804  44.5773935  13.1820953  81.6595554  43.7826204  12.6489651
  82.2077179  44.3425131  13.9439631  61.8992996  61.1535692  27.3202062
  62.1479321  60.7558727  26.4857912  61.1477518  60.6397867  27.6159024
  11.0165286  43.4768772  42.1327400  11.1298561  44.1014385  42.8491974
  10.0767446  43.2955980  42.1194315  27.7110887  74.8551750   9.0385008
  27.2252703  74.5588684   9.8081857  28.5975122  74.5190191   9.1707295
  65.3745031  47.1424103  29.2217970  65.7538414  46.8361330  30.0455236
  65.1344299  46.3412952  28.7561607   5.7605571  65.3931618  25.4626060
   4.9281907  65.8656836  25.4517078   6.4230585  66.0720348  25.3343463
  54.4252872  74.7202587  17.8495610  53.6755276  75.0783587  17.3743236
  54.0559483  74.0189791  18.3862412  68.5453701  61.8152142  66.1473703
  68.7496805  62.3506880  65.3807163  69.3738174  61.7513466  66.6225815
   7.1753293  28.3081293  16.8469429   7.3800534  28.9177489  16.1379421
   7.8346193  27.6186967  16.7678761   2.6836386  23.6704683  55.0486565
   3.5693079  23.9896107  54.8755360   2.8041440  22.7555060  55.3027296
  66.5224361  20.8707094  14.9614680  65.7923031  20.4630852  15.4272783
  66.7353106  21.6457963  15.4812300  76.9649363  21.3300514  23.6345506
  76.4346313  20.9954691  22.9113173  77.1581459  22.2353745  23.3910537
  26.2443757  44.0928078  18.6834168  26.5453386  43.4509993  19.3266380
  26.0534668  44.8766994  19.1984892  76.6635466  59.4057131  21.3795638
  76.4693880  58.7599945  22.0589614  75.8083200  59.7566891  21.1312914
  50.5716515  29.1273546  47.5570822  51.4349937  28.8023996  47.8125858
  49.9633121  28.4512568  47.8554869  76.4676476  51.3830757  62.8082895
  76.7236423  50.7955933  62.0972633  76.9453573  51.0579157  63.5713768
  35.5597401  31.6059470  21.4665818  36.2094474  31.1234307  20.9554148
  34.8857117  30.9575844  21.6704035  82.1154690   0.5354697  22.5247049
  82.4199486   0.4602112  23.4290600  81.1639023   0.6091818  22.5977087
  50.1820040  71.4995670  49.4457293  50.4053307  72.4155569  49.2804623
  49.2609644  71.5207100  49.7054958  31.1662889  48.7271738  30.0767064
  30.8937716  49.5847511  30.4030943  30.4772925  48.4748363  29.4620156
   0.2655974  58.7825108  58.1830788   1.0642356  59.3027163  58.0947924
  -0.2682540  59.0334511  57.4292469  80.2134514  44.9741030  62.1634722
  80.7852364  44.2081881  62.2151041  80.7597923  45.7013941  62.4614334
   8.3561134  64.7258759  20.4121733   9.0647721  64.9767542  19.8196399
   8.0501533  65.5533552  20.7835197   0.9492560  46.2096739  18.7165594
   0.9449457  45.4897928  19.3474185   1.3038506  46.9532204  19.2040396
  25.6961894  52.3097515  43.0485535  26.1453247  51.4721537  42.9348135
  26.3894129  52.9215384  43.2963133   2.0724654  54.1759682  37.9565930
   1.1325322  54.1338491  37.7805734   2.4780989  54.1897964  37.0897031
  76.6430283  71.6955137  48.0776739  76.6482019  71.6540956  47.1213865
  76.2821007  72.5591183  48.2780600  60.1442146  35.6336021  65.3837252
  59.3032074  35.7908463  64.9545193  60.1209497  34.7073746  65.6241274
  56.5965557   1.1027285  27.2432756  57.1852398   0.9846551  27.9887533
  56.9678783   0.5507006  26.5550780  36.4388514  37.6989174  31.2581086
  36.1933494  37.9270673  32.1547174  35.7818961  38.1313038  30.7125068
  26.3924217  64.2083931  18.4926879  26.9415855  63.4389257  18.3424592
  25.5045438  63.9116383  18.2930827   6.7313355  25.6498814  31.3516521
   6.2862122  25.3717518  32.1521139   7.5685501  25.1862240  31.3696980
  35.8081579  31.1580181   0.2760675  35.2419925  31.7552567   0.7649381
  36.5359569  30.9771729   0.8709098  28.6070490  18.1066906  16.2860334
  29.4081020  18.5544813  16.5581179  28.0236173  18.8106179  16.0026121
  21.6852403  45.9919786  42.9406023  22.3364019  46.6321754  43.2276058
  21.5547585  45.4256248  43.7011623  31.9660616  45.2307224  14.9301136
  31.7192912  45.8818817  14.2733622  32.7597189  45.5844116  15.3316629
   6.6435957  18.7153757   2.3214954   7.1402085  17.9253745   2.1081749
   6.1543071  18.4847593   3.1112066  17.0634317  14.6224070  25.2156734
  16.6005313  14.3913746  24.4103289  17.3697472  15.5171037  25.0676155
   9.6968609  15.3702390  17.7231193  10.5583000  15.6739700  17.4369335
   9.1410303  16.1481404  17.6767147  20.8108640  18.4039271  14.7506618
  21.7426276  18.2565391  14.5884049  20.7802868  18.8151360  15.6144929
  73.5294533  42.0283318  56.7421150  73.3223677  41.6331959  57.5889969
  74.3031025  41.5531969  56.4388943  32.3851633   3.4618902  56.2879181
  31.8303633   2.9277623  55.7194662  32.5706172   2.8987339  57.0393801
  68.5075426   7.6393896  67.4120283  68.2293797   7.2772777  66.5707588
  69.2352057   8.2215571  67.1933651  23.2605505  42.6215076  19.0157521
  23.2046533  42.2759295  18.1248617  24.1763496  42.8818130  19.1146576
  17.8843772  23.6937642  11.9431531  18.8076484  23.5841608  12.1707237
  17.6739967  24.5859051  12.2189307  64.9458790  26.8358707  61.9186926
  64.6042824  26.1110854  61.3950253  64.1659307  27.2709203  62.2631407
  71.6979273  71.5959763  68.5105975  72.5319060  71.8644190  68.8961552
  71.7107590  70.6398439  68.5539196   1.9563991  40.9248734  27.3952723
   1.1245376  40.7515621  26.9545889   2.3479003  40.0598764  27.5166726
  19.8532319  68.7296963  11.3349640  20.5201650  68.3637571  11.9159293
  19.0327334  68.3398771  11.6367137  31.2750506  19.8649275  43.5737658
  30.5627894  20.2682042  44.0700340  32.0127606  19.8490465  44.1834879
  77.7411890  50.9339285   5.3591073  77.3638201  50.0814676   5.1420021
  78.5232210  50.9963465   4.8106915  11.1650217  23.8482594  23.6351442
  10.3426909  24.3026781  23.4520960  11.7372763  24.5249939  23.9967918
  18.3909333  27.5755668  22.8121328  17.6639807  28.1248999  22.5188661
  17.9981637  26.7142987  22.9541969  63.3430672  41.3417816  49.4126654
  62.7652168  42.0451927  49.1168118  62.8786135  40.9440470  50.1490927
   1.5999687  45.9109974  41.0320854   1.8706633  46.8265629  41.1006021
   1.2351425  45.8344364  40.1504564  23.2160282  29.1249490  17.6971459
  22.5559473  29.7014427  17.3122060  23.6444449  29.6625590  18.3632278
  79.7482157  38.8895345  12.5886822  79.5700359  38.1669950  13.1906974
  80.2957821  38.5026073  11.9055331  37.1431947  40.6167650   8.5591400
  37.8504062  40.9237432   7.9918265  36.4745903  40.2938557   7.9550445
  61.2235737  33.6464500  18.3646166  61.9060326  33.7664318  17.7042484
  60.4638338  33.3382177  17.8706324  38.1125617  58.0861044   3.4541896
  38.0702448  58.9336824   3.8969609  39.0197110  57.8021193   3.5667226
   9.3219626  28.7201929   7.7911621   8.7965310  29.3794060   8.2445866
  10.2175164  29.0551090   7.8363961  81.0909176  61.9335508  47.4488640
  80.5514622  61.2574005  47.8587914  80.4654217  62.4912024  46.9862556
  48.1935072  79.1247177  14.6502447  47.8381395  79.6696854  13.9481378
  48.8144827  78.5434103  14.2112660  18.5195279   9.0986425  31.6514039
  18.8406909   9.6210194  30.9164143  18.9510465   9.4742411  32.4188328
  16.4271295   3.8081896  35.9507251  17.1259129   3.1821272  36.1404061
  16.7218328   4.2645389  35.1626086   6.4260161  45.7281590  47.1082163
   5.5542332  45.5158949  46.7747927   6.6207916  46.5892553  46.7383528
  59.0213728  62.3957348  30.8712459  58.7542868  63.2298088  30.4849577
  58.7360334  61.7365026  30.2386141  16.4280069  44.4876909  17.3975933
  16.8393898  43.7753773  16.9080961  15.7914364  44.0522909  17.9645503
  54.6095276  55.2509117  61.1215878  55.5222654  55.3076458  60.8388901
  54.4339418  54.3115950  61.1771536  13.7841690  42.1675301   4.6387768
  14.2386758  42.4913645   3.8610962  14.3849862  42.3508072   5.3610367
  20.4858518  32.2411895  12.0286524  20.6893253  32.6510286  12.8694034
  19.5348620  32.1328139  12.0389497  18.3712459  57.3281717  19.2441893
  18.4635615  57.9269791  18.5031521  19.0521467  56.6696930  19.1062987
  29.9236727  44.4722271   2.7787632  29.6619868  45.1177454   2.1222158
  30.8685827  44.3778038   2.6584959   4.4655868  73.1983995  53.5085058
   4.3479878  72.8603268  54.3962574   4.8906574  74.0474081  53.6298847
   0.1792831   7.4804801  60.6541586   0.9057061   6.9169462  60.9205627
  -0.4964575   7.3285848  61.3148689  10.9920573  44.0271950  28.3748841
  10.8761239  44.2071104  29.3078494  11.8744206  44.3417692  28.1781340
  76.5303755  10.5564821  61.7505407  76.4206982  10.9815216  62.6011562
  77.2170544  11.0627973  61.3165569  21.6558099  51.0240126  36.0134411
  22.3445082  50.6784964  35.4455090  21.8826962  51.9464636  36.1310506
  29.5099330  79.0402842  51.9504356  29.8808289  78.1720543  52.1080589
  28.8662076  79.1562271  52.6492977  22.5892806  70.8055925  33.3028126
  22.2801828  71.7073250  33.3897948  23.3746338  70.7678938  33.8487363
  50.3263950  42.1263266   1.8281901  50.1284027  42.8884697   2.3724039
  49.5960617  42.0761585   1.2114774  68.1583881  57.6639175  38.6444473
  68.7553930  57.9343700  39.3420649  68.2505131  56.7119360  38.6060381
   5.9018928  47.3571491  13.3734441   5.4462647  47.5920534  14.1818094
   5.5823964  46.4792871  13.1648552  11.8408000  34.3481755  19.8000443
  11.5308893  33.4557652  19.9542964  12.0683563  34.3653703  18.8704455
  34.9159193  19.2676270  21.6436195  34.5763755  18.8565958  20.8486390
  34.3082356  19.9857879  21.8202424  16.0003054  79.3893528  64.8170853
  16.2052250  78.4666491  64.9682713  16.8159890  79.8508644  65.0117540
  25.7686853  27.7487445  64.6340084  25.1930833  27.0298314  64.8949242
  26.0990262  27.4908280  63.7734365   5.7362658  19.8963749  67.6689529
   5.4355544  19.0770483  67.2758770   6.4616108  20.1775432  67.1112299
  51.4921141  73.6214781  48.0731344  50.6459951  73.9767313  47.8009033
  52.0974255  74.3589973  47.9963636  73.8093805  45.0586653  35.1211929
  74.1056061  45.3766584  35.9740496  74.6165085  44.8803663  34.6385145
   8.0446553  48.0496931  20.5152225   7.5286525  48.6779165  21.0205030
   8.6971653  47.7226305  21.1344910  74.6343088  50.7065725  17.8337443
  75.5197001  50.5559206  18.1648374  74.5984125  50.2145863  17.0134425
  11.8174398  49.5150948   8.6031169  11.1919534  48.8268852   8.8297623
  11.9983983  49.3775415   7.6732969  51.0389090  39.3205428   1.8137085
  50.7786417  40.2416182   1.8241067  51.7365694  39.2761564   1.1598475
  17.3688841  66.7945719   7.9436505  16.7856169  67.3604965   8.4493780
  17.4669564  66.0093164   8.4821570  62.2124004   6.6771549  67.0359993
  62.6471376   7.3476875  67.5628948  61.5631199   7.1588838  66.5235472
  71.8199921  78.1368732  38.3604312  71.3895035  77.3686934  37.9851794
  71.2489367  78.8689947  38.1277704  80.0394630  44.6545124  36.5959191
  79.1403246  44.3984985  36.3904095  80.4657555  43.8396645  36.8614936
  67.2117949  27.6170611  42.1380568  66.3568068  27.4908137  41.7265987
  67.2425318  26.9596291  42.8330898  52.6894283  28.5781455  45.5971956
  51.9215584  28.6993885  45.0387096  53.4346008  28.6766696  45.0045347
  19.6302402  23.0257607  17.6758087  19.0506756  22.4836278  17.1406174
  19.5922804  22.6297569  18.5464251  64.6563864  67.2738218  42.2704554
  65.0566435  67.9853344  41.7706776  65.3786469  66.6722202  42.4511433
  59.7368240  74.7233105  18.5097909  59.1699314  74.7568035  17.7392447
  59.3705750  75.3772068  19.1051960  77.8328943  60.0446844  10.4833889
  78.5713816  60.4796028  10.9096730  77.1649075  60.7260609  10.4076028
  20.8887935  52.3277998  11.4113688  21.6134787  51.9627142  10.9036541
  20.4989624  52.9844904  10.8342898  58.3148956  14.1621029  51.5642500
  59.0413046  14.0534961  50.9504366  57.9355478  13.2868779  51.6436768
  55.0831842  35.9023285  61.1052513  55.5114555  36.6881084  60.7656002
  54.3559170  36.2344480  61.6315699  65.1083183  10.5203152  36.9694662
  65.3818464  11.4016604  37.2237158  65.9273434  10.0358009  36.8661594
  60.9466696  27.2874475  10.2087486  61.4809847  27.8719902   9.6711159
  60.2422285  27.8442121  10.5404246  83.0321789  42.4144125   5.2351743
  82.4690628  41.6662025   5.0368935  83.5451794  42.5460291   4.4378415
  21.5800714  39.7067690  19.3320310  22.0227337  40.1861715  18.6317050
  21.0050869  39.0925837  18.8755226  72.0759344  47.4810266  14.6105373
  72.0668173  47.2432518  15.5376887  71.1735439  47.7372837  14.4201100
  30.2468038  55.9212351  36.6678882  30.9167147  55.4980659  36.1308765
  29.4960332  56.0179377  36.0820341  13.0872095  67.7118158   9.0067536
  12.7803636  68.1073284   9.8226261  12.5689685  68.1381369   8.3241779
  79.4188118  48.3898544  12.4937046  80.1988411  48.8832235  12.2399795
  78.8183212  48.4950495  11.7557502  65.6252670  52.0500517  65.0864267
  65.8346033  51.1311340  64.9191046  66.4164448  52.5258160  64.8336029
   6.7670554  78.7005758  32.1366668   6.0506308  78.1521559  32.4563622
   6.8685073  79.3766451  32.8066492   7.7686709  57.9261541  32.0098734
   8.0022931  57.3121834  32.7060699   7.4443108  58.6994743  32.4713969
  24.9789762  10.9959817   6.9545788  24.9124622  10.0499773   7.0845157
  25.8982325  11.1431205   6.7319781   2.7840632  56.5674162  39.3247271
   2.5540581  57.0076990  38.5065079   2.7113348  55.6344700  39.1233492
  17.0612228  66.6965437  18.9568901  18.0141544  66.6761446  18.8689315
  16.8479204  65.8969498  19.4379115  21.4351273  38.3147883  11.9705057
  21.3171363  37.8519106  11.1410165  20.6884813  38.9117002  12.0200062
  72.1310091  42.9792738  34.6716452  72.0810938  42.8512812  33.7243557
  72.6649809  43.7663794  34.7791767  51.3606596  43.6641073   6.1444318
  51.5699148  43.4768200   5.2293539  51.9979668  43.1546640   6.6449708
  63.1823921  12.7043331  38.0970168  62.3966885  12.7137291  37.5503731
  63.8953590  12.9185545  37.4953341  25.0894618  62.1349239  25.3392100
  24.8258042  62.9187822  25.8211637  24.2664361  61.6900969  25.1367497
  10.1722503  69.8299837  18.2646477   9.8542017  70.5609417  17.7347589
  11.0194588  70.1261997  18.5974061  66.0858488  69.3557882  11.4738667
  65.9597063  70.1876879  11.9302249  66.1257982  69.5943165  10.5477238
  25.8837986  67.6949453  20.8414721  26.3758087  66.9163656  20.5807519
  26.1884093  68.3808517  20.2473521   5.9964377   3.7706858  63.0726576
   6.1463815   4.6567845  62.7431488   5.4495889   3.8930699  63.8486814
  48.0565548  22.4452353  64.1012764  47.6313782  21.5986967  64.2385054
  47.5298023  22.8709722  63.4248829  72.7136898  23.8412547  52.0894575
  73.3224583  23.1538391  51.8191051  72.2038555  23.4452987  52.7962208
  83.9131069  10.6963181   3.9863306  83.5502529  10.2227569   4.7348678
  83.4337902  10.3546190   3.2315266   1.4289477  49.4029379  22.3521924
   0.6318349  49.5398092  22.8641582   1.6387242  50.2678204  21.9997740
  76.7205524  69.8790884  29.9228477  77.5698471  70.0139856  30.3432417
  76.5938902  70.6593275  29.3830228  31.3050461  72.4133873  67.8348637
  31.9060230  72.3226357  68.5743380  31.2062287  73.3586550  67.7211475
  73.0576944  43.5151768  39.7266817  72.2113848  43.5853386  39.2850113
  73.2562828  44.4085598  40.0071526  78.3670998  71.4424610  14.9752426
  78.9884806  70.9318542  15.4942799  78.1775808  72.2097397  15.5152380
  46.4000940  25.1895165  54.1524935  46.6017389  24.7888207  54.9980783
  47.2420788  25.2280164  53.6988258  54.7486877  78.5150146  45.6801367
  54.2004967  77.8441381  45.2731466  55.2696085  78.8685179  44.9590921
  43.5800409  36.6633034   7.3761618  42.7639914  36.9731688   6.9833755
  43.7582779  35.8329988   6.9345105  25.0594902   7.7117640  67.7054739
  25.8671451   8.1565702  67.9625130  24.9622822   7.0044327  68.3430195
  12.7086353  45.5657291  19.9116576  12.6380491  45.4797029  20.8623672
  12.6888299  46.5097237  19.7544563  36.1837769  73.2748175   6.3251978
  36.1778498  73.5179853   5.3994197  35.3562570  73.6133146   6.6670489
   7.7704257  53.5041523  43.8974428   8.0436820  52.7581310  44.4313145
   7.5067580  53.1173801  43.0625057  83.4980488  38.9318609  30.5457711
  84.1492844  39.6000481  30.3321052  83.7106419  38.1974101  29.9699116
  66.7906380  61.4503479  17.1915269  67.3678303  61.3630104  17.9501140
  67.0875454  62.2489882  16.7553473  75.4770994  70.8340740  17.6098979
  74.9928093  70.6929398  18.4233952  76.3938904  70.8781958  17.8815103
  75.3211689  70.4335785  64.2041969  75.3574657  71.0352039  63.4605837
  74.4195127  70.1122856  64.2085457  27.0283890  48.3675623  13.7423468
  27.1364355  48.7654352  14.6062076  27.2701788  49.0603209  13.1276476
  83.6329079  37.4822807  26.0778904  83.9251900  37.5744534  25.1710820
  84.0000725  38.2439804  26.5264821  31.5797210  23.0299664  48.4352303
  31.8372965  23.4843683  47.6331043  31.7922115  23.6446834  49.1375160
  78.0410671  26.0743356  17.1655142  78.4922743  25.2374601  17.0546758
  78.6700726  26.7279005  16.8598366  24.5830226  58.4486675  15.8409286
  24.3895459  59.3859434  15.8232880  24.0497470  58.1075001  16.5588784
   2.6247373  57.9129314  43.3771420   2.1937230  58.5091162  43.9895344
   1.9126484  57.5647640  42.8405428  75.9028530  52.4100494  23.5973978
  76.1000061  52.0281219  22.7421236  76.5530634  52.0271349  24.1863275
  61.7870045  48.5243273  45.0763416  62.5904512  48.1595659  45.4473591
  61.9786215  49.4546700  44.9581194  10.3493428   6.4941293  14.5487237
  10.8380079   6.1960936  15.3159344  10.3950119   7.4492663  14.5918500
  77.0092773  45.0021172   4.0370059  76.8829536  44.8609495   4.9752733
  76.5153551  44.2961884   3.6199510  10.5965853  60.4060745  45.0090551
  11.0370004  60.1694345  45.8253098  10.9511673  59.7978544  44.3605423
  14.5473337  43.5818052  19.1176736  14.0052438  44.3104792  19.4200003
  14.6231639  43.0074501  19.8796439  36.0303283  59.2881441  12.9110086
  36.5523911  58.4959745  13.0380666  35.6518745  59.4662380  13.7719905
  57.2304153   4.6129826  24.4681001  57.9810905   5.0671107  24.8508358
  57.3531723   4.7017816  23.5229659  15.2503228  13.8719082  11.1292136
  15.5209577  14.1212642  12.0128477  15.9770811  14.1460180  10.5698216
  42.1168375  71.3885927   2.6284459  42.4698687  71.6135597   1.7676383
  42.4644470  70.5152273   2.8090894  69.0459776  60.6793547  26.5234995
  69.5943832  60.1753950  27.1247554  69.5757008  60.7650471  25.7308578
  80.1087189  60.3799248  27.7616429  79.6373415  60.2574587  28.5856795
  79.8982763  61.2751484  27.4960876  40.8892870  69.5992708  13.4338129
  40.3308105  68.9048386  13.7832391  40.7163954  69.5947313  12.4923658
  32.0295215  49.4554186  13.3971739  32.5441909  49.4341993  14.2039549
  31.3968325  50.1603270  13.5351539  34.1824555  10.0326598  56.6337395
  33.9061475  10.6454301  57.3152065  35.1387858  10.0474298  56.6717911
   4.3388513  32.8730416  11.6776776   4.5422363  32.0756721  12.1666229
   3.4361106  32.7502537  11.3840556  33.4201026  68.5467768  16.0286093
  34.1652060  69.1241837  15.8623099  32.6577973  69.1249228  15.9990597
  67.2412014   6.4417452  65.2200222  67.5363731   5.5398071  65.0950766
  66.2955856   6.3685679  65.3492069  75.1721239  56.1428642  25.8005309
  75.5382299  55.4497528  25.2511740  74.4482470  55.7229805  26.2652111
   5.9830320  42.6878643   4.9064589   5.3169608  43.2430935   4.5011196
   6.4917982  42.3479128   4.1703731  63.3213329  33.2973909  20.0006461
  62.5019503  33.5045576  19.5512879  63.6432362  32.5103974  19.5610416
  83.4574509  62.3732185  21.6726565  83.5465431  61.7494345  22.3932052
  82.9549980  61.9015980  21.0083175  60.7100916  63.2709455  60.8857584
  59.9760294  63.6931276  61.3320208  60.5785608  63.4773779  59.9603844
  25.1546359  53.6348629  50.3603363  25.2002048  53.7140274  51.3131714
  24.9456835  52.7135420  50.2062702   8.5132790  53.7411213  55.4082727
   7.7941644  54.2762566  55.0725031   8.2166994  52.8389549  55.2884197
  83.9405632   5.1033312  36.3993835  83.1475258   5.1222658  36.9350767
  84.6076775   4.7253370  36.9723654   9.9541104  56.6094494  46.5240288
   9.1544729  56.5068865  47.0400667  10.6087089  56.9108629  47.1540165
  37.7724743  79.0855694  64.4062996  37.8543258  78.3767605  63.7682390
  37.3394799  79.7913313  63.9260387  11.2767625  79.3999481   1.9022551
  11.6069579  78.5481405   2.1879598  11.4373088  79.4148636   0.9587328
  38.1341076  30.6721663  17.3652792  37.2066164  30.5360913  17.5588715
  38.5009718  31.0155034  18.1799948  21.0559154  58.5377502  26.9214201
  21.5162420  57.9658461  27.5356293  20.7666492  57.9532814  26.2207389
  21.3832140  72.8850269   1.7713770  21.1427999  72.3781633   0.9958006
  21.5694976  72.2258854   2.4400048   3.1430149  23.9460564   4.0201917
   2.7963999  24.4729257   4.7402599   3.0327275  24.4972372   3.2454211
   3.3326325  34.0490413  34.4318891   2.9382142  33.2176280  34.6953607
   2.6166099  34.5347023  34.0224051   8.7891763  67.3972702  16.8362200
   8.5054517  68.0686522  17.4566889   9.5968062  67.0484686  17.2134542
  12.3808467   3.7318403  52.9512215  12.3634803   4.4121745  53.6243296
  13.2236779   3.8498333  52.5131083  67.5969648  30.3952789  50.1752520
  67.2826719  31.2093520  50.5686140  68.5101748  30.5744600  49.9512529
  20.0672436  76.5051222  29.7496533  19.7533607  75.8253622  29.1532993
  20.8250213  76.8836021  29.3038297  30.3010082  50.5148268  26.7445755
  30.9774065  50.8588314  27.3279953  30.7473803  50.3914309  25.9068656
  55.2841330  64.2774296  21.7175245  55.3527260  65.0087833  22.3312473
  54.3781710  64.3070173  21.4099669   8.1625921  74.8236704  17.3822653
   8.9170885  75.2879715  17.7447474   8.1166732  75.1153612  16.4717484
  30.9655428  59.5743799  13.7238085  31.2180996  60.3061438  13.1608105
  31.5043592  58.8430119  13.4221256  36.3874435   6.2537736  34.8276377
  35.4716921   5.9753489  34.8171282  36.4711785   6.8304521  34.0682554
  10.3539419  71.1578703  41.6422796  10.1943493  70.8001137  40.7689142
  11.3061810  71.2375784  41.6981268  25.0884032  56.6758347  46.2497854
  25.1053023  57.3382235  46.9405699  25.5765891  55.9374237  46.6140079
  78.5248661  78.7863255  27.5232720  79.1882658  79.1772842  26.9546914
  77.6922226  79.1015148  27.1717167  10.8153188  72.7466679  29.6077180
  10.8638418  72.2263193  30.4096651  10.6737435  73.6430883  29.9120498
  58.1039572   0.4456106  29.6804094  58.4951639   1.2983364  29.4905424
  57.8051853   0.5157017  30.5870819  48.4630823  18.8490343  10.0771737
  48.4870148  18.9573312  11.0279274  49.3668222  18.6451459   9.8365176
  66.1214209  45.6366062   3.8432771  66.0363579  46.4979506   3.4345195
  65.6494999  45.0454712   3.2566950  22.1635127  32.5660181  34.1069937
  22.7248359  31.7932367  34.1699004  21.2745762  32.2250295  34.2057252
  83.5706997   2.5577468  66.6197252  84.4016743   2.3445833  66.1951256
  82.9533100   1.9123968  66.2753725  25.3449297   3.1477937  23.4648585
  25.6128669   4.0535378  23.6199975  24.4063902   3.2031077  23.2850814
  12.7664113  70.2906227  39.1086459  12.9536366  70.8768797  38.3755136
  12.8983867  70.8312988  39.8874187  19.0244615  60.3418589  27.7251410
  19.3727064  60.9414005  27.0652103  19.7800100  59.8217201  27.9987049
  11.1607337  47.4617338  62.9523659  11.4607954  48.3426189  62.7282381
  11.8412018  46.8824244  62.6094389  21.5947843  73.1819057  43.5055733
  21.8389773  73.3291340  42.5918341  21.8968606  73.9662600  43.9635849
  40.6162357  53.6926746  37.1099734  40.0763988  54.2072773  37.7099657
  40.0333309  53.0011511  36.7965174  40.0195646  66.6852331  28.0943727
  40.4138613  67.5519991  27.9970098  40.7607889  66.1018038  28.2569575
  59.6874380  18.6318934  27.1100593  60.1596355  18.3075154  27.8768969
  58.7631750  18.5415983  27.3420310  62.3818016  76.5402079  67.4519491
  61.5717030  76.0466051  67.3241854  62.0968342  77.4498606  67.5388813
  44.6458960   5.8601862  40.9310579  45.1325703   5.7939667  41.7526388
  43.8470411   6.3335663  41.1633825  19.8124695  59.2798948  48.6511755
  19.3564975  58.4437752  48.7472153  19.4563973  59.8285484  49.3500519
  11.9854891  40.3411722  26.0755038  11.3538826  40.9470701  25.6879616
  11.4590263  39.7749305  26.6398096   3.3678278  54.0022755  17.1501303
   3.6566851  54.3414211  17.9973459   2.7632529  54.6667433  16.8196666
  21.0594964  67.1129990  30.9339380  21.2539124  66.3231134  31.4384317
  20.3655386  66.8471241  30.3306460  64.3778515  61.0072994  10.3380001
  64.9358511  61.6372967  10.7940388  64.5441484  60.1753139  10.7811463
  72.9799700  66.5629768  49.5287085  72.7057505  65.9391499  48.8564920
  73.8565874  66.2730837  49.7811794  26.6101909  42.2805929  11.5203810
  25.6996012  42.4048138  11.7880166  26.5711379  42.2024202  10.5671787
  16.2386477  73.0110121   3.8636163  17.0786715  72.5774765   3.7131423
  15.5933070  72.3056126   3.8169140  69.8871994  18.3058405   2.5068420
  70.5859041  18.4147191   1.8617140  70.1981640  17.6058161   3.0808616
  17.5465775  67.0259094  59.8580599  16.9696724  67.0991135  59.0977621
  16.9571233  66.8400764  60.5889797  35.7435918  51.2421370   2.4381430
  35.0124931  51.7979383   2.7079666  36.5219378  51.7758226   2.5981098
  60.9855652   1.7454150  32.5113726  60.6923246   1.6854665  33.4205747
  61.5663767   2.5061226  32.4967003  63.7825060  65.2882099  11.5344703
  63.6330843  64.5284271  12.0971751  62.9690027  65.7897615  11.5882385
   9.8305082  47.9822826  31.7787910   9.4694191  47.5391293  32.5465560
   9.8201281  47.3165846  31.0910630  73.4349680   8.8530916  27.2049260
  73.1132269   7.9517663  27.2230625  73.1287146   9.2333388  28.0282450
  40.2913094   3.2137352  32.2606421  40.9753561   3.8758078  32.1607733
  39.7464347   3.5385448  32.9774714  29.6077967  53.2885504   9.9579525
  30.0340676  53.9040947  10.5543005  28.7253141  53.6404133   9.8411238
  11.0913289  29.9466181  52.6565886  10.3779423  30.4703331  53.0213261
  10.6591141  29.1748261  52.2908545  83.4569931  21.1379194  53.6397409
  83.8057327  22.0244813  53.7326193  83.5264015  20.7601690  54.5165062
   2.4010606  47.3937464   9.8684120   3.1497753  47.6854467   9.3482494
   2.4733093  46.4393234   9.8779249  84.0872235  41.0590172  60.9007025
  84.7173402  40.4354858  61.2617970  83.5689839  41.3397598  61.6549158
   5.0819314  40.7629585  34.1198468   5.0709206  41.3394833  33.3558273
   4.8362607  39.9042892  33.7755108  74.6070051  78.4182310  24.7153568
  74.4239473  78.6254597  23.7989616  74.0120554  77.6972294  24.9213338
  19.2326689  46.3697433  41.4446974  19.1652000  45.4930687  41.0663843
  19.7048330  46.2399960  42.2671700  34.1166878  45.9465599  11.5558028
  34.0204167  45.9918928  10.6045353  33.2208347  45.9933424  11.8897009
  57.8356934   0.0923278  18.1990135  57.6089668   0.9847802  17.9375648
  58.5990429  -0.1271284  17.6648176  42.7673864   5.4259449   8.3110130
  42.3869419   4.6757072   7.8542459  42.2009420   6.1612207   8.0770433
   9.5107955  72.5759935  17.1663463   9.0255427  73.3959055  17.2585750
   9.1622317  72.1799231  16.3676822  27.5331950  61.5716600  43.0553341
  28.2149625  61.1019325  42.5749302  27.9705071  61.8845701  43.8472128
  29.1995406  32.5503039  15.1151788  28.3254290  32.2212005  15.3245866
  29.4261479  33.1151509  15.8539820  66.3733912   7.7497756  30.9676576
  65.5778790   8.2658213  31.0983896  66.0620785   6.8495673  30.8730936
  42.6772261  21.0539889   9.1012114  43.2546234  20.2951312   9.1847432
  41.8076706  20.7184720   9.3192285  19.7880602  63.8986826  18.5289311
  18.9848161  63.4676504  18.2369649  19.8923981  64.6400928  17.9325664
  17.1606755  75.1007509  18.6258793  16.5099728  75.1629639  19.3251276
  18.0016077  75.2035093  19.0714180   1.9975537  79.3366718  22.6357222
   2.3621655  78.4846544  22.8752089   1.1854516  79.1283894  22.1738315
  22.6119876  43.7105942  28.0823874  22.3672509  42.7904320  27.9842091
  23.3422542  43.6994982  28.7011123  29.4809890  73.9905834   0.3906333
  29.9631929  74.7863913   0.6151403  29.8342323  73.7282801  -0.4594533
  67.5156927  74.0194321  21.4112210  68.1638765  74.6505928  21.0986090
  68.0239391  73.3838177  21.9151139  55.7362175  21.1153078  26.2605309
  55.3056526  20.3814554  26.6990519  56.1671591  21.5968394  26.9666815
  15.2377784  27.8003073  35.5728626  14.8607147  28.1567478  34.7684956
  14.9256432  28.3851290  36.2633586  73.1359482  -0.1161650  63.9954138
  72.6271057   0.6236275  63.6637259  73.7372780  -0.3320314  63.2826471
  79.1367102  49.8522043  22.4346375  78.8427591  49.5821095  23.3046222
  79.7597075  49.1748762  22.1713305  61.2174702   3.8522738  26.1493969
  61.6094160   4.7236142  26.2074924  60.2742243   4.0110329  26.1856890
  64.6665859  51.2449551  36.3667750  64.9620628  52.0383024  36.8134546
  65.3592825  50.6052208  36.5315437  13.3921885  70.0424051  25.2191401
  12.5008881  70.3803110  25.3065085  13.7349486  70.0369549  26.1128497
  24.6406031  30.1186681  37.5107336  23.9275837  30.6326079  37.8898096
  24.6198535  29.2903256  37.9899549  58.0019712  75.2908897  37.6344991
  58.2420492  74.3676805  37.5552654  58.7292242  75.6871510  38.1144071
  12.4657202  54.2492819  29.3603945  13.2925224  54.1403103  28.8905478
  12.0107758  53.4155989  29.2411208  80.4006195   6.6832328  60.1722336
  80.8064747   7.2812271  60.7998610  80.2890778   5.8659178  60.6578112
  79.2036438  66.4410925  60.2121496  79.2954636  67.1663666  59.5942688
  79.9144936  66.5699577  60.8400965   3.0227390  38.3255291  27.4322033
   3.8556635  38.1712341  27.8779173   2.8202841  37.4918962  27.0075870
  69.5120716  14.3843138   1.5148260  68.9343405  13.7857938   1.9883576
  69.1043472  14.4799423   0.6541008   5.3845513  56.0913849  11.8953252
   4.9144262  55.2928925  12.1353841   4.8468047  56.8008518  12.2470534
  83.5108471  69.8597479  16.1581302  84.0609074  70.0539303  15.3992128
  83.4292793  68.9060307  16.1570752  28.0502462  68.3242083  62.8423929
  27.8542614  67.3877382  62.8133345  28.9973664  68.3667183  62.9742575
  67.1188164  46.5247440  61.5210247  67.3589945  45.8917522  62.1976805
  67.6503992  47.2966242  61.7155981   6.0842353  37.2026062  42.3435402
   5.5856353  37.9255724  42.7242613   6.9557810  37.2824264  42.7311850
  76.5729809  26.6863632  10.2831161  77.1969891  26.4215446   9.6073055
  76.8642330  26.2275314  11.0710740  45.8407927   4.5861810  30.2625465
  46.7783308   4.4707298  30.1078725  45.4233027   3.9313594  29.7029567
  25.4909968  53.2063341  14.0801561  24.7494125  53.5980368  13.6187947
  25.4610801  53.5944080  14.9546468  13.5109031  29.4850254  63.5254192
  12.7836370  30.0990152  63.4237671  14.1933036  29.8240113  62.9460669
  24.1038275  51.3820076  21.2608719  24.2531228  52.1541071  21.8065834
  23.1530333  51.2714958  21.2572360  18.3083367  59.6835184  30.8570552
  17.6376128  59.5816803  31.5323257  17.9242265  60.2943897  30.2281475
  67.6690292   5.2132767  37.4701786  67.6958513   4.6982852  38.2765865
  66.9956207   4.7897831  36.9378233  52.0952368  78.9536715  43.8394356
  52.4426079  78.3470774  44.4933510  52.3964167  79.8152018  44.1280317
  71.3416958   5.5739504  21.7792654  71.0236263   4.6712604  21.7939234
  70.7140017   6.0401314  21.2270832  66.5468311  21.0980082  64.2340279
  66.8307161  21.6675234  64.9490738  66.6945457  21.6156030  63.4425068
  71.5778971  71.3419437  28.9074492  70.8066130  71.4836597  29.4563246
  71.2255621  71.2223577  28.0255246  61.3391352   1.6954552  27.9014444
  60.6204748   2.1892551  28.2963133  61.6087961   2.2241630  27.1504569
  37.3915601  36.6088605  19.4001865  37.7476835  36.9321036  18.5725868
  37.2464681  35.6747293  19.2499197  72.2777319  68.2030106  25.7542300
  72.1978235  69.0954208  25.4174137  72.6761436  67.7108574  25.0363946
   4.0219799  26.1473083  57.6163721   3.2335094  26.0007811  57.0938063
   3.9501145  27.0559239  57.9087496  11.5716374  75.2951956  58.7203264
  11.3888550  76.1934948  58.9957952  10.7167912  74.8645592  58.7251472
  74.2185402  30.5055809  29.2309332  74.9092817  30.6247544  28.5790873
  74.6739197  30.1729703  30.0043869  24.1420770  63.6777163  33.3372140
  24.3185163  63.0635786  34.0499115  24.6564865  63.3452034  32.6016545
  65.3866196  55.9941339   1.1237289  65.0459623  55.1644564   0.7893468
  65.9392929  55.7449961   1.8644834   3.4367731  12.1569586  53.1571007
   3.4093294  12.2035563  54.1127729   4.1710815  11.5731835  52.9667568
  17.4779749  35.3560710   7.0255923  17.5810349  35.6928682   6.1355489
  18.0901468  34.6219659   7.0762706  22.7045631  68.6053276   6.9959092
  23.3118868  68.0193949   6.5441662  22.6866460  68.2832289   7.8971094
   5.7850921   3.4212831  53.3328247   6.6378814   3.8370904  53.4596586
   5.2718985   3.6900088  54.0948296  38.7831330  66.6260290  25.0754452
  38.8477492  67.3082876  25.7437134  37.9585624  66.8091679  24.6251369
  56.9249630  67.6076221   4.8696229  56.2692308  68.2065630   4.5125255
  56.5988779  66.7354870   4.6476331  23.8917184  10.3850627   2.6715854
  24.4956708  10.3091884   1.9328590  24.3046522  11.0225999   3.2540482
  58.6759996   6.3891834  59.4576406  58.4010792   6.2423420  58.5526085
  59.4069529   7.0034027  59.3892622  46.6687250   0.8221429  64.7482014
  46.5728331   0.2429544  63.9921713  47.3946571   0.4470307  65.2467442
   6.6886616  54.3905401  18.1246781   6.0665554  55.1118851  18.0304527
   7.5479531  54.8013306  18.0292761  57.8434896   7.0548201  51.8824005
  58.2270765   6.3968736  51.3025761  57.7585840   6.6104054  52.7259207
  76.7743206  67.7332687  43.4507608  76.2451029  67.0720339  43.8967848
  76.8249893  68.4590244  44.0728092  56.8323565  50.6221533  41.3149691
  56.9456720  51.5275478  41.6041946  55.9052515  50.4370880  41.4648628
  73.2721758  38.2509136  11.6221094  72.9940462  37.4987841  11.0994506
  74.2245293  38.1687641  11.6721797  56.1520243  48.3762980  38.7717223
  55.8014393  48.1340361  39.6288276  55.4028273  48.7415171  38.3010268
  22.8387833  58.1386042   4.3916050  23.1187558  57.2584534   4.1402456
  23.5445428  58.4639978   4.9504000  32.7472186  66.8432903   0.7295593
  33.6492777  66.7220736   0.4332059  32.5963402  67.7858400   0.6583709
   8.3751577  36.3074684  49.0683794   8.0388671  35.4218912  49.2058277
   7.6309103  36.7939568  48.7138987  33.6233354  42.3598051  64.6442699
  33.5718775  43.2921171  64.8549318  34.5600104  42.1870804  64.5491934
  15.7002056  64.9392033  47.4890375  15.8615315  64.7986364  48.4220123
  14.8890376  64.4629383  47.3118114  17.5043964  45.9636021  35.9532428
  18.2021666  45.9955120  35.2987742  17.1142066  46.8373585  35.9301448
  51.6411448  14.7916687  51.6942167  51.6283226  14.0027022  51.1523676
  52.4135590  14.6880186  52.2499704  36.3977790   5.9138161  23.7969732
  36.5075970   5.6389338  22.8866911  36.7524648   6.8024886  23.8232636
  41.2730217  78.2035065  33.1031632  41.1627436  77.5203800  33.7645316
  41.7487240  78.9001989  33.5554481   5.0282407  61.0253620  16.1355412
   5.8708704  60.5901718  16.0058522   5.2570295  61.9186401  16.3923311
  82.2484684   0.9449387  36.0381842  81.9308090   1.4185591  35.2694130
  82.9828453   0.4245768  35.7123733  26.0792303  75.8046389  36.1922622
  26.8297720  76.3980484  36.1642122  25.5801797  76.0857487  36.9591761
  79.7966242   5.2650797  10.2964830  78.8625574   5.3929418  10.4620373
  80.0037670   5.8876735   9.5995617  76.7042255  16.5883899  15.5658734
  77.1753883  17.1185863  14.9231207  75.8976889  16.3311577  15.1191521
  75.1838541  34.1872001  37.2159529  75.1037121  33.2587838  37.4347067
  76.1216927  34.3208599  37.0787716  42.3514652  68.1627846  43.1394434
  42.9058504  68.0156708  43.9057684  42.5994110  67.4694920  42.5278091
   3.4271008  24.9549174  50.3981352   2.6051572  24.5287752  50.6411219
   3.1619686  25.6862974  49.8404455  71.9934893  70.2602911  44.1542768
  72.1157408  69.3343973  43.9444971  72.3737144  70.7267570  43.4099245
  81.2606525  20.1380777  15.6916368  81.5367126  19.3259728  16.1165011
  80.3802490  19.9507487  15.3660047  17.3052645  67.7942133  51.3921595
  17.9734600  67.1627474  51.1256981  17.7694738  68.6301899  51.4355183
   3.0865890  49.3024445  56.6418219   2.3114011  49.0498924  57.1433544
   3.7825838  49.3716383  57.2953033  54.0627956  42.9113007  66.4549112
  53.3486509  42.2850084  66.5731907  54.4778204  42.6489401  65.6332302
   5.8670342  42.8860044  64.4352341   6.0965699  43.7766409  64.7003937
   6.5615565  42.6303244  63.8281918  24.6908736  57.5192356  34.3926311
  25.4521918  57.7386713  34.9297261  24.1812873  58.3287477  34.3573642
  37.8530598  67.8110075  29.0921092  38.6761069  67.4272919  28.7894797
  37.2375536  67.0780563  29.1050458  56.9465113  31.6236925  12.9402721
  57.7983570  31.4587736  12.5360513  56.3123655  31.4311576  12.2496057
  78.0206203  40.6338310  64.1555071  77.7836418  41.5536785  64.0373993
  77.4520016  40.3288841  64.8625565  58.7490797   5.2299005   8.6901075
  58.6614370   5.2138937   7.7370620  58.8779116   4.3133593   8.9342099
  30.5981898   3.2519561  59.1500807  31.0769272   3.0382106  59.9509287
  30.6644654   2.4621448  58.6133909  18.7077403  67.1421480  39.4953990
  17.7992773  67.0902634  39.1983557  18.9335585  68.0688238  39.4147062
  32.3599863  63.4954834  24.5216322  31.8614626  63.8432217  25.2610803
  32.2975683  62.5450420  24.6164680  77.2234583  68.9875460  14.7663760
  77.3058128  68.8051939  15.7024288  77.7879047  69.7465611  14.6196556
  31.0330987   2.3171958  26.2997103  31.2931609   2.8721920  27.0349526
  30.9760976   2.9165953  25.5555987  74.3697739   7.5727654  30.1330948
  75.0458384   7.8520024  29.5156813  73.6238956   8.1425548  29.9453855
  58.8413477  75.2175331  29.2532325  58.6293793  75.5080557  30.1403046
  58.0492830  75.3971720  28.7466836   2.8816047  12.7110565   5.0919157
   3.0608368  13.6442387   4.9766830   2.4849036  12.6488686   5.9608191
   6.3777333  63.0360365  24.1959810   6.1528289  63.9051008  24.5282054
   7.2185433  63.1583357  23.7551713   7.5497216  43.0418921  22.8083515
   7.8992754  43.5867071  22.1032095   8.2057875  42.3552752  22.9282045
  28.5115361  25.2393484  60.9793758  27.8742099  25.8314347  61.3787222
  29.1907382  25.8175111  60.6320333  21.5027952  73.6664057  15.3276885
  22.3358512  73.9022446  14.9194860  21.0056281  74.4841337  15.3471553
  56.5134859  60.6409025  34.4343710  57.0791245  61.3038111  34.0383410
  55.8526039  61.1435127  34.9106598  52.8351164   6.0208601  16.2557614
  53.4221363   5.7226259  16.9505239  51.9564342   5.8922946  16.6130078
  42.2792435  31.9752526  63.0471849  41.7133808  31.5586519  63.6971712
  42.9431200  32.4310946  63.5645914  82.7496624  45.9391212  62.7812433
  82.3220444  45.9111786  63.6371565  82.8650188  46.8721867  62.6014805
  36.1963058   5.4656482  53.3286047  36.7133212   5.8490878  54.0370560
  36.7814469   5.4781854  52.5711870   5.8424616  53.8772440   0.8381741
   6.4927447  53.3875656   1.3417381   5.1853502  54.1368818   1.4839478
   6.9567269  77.9096937  22.1710134   6.3136166  77.9105186  22.8799844
   6.5155083  77.4639320  21.4479280  74.6906805  19.7272122  22.7044344
  74.0353632  19.1552067  23.1039333  74.1880989  20.2975321  22.1227360
   3.3586535  51.9097853   3.1260771   3.0578870  51.9760180   4.0323800
   3.6263862  52.7997541   2.8969273   1.9373536  24.9908543   1.6867876
   1.1192973  24.9422836   2.1814159   1.7688565  24.4807911   0.8945269
  61.3482285   1.9279644   3.5398322  60.6994343   2.0992841   4.2224371
  60.9426022   1.2610567   2.9858166  26.8466949  34.8564696  16.0772169
  27.5850368  34.7729635  16.6806328  26.1737561  35.3113532  16.5836406
  41.6367817  15.6344903   3.6401796  41.5948343  14.9984133   4.3542373
  42.4816418  16.0692513   3.7560263  36.5221763  62.3975229  13.0621481
  36.3493323  61.4563513  13.0386221  37.2700167  62.4890184  13.6525691
  79.4476461  46.5541458  44.0813684  78.5690451  46.8532658  43.8472366
  79.9614334  46.6713572  43.2822990  81.1077976  39.7060943  27.9714799
  81.3202286  40.5644226  28.3380532  81.0257816  39.1335583  28.7341785
   1.8726046  34.6496511   1.9120322   2.0042969  35.0151658   2.7868396
   1.0909159  34.1035938   1.9957919  62.3230839  24.5476270   2.5613120
  62.2356224  24.3326354   3.4899461  63.2460880  24.7776461   2.4546158
  35.8598351   9.8910761  60.0136185  35.5298972   9.0455735  59.7094822
  36.5069270  10.1462483  59.3560505  65.9505033  28.7124443  58.5452127
  66.5411949  29.2513824  58.0190372  66.2843847  28.7933731  59.4386339
  67.8961325  70.1886940  56.6013145  67.2162294  69.8141956  57.1614170
  67.6913118  71.1231375  56.5681648  16.9565058  53.8824463   7.4377871
  16.4386582  54.6276999   7.1333802  16.3407838  53.3546829   7.9462981
   4.8342389   7.5108212  60.7537603   4.8535809   8.3859122  61.1411572
   4.4020349   7.6326132  59.9084234   1.1431708  18.7098229  18.2692027
   1.0774332  19.6250963  17.9968357   1.7276597  18.7268353  19.0270376
  52.3267221  63.7881327  58.6170292  52.9533863  63.2554770  59.1067266
  52.8613997  64.4627905  58.1984758  62.5737619  78.1104898  13.3185434
  61.6770029  77.8502893  13.1079543  62.6078939  79.0437794  13.1086969
   5.2355760  26.8741775  15.4973280   5.9139657  27.5270867  15.6697416
   5.2217251  26.3295937  16.2843919  39.4617414  52.3163176   2.4426997
  39.4062710  53.1984329   2.0752329  39.1727638  52.4161053   3.3497643
  57.0682812   8.0790079  56.5018797  56.2485218   8.2341182  56.0326624
  57.0649815   7.1396333  56.6857195  64.8702192  24.0175653  25.0920153
  63.9644051  24.2898965  24.9451375  64.9375677  23.9115143  26.0409355
  11.6308177   5.7599211  22.1832657  10.9517074   6.4227587  22.0580125
  11.2548828   4.9596050  21.8166614  54.7982311  20.0101900  13.0690503
  55.5146456  19.3776989  13.0148578  54.0089893  19.4728720  13.1370008
   9.9539483  27.6305819  18.2455742  10.2370977  28.2673693  18.9017439
  10.1740670  28.0366015  17.4071670  16.1791360  26.6508532   3.4465146
  15.4021239  27.0560217   3.0613878  15.8859670  25.7811356   3.7183103
  49.0006542  72.3985052  27.6807737  48.2716513  72.9804087  27.8956461
  48.6239767  71.7537594  27.0819020  25.2763033  52.8136969  40.5206823
  25.5362177  52.5528288  41.4042091  24.3893361  53.1584644  40.6239223
  33.3142829  33.9658642  58.1918240  33.6049104  34.8765731  58.2405806
  33.1174326  33.8265419  57.2655010  37.2492480  69.8527050  27.6443958
  36.8175149  69.4463539  26.8929172  37.5588536  69.1153049  28.1703401
  82.3604107  56.4387321  13.6110628  82.0087910  57.3163605  13.7606251
  81.5958977  55.8642101  13.6521351  22.4572444  36.4156795  19.3358183
  22.7339172  36.9958448  20.0451088  21.6843700  36.8419385  18.9654088
  40.0257635  15.2094352   6.2697834  39.2786479  15.6957304   6.6184479
  39.9796867  15.3457022   5.3234535   6.7183101  24.6917963  38.0401254
   6.9690341  25.6135011  37.9782367   7.2405696  24.2557836  37.3667979
  29.4092441  70.4447031   8.4898192  28.4915805  70.6128836   8.7039173
  29.4003963  70.2166176   7.5602335  16.6693807  25.4147983  60.5189228
  16.6226542  25.8124638  61.3883543  17.1615541  26.0454082  59.9932528
  26.0398507  54.1108131  47.0188475  26.6474509  53.5008335  47.4371529
  25.1838803  53.6903238  47.1009398  42.7115011  27.2997785   8.7381756
  41.7637587  27.1669650   8.7187117  42.8260040  28.2342291   8.5651881
  81.6167068  59.7191811  66.9112349  81.3150120  60.5796003  67.2025824
  82.4058056  59.5546198  67.4274540  67.6707888  51.9887829  22.2261095
  67.5996971  52.9432678  22.2143054  68.4961319  51.8156624  22.6789546
   7.6322299  22.3176241  52.2489262   6.8197334  22.5423956  51.7955399
   8.0125737  21.6134262  51.7238760  44.0686989  42.5214624  68.4657049
  44.9943399  42.3940563  68.6735058  43.6405277  41.7259169  68.7819529
  18.0078197  41.1152887  21.8967414  17.0940709  40.9722567  22.1433926
  18.5010636  40.9541798  22.7010942   9.5939761  52.3914719  46.1308765
  10.3590584  52.5565577  46.6819000   8.8823760  52.8659201  46.5607071
  75.4308605  21.7613816  68.8688421  75.5044460  22.2240233  68.0341053
  76.2098312  21.2062597  68.9044952   9.3172920  33.3354378  28.5690689
   8.5704517  33.8918447  28.7901402   9.8744953  33.8887763  28.0217361
  44.6289206  29.7847080  66.4733744  44.5992041  29.9251390  65.5270004
  44.0289497  29.0546846  66.6261387  70.4222679   4.7671694  66.7291355
  71.2179518   4.8453954  66.2028265  69.7321081   4.5784420  66.0932922
  12.5434256  74.0507936  56.4100933  12.1098876  74.4641304  57.1567059
  12.5719643  73.1207085  56.6345072  74.3136263  57.7979803  41.8207455
  74.7799253  58.5496140  41.4549017  75.0039721  57.1744347  42.0462370
  41.3662815  63.6428833  16.2869012  42.1707726  64.1420603  16.4277864
  40.7497931  63.9961386  16.9282925  15.1708412  77.2442245  45.7909679
  15.6497681  77.6795721  45.0857496  14.3554890  77.7396774  45.8681917
  83.1402397  59.9099731  23.6208630  82.3090172  59.7152138  23.1879973
  82.9284096  59.9165821  24.5543051  71.3671780  33.4467220   8.3192313
  70.5175924  33.2680106   7.9161203  71.1953640  33.4229922   9.2605865
  51.2434912  26.6410899   7.1384251  51.1830091  26.2671852   6.2593514
  50.9291887  25.9459305   7.7165252  65.7050371  56.6751862  42.5968218
  65.4204321  55.7750273  42.4388647  65.9894514  56.6795731  43.5107803
  75.2401733  68.2956219  66.2468147  75.8693790  67.6097870  66.4703512
  75.1326418  68.2221699  65.2985144   3.4149924  14.9028766  66.0311842
   3.2929647  14.3992424  65.2263880   4.1046214  14.4363654  66.5034246
  25.9759045  23.3119440  31.0703087  25.5274510  23.7359309  31.8019891
  26.5088415  22.6298308  31.4788795  45.2743769  75.0667429  65.0204039
  44.6160030  75.4308510  65.6121826  46.0842037  75.5198431  65.2551699
  25.6546474  38.7279749  10.2373111  25.0797534  39.1028976  10.9045160
  26.5097594  39.1224289  10.4088473  82.6005268  48.3016825  21.0515428
  82.1713257  47.6828146  21.6423154  82.0691776  48.2808733  20.2556396
  49.5217991  62.7866507  16.7992103  50.4720688  62.8730059  16.8751526
  49.2511511  62.3842907  17.6244915  31.1849666  66.4202690  26.1345482
  31.4522386  66.2685919  25.2280211  30.2385592  66.2769461  26.1323977
  37.1827269  46.8892097  19.3045735  37.8985453  47.3359013  19.7565758
  36.5997005  46.6000032  20.0064802  23.7501955  43.0607176  25.0319934
  22.8197718  42.8363848  25.0468659  23.8673782  43.6462545  25.7800889
  25.1183867  69.4087601  18.0266726  25.1080465  68.4520340  17.9983711
  25.7819319  69.6602201  17.3842514  23.6873269  52.5909042   5.7961470
  23.1439257  51.8145084   5.6614131  23.2277584  53.0907726   6.4708054
  19.9018133  48.7552929  57.4099398  20.2284789  48.8051939  58.3082867
  20.6883168  48.6502743  56.8745708  74.3047571   0.9298049  58.2684517
  74.5273399   0.6090374  57.3944950  73.9405012   1.8020833  58.1178522
  29.4120836  28.1338024  44.0823507  29.1971135  28.3245492  43.1693172
  29.7381711  28.9638519  44.4300842  61.2908173  10.3847480  67.5919533
  61.5474129  10.2170706  66.6851568  61.0174561  11.3020658  67.5978041
  70.0292253  16.7349827  65.1828432  70.6498098  17.3658335  65.5477190
  70.5574274  15.9580898  64.9993467  50.0906515  70.0631285  63.5078335
  50.1783371  69.1130352  63.4312534  50.9902668  70.3814125  63.5828447
  30.2811480  77.3754501   4.3724757  30.0979280  77.0023346   3.5102424
  30.8881855  76.7559814   4.7774404   6.1180443  68.6372375  59.4999218
   6.8624008  68.9669561  60.0033665   5.8065730  67.8824282  59.9994040
  28.3219361  14.5210195   3.7446758  28.7454462  13.6664987   3.8263166
  28.3398056  14.8828161   4.6306866  30.7862520  39.5428371   0.0510107
  30.1287484  39.0795684   0.5699544  30.5115724  40.4593372   0.0793829
  67.2416162  24.0175247  20.0622988  67.0300293  23.8334727  20.9774971
  66.9891024  23.2221270  19.5934582  24.6233130  38.6919427  18.2506895
  24.6218395  39.0957904  19.1185236  25.2487516  39.2116332  17.7457356
  59.9095917  22.4309993  63.2079744  59.7761297  21.8247795  62.4793339
  60.5370808  23.0721760  62.8742313  13.0651152  46.6515160  11.1493552
  13.9841974  46.8597269  11.3171899  12.5784886  47.2092295  11.7562985
  42.0802832  60.1295185  13.6669898  42.3846531  61.0142088  13.4647226
  41.4740944  59.9167013  12.9574275  48.1315851  18.0550230   6.6175580
  49.0822029  18.1653750   6.5980905  47.8640223  18.4303808   7.4564546
  26.6922331  42.5388193  20.8350420  27.5789380  42.1991730  20.9560037
  26.3565803  42.6541328  21.7240143   0.6717736  52.7578211  25.9099030
   0.3823143  53.0764866  25.0549793   0.8155639  53.5515356  26.4252400
  20.5507827  44.1862106  10.9433961  21.4566636  44.3685293  11.1931312
  20.5091739  43.2325411  10.8725345  79.7883177  49.3948793  15.8040333
  79.4327593  50.2604389  16.0055637  80.7148552  49.5527983  15.6228507
  82.7041912  43.7635231  30.2508068  82.6687622  43.5117197  31.1736131
  82.4972057  44.6980762  30.2494311  69.4210625  26.6636586  55.8832979
  70.3045273  26.7445898  56.2426949  69.2886066  27.4724984  55.3888655
  28.9042568  35.3459716   1.9268665  28.3982944  34.6278715   2.3070839
  29.2843080  35.7967162   2.6809371  12.4189019  37.6512480  37.7458191
  13.3644366  37.5639629  37.8665566  12.3065352  38.5166883  37.3526049
  22.3466086  38.6630440   5.4929012  22.6854014  38.8083291   6.3762718
  22.9608870  39.1244030   4.9219030  25.3453541  44.4593382  22.7184248
  24.7337198  44.3566561  23.4475279  24.7862983  44.6103239  21.9562626
   8.6994880  66.5640450  13.4429383   9.1710186  66.3356781  12.6418519
   7.8788364  66.0746813  13.3855796  35.5422425  34.7507620   0.9757867
  35.1205802  34.0970874   1.5335883  35.0406313  34.7296238   0.1608201
  22.1334219  61.9907856  23.1563449  21.3247108  62.2475624  22.7133060
  22.7783680  62.6383591  22.8718710  34.2274547  46.4052677  16.1310530
  34.2391634  47.3488569  15.9706414  35.0701356  46.0954285  15.7992041
  45.1415825  59.9507380  30.9577751  44.9002028  60.1623344  31.8595481
  46.0962868  59.8837900  30.9748006   4.3054441  28.1748486   5.0997102
   4.1169876  29.1128755   5.1283312   3.7541410  27.8412771   4.3918774
  29.1665292  74.9429178  45.7148933  29.8273778  75.4898024  45.2901220
  28.3737850  75.4793692  45.7119608  80.5717182  45.6427145  53.9711714
  81.1271095  45.4989815  53.2049322  80.9120369  46.4452982  54.3664885
  64.6082735  24.2207408  60.8291578  64.6904325  23.8467169  61.7064190
  63.9052868  23.7170267  60.4188967  12.7308047  61.2470198  61.6472340
  12.4120164  60.3494453  61.7419577  12.5074732  61.4868546  60.7478857
   5.0116563  46.2498522   1.9108231   4.7602502  45.6184435   1.2367707
   5.6943476  45.8049679   2.4130596  29.9959517  58.8177109  18.0308521
  30.8350754  59.2446470  18.2035804  30.2224636  58.0447483  17.5136948
  72.0446491  33.6489248  58.4236717  72.8489208  33.6306477  57.9049778
  71.4786100  32.9966164  58.0109644  44.5104027  10.3507376  14.2670405
  44.6998453   9.9401438  15.1106966  44.3166399   9.6181297  13.6822546
  52.6675320  78.5739708  40.2139282  53.4669495  78.4399509  39.7048092
  52.6738787  77.8677988  40.8600855   3.4141225  29.0097833  62.0982218
   3.8426685  28.6129022  61.3398933   3.2968614  28.2857299  62.7132225
  65.4014587  19.0111518  51.9064379  64.5920277  19.5220518  51.9000864
  65.7466269  19.1202855  52.7925396   8.0865443  10.4964089  65.4059029
   8.1931722  11.4242303  65.6156874   8.2914257  10.0411117  66.2225771
  17.0593739  68.2869816  25.9327292  16.5350485  67.5548649  26.2572503
  16.4781141  68.7484694  25.3282475  78.1876612   8.0791050  61.9731665
  77.7792645   8.9391083  61.8739796  77.7153063   7.5173485  61.3587189
  38.8107276  11.2479556  34.6343160  39.6736765  11.4815760  34.2923021
  38.9374614  11.1843407  35.5809546  13.0421484  26.3794875  17.2789371
  13.3968103  26.8557429  16.5281844  13.7499774  26.3866878  17.9232645
  30.7592177  51.1491203  16.9542897  31.7006087  51.2809420  17.0667088
  30.6149578  51.2431526  16.0127068   1.4791857   0.9371378  65.3002357
   2.3776287   1.1643670  65.5398178   1.5740667   0.2779801  64.6126747
  30.9697461  67.9063749   4.6915886  30.6454992  67.9884529   3.7947279
  31.9125748  67.7729321   4.5941353  58.3867502   9.8830879  65.7838917
  58.6093807  10.7630169  65.4799318  57.5002337   9.7333699  65.4554081
  21.5511036  31.0154009   2.1183237  22.1202826  31.6898489   1.7476630
  20.7420063  31.0794115   1.6108847  24.4784236  26.1901379  56.0787678
  25.0273991  25.6987095  56.6897964  24.8627329  27.0666623  56.0632372
  53.8916302  21.3636255  15.6822765  54.6482229  20.8184290  15.4664993
  53.2124996  21.0847640  15.0680745  33.0982280  63.2536888  68.0022430
  33.9671278  63.3970261  67.6271439  32.8980541  64.0693474  68.4614420
  75.4083109  23.3337641  57.6423359  74.5671225  23.2742286  58.0952072
  75.1822519  23.6004448  56.7512655  28.8965797  57.2814131   8.4451568
  28.5084295  56.6356182   7.8547972  29.2653441  57.9463387   7.8636807
  25.9468985  40.7265282  28.8149285  26.5540409  41.4520454  28.9606714
  25.6491852  40.8409691  27.9124308  43.5435915   0.3310757   9.8894626
  43.9365101  -0.0402124  10.6793940  44.0318203  -0.0674986   9.1690439
  14.0861750  31.5399837   2.5156695  13.5876954  32.3175478   2.7669573
  14.6184993  31.3377547   3.2850623  16.9531858  17.2946239  44.1644287
  16.6620326  18.1673372  43.9001656  16.3554263  17.0459950  44.8694801
  67.4521542   4.5411184  62.0305729  67.0799828   3.9771512  61.3525915
  67.0086479   5.3812325  61.9133520  37.0366955  22.5078726  22.4606109
  36.1700320  22.8850460  22.3093820  36.9900393  21.6357541  22.0688653
  34.2492700  21.5906405  15.9457552  35.1016831  21.8605375  16.2874866
  33.6998415  22.3699236  16.0298979  12.4746847   2.5537780  59.4791222
  12.1122336   1.7163791  59.7683001  12.9246294   2.3496927  58.6592865
  54.2172003  67.9420185  39.6159267  53.7105894  68.7403870  39.4669867
  53.8299656  67.5556755  40.4014301   9.4432032  32.6193547  60.0324583
  10.3727329  32.7197361  60.2377129   9.2798138  31.6798139  60.1149225
  83.9465904  42.9871655   2.8369620  84.7226524  43.1151724   2.2914669
  83.2762241  43.5380697   2.4327955  16.1658394  57.8302050   6.0434276
  16.6713023  58.6120176   5.8209193  15.7879269  57.5445700   5.2116668
  10.8120298  45.5206347  44.1564178  10.2924991  45.7666302  44.9217987
  10.5637896  46.1554146  43.4843588  12.3169780  48.8348675  19.3282163
  12.4957407  49.4004393  20.0794888  11.6257918  49.2886209  18.8459277
  21.6281486   9.3799198  62.6475477  21.1466050   8.5568088  62.5648594
  21.6917753   9.7112143  61.7517662   6.6649234  17.2120643  64.9007607
   6.2086469  17.0818698  65.7320833   6.4903522  18.1250226  64.6721458
  27.4498796  67.3202419   3.9969978  26.5905261  67.3998022   4.4110146
  27.5780320  68.1561661   3.5486171  10.7957649  12.9402256  61.9362307
   9.9269515  13.1907034  61.6221380  11.0280633  12.1736085  61.4122391
  66.2646723  13.6815774   0.7305816  66.3143921  12.7761781   1.0371930
  66.8420601  13.7081158  -0.0324063  24.9215436  52.4752760  18.6441016
  25.5192900  51.7302799  18.7066472  24.9537611  52.8815699  19.5101953
  44.8569918  34.9418235  20.1272845  45.6462812  35.4633784  19.9815631
  44.4120550  34.9388003  19.2797875  22.0335555  38.4151673   1.0610301
  22.9150891  38.2993460   0.7064682  21.8585491  39.3514895   0.9666610
   4.1295666  64.4356108  57.3913431   4.5887300  63.9021397  58.0400419
   4.7220343  65.1677942  57.2206879  64.6406555  69.8380709  64.4504833
  63.7535954  69.8499584  64.8099470  65.1615143  69.3842649  65.1130486
   7.7720153  12.4379015  67.9605770   7.7349395  12.3382831  68.9118576
   8.6661094  12.7312422  67.7851391   9.7091353  23.5585928  62.4902725
  10.0822747  23.1116033  61.7305374   8.7624884  23.5025072  62.3600960
  14.7660589  48.8774204   7.2156107  15.0921893  49.1125441   8.0842811
  14.4028699  47.9986906   7.3258895  48.5005903  11.5421724  28.7633181
  47.7840757  12.1731973  28.6951447  48.0880499  10.6932306  28.6041284
  47.4647570  14.4562984  16.6461635  47.7649307  13.9672303  17.4122846
  48.2610416  14.6245122  16.1423099   3.9583948   9.2289239  13.8908446
   4.3332401   8.6543810  14.5583940   4.5942849   9.9387491  13.8012683
  27.9374313  10.1822090  42.7129078  28.5271645  10.3912735  41.9885206
  28.4446001  10.3815997  43.4998322  74.4827461  73.3438063  57.2572422
  74.4947910  73.6217356  56.3413572  73.5581207  73.1850052  57.4472094
  43.0902624  62.6377249  13.4857738  43.1102180  63.0562019  12.6251292
  43.3271027  63.3353662  14.0968680  82.3178291  34.9501514  30.9934092
  83.2461262  34.7422981  30.8870888  82.2697067  35.4093146  31.8319106
  47.3302507  30.2478242  60.0067616  47.2701454  31.1173558  60.4024029
  48.1230736  30.2824974  59.4715405  32.6759481  25.8067226   5.0328851
  33.1710649  25.0403571   4.7434485  32.5306630  26.3137031   4.2340761
  16.2983000  55.9453154  31.3299680  15.4897392  55.4385233  31.2549853
  16.7057002  55.6284332  32.1360970  45.3574276  67.4827766  26.9061208
  45.4648733  68.3844376  27.2089243  44.4102478  67.3663521  26.8317556
  36.3248181  18.8563287  39.0528202  36.7019916  19.4295597  39.7201848
  36.7184234  18.0003703  39.2220569  44.5353174  39.5462322  13.3813906
  43.6158276  39.4096541  13.1530929  44.9566698  39.7736168  12.5525427
  76.1509037  23.4109998  52.2457409  75.5369520  22.7596426  51.9065762
  75.9090567  23.5115337  53.1664085  71.3925600  64.1985703  29.7212243
  71.0971928  64.9417400  29.1952133  71.0201120  64.3561172  30.5888033
  53.7248611  61.4080429   4.6902984  54.6565390  61.2487173   4.5392150
  53.6979866  62.2374582   5.1673514  71.8690157  12.1405876   2.4481428
  70.9141254  12.1852756   2.3989995  72.1514702  12.0455313   1.5385193
  11.4564252  62.9340696  25.9555602  10.5200493  63.1067657  25.8575392
  11.5808558  62.0648813  25.5744219  51.9231749   5.4562092  55.8707666
  50.9803963   5.3628594  56.0074615  52.2810793   5.5839962  56.7492914
  37.9774344  79.5557270  50.1654482  37.4381459  79.3095293  49.4139242
  37.8214324  78.8644634  50.8089113  18.4468687  67.8747368  28.5300946
  17.9471636  68.2263947  27.7933025  18.7316144  68.6479712  29.0171862
  76.6565037  35.4162073  59.5456076  76.7606640  36.2165475  59.0309858
  76.9596720  34.7175026  58.9658403  14.2490053  51.1334419  17.5197816
  15.0483680  51.2761927  18.0266094  14.3857610  50.2894258  17.0894718
  66.1323977  54.7151995   6.9473135  66.4123774  55.1176310   6.1251861
  66.4681196  53.8199377   6.9022751   8.3056641  13.9753449  61.0884380
   7.7224934  14.0680909  61.8417883   8.8140219  14.7863257  61.0777950
   3.6910370  72.8218222   7.9844338   3.2441112  72.5069571   7.1987170
   4.6112639  72.8831530   7.7282053  26.6957402  22.7808928  64.6026993
  27.5643969  22.7549124  65.0039339  26.2211132  22.0574117  65.0120068
  16.4103544  64.0664434  58.4251308  16.1831224  63.6885738  57.5755358
  16.3056970  65.0100708  58.3032799  -0.3450838  10.5664635  20.5855393
   0.1117477   9.7648340  20.3307319   0.3546054  11.1796105  20.8107448
   5.6253833  66.2859201  60.6867027   4.8249787  65.7609606  60.6856441
   6.0639614  66.0522938  61.5048122  65.3885174  61.1134338  56.1613607
  65.6604052  60.8767223  55.2746344  64.4446611  61.2569189  56.0922003
  73.2108164  55.4365683  31.0680532  73.8220549  54.7228718  31.2504125
  72.8872061  55.7007074  31.9292951   5.9045780  36.8144155  39.7088814
   6.0118210  37.0949292  40.6177521   6.5385187  36.1054468  39.6006465
  49.2203808  45.9398222   0.7024365  48.3135271  45.7794762   0.9634823
  49.2777824  46.8905783   0.6076060   5.4256457  61.9611979   5.4853761
   5.5405951  62.2256470   6.3981116   5.9612471  61.1730289   5.3951007
  32.5370932  65.3651905  11.9298279  32.5521135  66.3106680  12.0784330
  33.1664753  65.0137281  12.5595784  15.0472844  65.8344030  50.5598783
  14.6669602  66.1658382  49.7464037  15.7550561  66.4468622  50.7603359
  48.4134388  16.2882435  48.1332111  48.0224800  16.2974143  49.0068817
  47.9276800  15.6123447  47.6605225  15.4368412  68.7146997  23.6914253
  16.0257554  69.4146347  23.4094596  14.7380865  69.1659021  24.1651249
  35.7365227  49.9395132   6.1506057  35.0958681  50.3794384   6.7094058
  36.2368345  49.3856907   6.7499405  54.0313911  70.8361578  39.6747565
  53.3919382  71.5317392  39.8280501  54.2126369  70.8800888  38.7358999
  50.6798697  72.9003048  68.9251804  50.2582645  72.2612190  68.3506823
  51.4193726  73.2300901  68.4146833  60.9886074  43.2117987  39.4921684
  61.8398952  43.3392429  39.9108529  60.7094908  42.3416233  39.7769904
  10.8010697  44.0075874  63.0263615   9.8857683  43.7769604  62.8674078
  10.7847810  44.5011520  63.8463354  29.7070408  75.2694511  29.7021794
  29.9540997  74.3653297  29.5078635  29.1324067  75.2021074  30.4647350
  24.6821427  55.2348089  11.9114947  25.6121874  55.4417467  11.8197072
  24.2678809  56.0753536  12.1067011  75.4234552   8.5879976  13.2612062
  75.1334047   7.8804231  12.6854980  75.4871321   8.1823790  14.1258740
   6.8926758  69.4602060   4.0507376   7.6446760  69.5043468   4.6413130
   6.1453718  69.7068071   4.5956731  39.7902513  76.3355732   8.4576350
  39.8215628  77.0594311   9.0831620  39.0071511  76.5052319   7.9339951
   4.4234043  42.0322609  16.5773368   5.2273870  41.8188190  16.1037481
   4.3195796  42.9765034  16.4596093  76.5922022  50.2095890  33.2872486
  77.4544477  50.4298162  32.9347324  76.4765596  50.8057261  34.0271664
  49.2541372  -0.0256108  37.8085756  49.3079316   0.8718778  38.1369734
  49.5154369  -0.5687999  38.5521483   6.2887824  64.7810984  10.7328343
   6.7532301  64.6899509  11.5648282   6.9828725  64.8435068  10.0766516
   1.1931905  67.0420408  19.8227429   1.1487301  66.1712790  20.2177405
   1.2580706  66.8754482  18.8823867   3.7271729  31.6993999  44.1634607
   4.5656332  31.2406468  44.2159986   3.9390886  32.6099777  44.3688154
  66.6284180   6.0580152  10.1740742  67.0148468   6.5852338   9.4748276
  67.3641014   5.8457977  10.7484996  17.0962214  20.4603004  63.8846970
  17.4198973  20.8872437  64.6779108  17.4267590  19.5638943  63.9432764
  27.6098776  74.2353058  34.4332409  27.9396868  74.7653294  33.7076139
  27.0201707  74.8205280  34.9086237  14.9202049  62.6531839  62.4439287
  14.7411096  62.9210377  63.3452654  14.1813397  62.0915508  62.2096634
  66.7506218   9.9703217  56.2365627  67.3283195   9.4826669  55.6494617
  66.7038631   9.4330084  57.0273495  17.4607611  64.9902344  33.1327915
  18.2607496  64.4908333  33.2966447  17.2216547  64.7708273  32.2322822
  48.8441133  66.1305952   2.6570699  48.1187773  65.8059835   3.1906843
  49.3847513  66.6320658   3.2673743  45.9364271  23.2635856  56.4171219
  45.9852362  22.8574586  57.2825193  45.5600405  22.5860238  55.8554554
  76.1205101  62.2695637  37.7783728  76.6944981  62.2389317  38.5437679
  76.5191984  61.6618299  37.1555281  66.0097694  21.2740660  54.9594641
  66.4175892  21.2954593  55.8251762  66.1891699  22.1381450  54.5887709
  26.9199848  47.2184181  64.1460276  27.8381824  47.4268103  63.9736414
  26.8570900  47.1850061  65.1005745  78.8927317  32.2606468   8.3691865
  78.0718517  32.5234509   7.9528689  78.7555504  32.4348712   9.3003464
  82.5922966  63.8233471   9.1411310  81.6731644  63.5599899   9.1867381
  82.7874279  64.1640186  10.0141120  33.3434701  49.6664906  10.3769231
  32.7421355  50.3223181  10.7297981  32.9041100  48.8304138  10.5323839
  15.1225710  44.1858149  38.8831878  14.1973770  44.2782164  38.6557913
  15.3231454  44.9700785  39.3940020  20.1705837  49.2537880  67.6046705
  19.4346082  48.7195015  67.9031849  20.1464009  50.0293493  68.1651640
  49.0943766  35.4974556   7.3334718  48.2913065  35.9135413   7.0201236
  49.7995710  36.0059524   6.9330198  53.2625437  19.8924005  65.9527111
  52.6215792  20.2070117  66.5902185  53.2295704  18.9389348  66.0304785
  60.7857895   7.2408146   9.4613123  61.3245964   6.8239093  10.1337004
  59.9225330   6.8401301   9.5636672  42.1697998  78.8940525  68.5139990
  42.6037359  79.4801235  67.8939581  42.5913095  79.0787411  69.3533182
  28.1746507  52.6232147   5.9208816  27.4015808  52.2717667   5.4792023
  28.8855338  52.5031567   5.2912295  31.5415096  41.6322517  29.5926690
  30.7432008  41.2804461  29.1987586  31.7251635  41.0456276  30.3264070
  36.9769335   2.0605770  10.7938659  37.4208832   2.1128967   9.9474603
  36.0818100   2.3473842  10.6129563  61.8467093   3.1876659   7.6345110
  61.4265490   3.8835567   8.1399137  61.3111877   3.1081891   6.8451232
  81.4962673  76.5372038   2.7829269  82.4458504  76.6387415   2.8477588
  81.3749886  75.7026148   2.3301709  23.2353401  17.1867597  44.8546457
  23.1690788  18.0766821  45.2008820  24.1622162  16.9642150  44.9418783
  65.9039497  23.8066816  53.7127399  66.6802406  23.6352158  53.1796360
  66.2446117  24.2206955  54.5056915  15.1669490  34.5462990   0.6398620
  15.8689475  34.4291520   1.2799457  14.7839260  33.6745238   0.5422132
  58.8715935  51.1165571  66.2169886  59.0524340  50.3241491  66.7225742
  57.9342508  51.0715723  66.0283041  22.6404858  60.7616425  25.7610989
  22.4326324  59.9507856  26.2253547  21.8949294  60.9012032  25.1772308
  78.2512665  73.2699919  60.9303761  77.6913881  73.5455370  61.6562176
  78.2522202  74.0168762  60.3317213  19.2856336  79.2578554  14.6896327
  18.6460531  78.6970234  15.1285315  19.9994206  79.3468523  15.3211546
  15.1801360  38.4561086   3.4867725  15.4480255  37.7215934   2.9345447
  15.0917482  39.1916800   2.8806734   3.8721016  12.8600478  32.6834917
   3.6116070  12.2862303  31.9630003   3.7664527  13.7452352  32.3349047
  54.4984436   3.5108602  41.2196684  54.0703154   4.2163798  41.7046213
  53.8613081   2.7965266  41.2236691  80.5244064  20.6237388   3.3624497
  81.2420273  21.2168598   3.5848448  80.1249409  21.0123277   2.5842077
  35.1825905  50.7627296  19.9011934  35.6762266  50.5447197  19.1106057
  34.4100857  50.1987123  19.8643672  44.0097904  77.9794264   7.0360798
  43.0630112  77.9543591   6.8974566  44.2104292  78.9082050   7.1516198
  43.1692028  75.6511688   9.1454327  43.6823273  75.6541824   9.9534726
  42.5212669  76.3445330   9.2705745   1.8153627  38.8260508  62.3040295
   1.5819310  39.2065763  63.1507540   2.7431673  38.6061049  62.3878956
  74.2638731  78.4498882  66.2218237  73.7695312  78.0573225  66.9413710
  73.6595106  78.4346771  65.4796982  61.8019724  17.6353288  18.0027211
  62.0946503  16.7292047  17.9051840  61.3055229  17.8139591  17.2040606
  47.3281527   6.9206983  67.4643898  47.5363398   7.8536642  67.5140285
  46.3799477   6.8799365  67.5887871  31.5043330  70.5566120  24.6318913
  31.8904757  71.2025690  24.0403986  30.5854630  70.5092859  24.3679428
  58.6188936  73.9038992  14.1591656  58.9697981  74.7319269  14.4869840
  59.2857838  73.5851908  13.5509610  23.9195919  46.1604548  27.8345942
  24.0489793  45.4984856  28.5137796  23.0424762  46.5058374  28.0007601
  25.5947113  39.5395184  65.2931690  25.9638453  39.8310685  66.1268187
  24.6479893  39.5488572  65.4340982  23.6188698  68.9897537  21.8539166
  23.1717873  68.2043362  22.1693039  24.4288850  68.6632395  21.4621282
  48.4263754  23.3404779   3.8443846  48.4781218  23.1288338   4.7764581
  48.4593439  22.4913549   3.4037772  35.1476073  33.4510255  19.2792416
  34.9763417  32.9253221  20.0606108  34.3305802  33.4141088  18.7819135
  41.4795113  37.6363587   6.1293298  40.9329128  38.4151673   6.2338340
  41.6937590  37.6175094   5.1966059  27.5968289  70.1022816  11.9922864
  27.1130800  70.6976318  12.5648046  27.6295376  70.5544662  11.1492610
  79.8679066  22.1269798  44.1961575  78.9768839  21.9022226  43.9282227
  80.2088261  21.3245225  44.5912123  20.4806328  59.3735266  35.0470018
  20.9150457  59.4705820  35.8944082  19.9099565  60.1391888  34.9813104
  47.1897650   0.7378617  21.5541697  47.4291229   1.5888855  21.9211841
  47.0662069   0.1739438  22.3176885  31.8931913  23.7322164  61.2661552
  32.4350667  22.9786563  61.5001488  31.7082620  23.6141610  60.3344393
  78.4568262  36.7215800  52.3915434  77.6752710  36.5720558  52.9235697
  78.4468746  36.0138822  51.7471075  66.2329626  31.6782379  46.6850328
  66.4494753  31.0866690  47.4057293  67.0627499  32.1018076  46.4653206
  33.0660939  -0.0226822  23.8602233  33.7001872   0.4783705  24.3731570
  32.8063130   0.5703017  23.1551576   0.3024220  17.4093115  58.4150267
   0.7522289  17.0843410  57.6350927   0.9989699  17.5300825  59.0603685
  46.5185499   5.9982741  52.4316835  46.6326618   6.8612719  52.0336294
  46.6240454   6.1517340  53.3705902  50.9680939   7.6229489  11.8313515
  51.0649681   6.6718888  11.7830586  50.6547356   7.8761780  10.9630704
  29.2918229  63.8369894  37.5035024  29.9173498  63.4901047  36.8674064
  28.9798045  64.6529007  37.1121407  73.8682795  21.6828179  59.9299812
  73.6445808  21.3790512  59.0502548  73.0239058  21.7939210  60.3669310
  12.1972656  27.0391703  29.7165489  11.9224918  27.9343390  29.9150634
  12.9263389  27.1424747  29.1049838  61.1124754  14.3715668   0.9736713
  61.2306976  13.5678589   0.4674026  60.3874016  14.1762483   1.5672651
  76.8391180   8.1191581  46.1796522  75.9031725   8.0595475  46.3711929
  77.2664595   7.9591107  47.0210791   7.2348070  50.3972721  66.1938143
   8.0010009  50.0218487  65.7599545   6.5947849  50.5132914  65.4915714
  25.5202007  47.5408363   8.1460017  25.8739400  48.2296276   8.7087327
  24.9512362  47.0298624   8.7216914  50.4650974  29.3621349  55.4930305
  51.0659742  28.6312151  55.3483438  49.8294783  29.0279841  56.1259317
  32.9677010  63.5162210   7.7842247  32.9383326  63.6306000   6.8343371
  33.7657118  63.0111361   7.9400891  62.6736593  69.7871876  66.6993666
  63.0838776  70.3506851  67.3554325  63.0946684  68.9357662  66.8179607
  45.7351780  40.8828068   5.9918302  45.8567476  40.1512241   6.5970075
  46.0621977  40.5569077   5.1533324  59.5605278  64.8239899  20.3652883
  59.0394592  64.0834665  20.6756830  60.2352333  64.4277239  19.8139429
   3.9159441  20.3090310   6.5369827   3.9718348  20.7110667   7.4038601
   4.1732377  21.0055399   5.9329051  19.0571022  31.2448215  58.1083918
  18.2443941  30.7481861  58.2037306  19.7449172  30.5791926  58.0995369
  57.1634245  22.3633385  18.6661363  57.3687124  22.3129559  19.5997047
  57.9519796  22.0408654  18.2297587   0.2651003  71.3149261  13.8684750
  -0.3567678  71.6346598  13.2148075   0.2576753  71.9835997  14.5533466
  68.2737350  64.4024420   5.4297984  68.6797380  64.9881220   6.0688382
  68.6627388  63.5463095   5.6085372  41.4355516  74.6159077  14.9105477
  42.3408127  74.4231653  15.1546443  41.0652828  75.0439405  15.6825042
  78.7112808  72.9498005  12.6378047  78.9227438  72.5108147  13.4617019
  77.8255796  72.6530552  12.4287546  55.4450512   0.7639896  35.0171733
  55.8020163   1.3923095  35.6448841  54.9920559   1.3037084  34.3693066
  49.3280411  44.2709494  68.5171843  49.5107698  44.2200994  69.4554043
  50.1827335  44.4250345  68.1147099  33.7419105  16.7379773  14.6949220
  34.1439939  17.3719275  15.2887797  33.7740827  17.1601224  13.8364410
  33.2211161   9.8314339  31.9816041  32.9399776   9.5848018  32.8627181
  33.3558822  10.7778966  32.0293331  78.1772470   7.0080626   1.8585952
  78.2579613   7.9413748   1.6620101  78.8198614   6.8526405   2.5507787
  49.5502567  70.9282732  16.8439472  49.3742561  70.1279879  17.3387182
  50.4810429  71.0990191  16.9878578  31.8520212  58.4901667  68.0258512
  31.3217878  58.3396149  68.8084269  32.1033382  57.6136827  67.7345610
  42.3851585  67.0665741  23.5905933  42.4955797  66.7980909  24.5027089
  42.1503115  67.9931784  23.6404181  20.3250718   3.0646873  64.8772573
  20.9281325   3.2361132  64.1539574  19.7380984   2.3859999  64.5439720
  45.3369856  57.2858477   3.5692886  45.4819441  56.8831778   4.4254860
  44.8555279  58.0905199   3.7614736  54.6419716   7.5682777  63.1391382
  53.9483690   7.0839602  62.6912689  55.3527832   7.6149356  62.4997616
  19.4536090  78.9199591  26.4368987  18.8151205  78.5653210  27.0556045
  19.6381974  79.8011541  26.7619371  83.9553547   8.1496125  16.2210476
  84.5514488   7.5651830  16.6893899  83.6427402   7.6297039  15.4806435
  72.2784138  17.2859406  16.6914785  71.7350721  17.5860620  15.9628201
  72.5600433  18.0902410  17.1273875  80.1030731  70.5788803  63.5195017
  80.6890583  69.8272562  63.4305000  79.2856169  70.2950525  63.1103086
  17.7975678  32.8813004  35.1369119  17.4117184  32.5580835  34.3227339
  17.4681425  32.2865748  35.8107138  10.7103252  43.1521988  68.5045958
   9.7872508  43.3368874  68.6779594  10.7149136  42.7484608  67.6367188
  39.5009327  63.9293003  13.9043200  40.2142191  64.3218899  14.4076347
  39.5800018  62.9897976  14.0695822  14.6638060  22.5169492  61.4820528
  14.4173670  22.8882408  62.3291874  15.5724740  22.2390747  61.5975475
   7.8383261  50.3063393  10.0367320   7.3180467  49.7330427  10.5996418
   7.2248471  50.9839010   9.7524995  23.9434361  63.5943508  10.8890080
  24.3196130  63.6871672  10.0137317  23.9507008  64.4815969  11.2481427
  57.3927116  63.4781933  41.2912941  57.5529909  64.1212988  40.6006765
  58.2633924  63.1580544  41.5272141  47.3704720  71.2692928  66.0170794
  47.2729826  72.2206068  66.0587072  47.2120476  71.0522652  65.0983667
  23.7072086  17.2277200  11.9711161  24.5870614  17.2513938  11.5949106
  23.1339335  17.0398736  11.2279463  27.2589517  60.6635904  28.8443065
  27.7059412  60.8275270  29.6747041  27.1041751  61.5349150  28.4795189
  27.2276568  56.6657305  23.1405735  27.1616912  56.8838167  22.2108865
  28.1382823  56.8548250  23.3669209  29.3197703  23.6943674   3.2753205
  28.9306641  24.4723725   2.8759018  28.6100101  23.0522966   3.2900813
  37.2994208  76.9904089  47.6505423  36.4755440  77.1867180  47.2045374
  37.0579052  76.9041872  48.5727501   9.9263453  63.4002304   6.6330522
   9.2048776  63.5531235   6.0228550  10.3845298  62.6392603   6.2763625
  58.5774136  54.7021484  13.8682950  59.3754864  55.2273464  13.9272809
  57.9021740  55.2461624  14.2736709  74.1574526  37.8504491  67.2336435
  73.6534023  38.3906388  67.8422213  73.9364100  36.9503522  67.4728012
  55.5766582  43.5465097   7.3939294  55.4957438  42.8505802   8.0461311
  56.4342117  43.9360619   7.5644720  64.1759157   6.7240405  63.9468956
  64.8197079   6.5073031  63.2725191  63.3310223   6.5205169  63.5456896
  32.7173853  72.7652264  54.0046883  32.0669007  73.0694246  53.3717871
  32.7302480  71.8142319  53.8966179  29.2292833  27.4264526  28.2823777
  29.4365025  26.7808914  27.6066995  28.9660954  26.9040775  29.0400624
   2.7088934  29.0755963  13.8972127   2.9529431  29.2955399  14.7962666
   3.2132375  29.6835327  13.3565807  32.3898029  30.8100820  10.2888334
  32.9614639  31.0424447   9.5570952  32.7051497  31.3439751  11.0180426
  38.1267643  39.6688890  24.1398835  37.7908158  38.7794662  24.0289903
  37.3634720  40.2313423  24.0084887  75.1515293  63.2277822  61.8224287
  75.4668903  62.7340269  61.0654688  75.3137589  64.1434622  61.5956020
  75.5716801   4.0044442  64.3954420  76.0552359   4.7966141  64.6296978
  75.9232903   3.3289266  64.9753380  14.3144262   9.0480447  29.9115849
  15.0836098   8.5307521  29.6728468  14.3862462   9.1605866  30.8594298
  73.0289555   4.5607480  18.8723123  73.2761049   4.4480851  17.9544592
  73.7127876   5.1223427  19.2372954  28.1751585   6.4895493  14.7301769
  27.8352523   6.6224974  15.6150627  29.1015911   6.2853265  14.8576391
  43.9940643  56.6827965  17.0742965  44.9494267  56.7060947  17.1288693
  43.7105608  56.4180946  17.9493904  13.6433721  44.6863937  27.1518445
  13.8216698  45.4523563  27.6975036  14.1531825  44.8356581  26.3555765
  15.2888751  50.8283663   5.3395033  16.1779869  51.1301708   5.5255872
  15.1371825  50.1258278   5.9716904  80.5685520  41.2104797  40.4976654
  81.4823246  41.2073565  40.2126360  80.2052784  40.3975821  40.1462936
  70.3104925  24.2892146  19.9398303  70.0426483  24.7794127  20.7171321
  69.6387386  23.6148620  19.8386860  72.5621223  55.5326796  54.2261076
  73.4466267  55.8982944  54.2114973  72.6091766  54.7688246  53.6511755
  57.5502634  31.4220858  62.0777845  58.2376289  30.8632708  62.4403858
  57.9083347  32.3081183  62.1322203  30.7636333  13.6821997   8.1447583
  30.6508660  14.6123660   8.3404791  29.8715997  13.3406758   8.0825418
  31.7381525  13.4476256  12.0382726  32.4032998  14.0110731  11.6428781
  31.0532260  14.0512085  12.3260152   5.6095457  61.1827469  53.6209583
   6.3008547  60.5364132  53.7644053   5.5337715  61.2450886  52.6688004
   0.0444762  18.5987496  36.5843296  -0.1059850  18.4617400  35.6490111
   0.1381843  17.7164972  36.9436073  31.5956664  68.3681202  39.0714598
  31.8894196  69.1211510  38.5587382  32.2415447  68.2897520  39.7735500
  48.9247370  36.2193203   3.4748787  49.7256756  36.7205215   3.6282474
  48.8839960  36.1179924   2.5239292   1.1996864  24.0368772  58.2983637
   1.7838001  24.7662997  58.5056925   0.4780865  24.1233611  58.9212990
  40.5273008  43.4094524   8.7439317  39.7709441  43.7575817   9.2161232
  40.9770584  44.1845036   8.4074163   7.4655730  62.7291632  18.2819355
   7.6604432  63.2007837  19.0917683   6.9631177  61.9650888  18.5647190
  11.5524876  34.0844631  49.0387297  11.8058205  33.3207345  49.5571613
  11.6306353  34.8216343  49.6442890   8.1402904  35.4384565  35.3266692
   7.1852046  35.4947901  35.2971768   8.3860654  35.0875187  34.4707084
  28.2960033  72.4901724   2.8518921  28.2288623  72.8087807   1.9517727
  27.7629900  73.0998898   3.3621639  33.0723548  70.1156282  54.8627234
  32.2236562  70.0702810  55.3030491  33.7028646  69.8427343  55.5292225
  57.7301168  11.1279976   4.6206319  57.2955322  10.2890074   4.7738072
  58.5389614  11.0752404   5.1297677  47.2900295  57.3680687  15.8663046
  46.8759394  57.6833534  16.6696441  46.5617228  57.0631123  15.3251910
  12.8012252  30.8704233  54.3009901  12.1483028  30.6935501  53.6237621
  12.3888481  30.5774546  55.1136065  65.3793716  40.7642412  60.5069208
  65.7379103  41.3452625  59.8360300  65.9667444  40.8711290  61.2551212
  33.1169653  73.2366228   7.6055264  33.0676794  72.9782248   6.6851830
  33.5969353  74.0647411   7.5964206  47.3661804  50.4990864  11.7629218
  48.0594015  51.0683489  12.0970094  47.0847893  50.9167433  10.9489119
  32.4065804  23.6105895  14.9545217  32.6856971  23.6588049  15.8688521
  32.6304388  24.4670057  14.5902824  17.7501988  79.0320921   2.3293148
  17.8820360  78.6315823   3.1886402  17.2566772  78.3786345   1.8336754
  83.0217743  10.6402409  55.1926994  83.4502411  11.4264405  54.8542643
  83.4728241   9.9160242  54.7587681  37.8616977  56.4913368  18.5104239
  38.6222649  56.9561481  18.8593102  37.7220917  55.7678938  19.1214633
  17.5855517  71.6134930  36.9280696  18.4682441  71.9512653  36.7764306
  17.0204234  72.3835278  36.8655920  70.8244467   3.5509846  52.1722078
  70.8891821   3.6100829  53.1253862  71.2103844   2.7015981  51.9581366
  68.8829899   3.5362542  24.7072411  68.4948683   2.6971820  24.9553347
  69.4139004   3.3359769  23.9363599  41.2534094  65.9756756   8.9379668
  41.0568619  66.9101954   9.0033203  40.5362892  65.5468655   9.4049758
  65.8447266  33.8614869  62.7140522  66.0218000  32.9421258  62.5149250
  66.2853193  34.3467999  62.0165014   9.1302818  16.8024647  51.2413597
   8.8910925  17.4852765  50.6146288   9.1214740  17.2433925  52.0909071
  13.3241355  63.6535740  31.9018555  13.9789677  64.0183878  31.3065910
  13.6013687  62.7473640  32.0365953  59.3876076  27.8204918  25.1178169
  58.5336637  27.7980876  24.6859479  59.1827679  27.8957224  26.0498118
  11.1372626  29.7946119  26.5075803  10.3663218  29.2358184  26.4094448
  11.0759807  30.1325250  27.4010515  81.9765186  53.3591843  16.9894123
  82.0796108  54.2850876  16.7696154  82.3155880  52.8924990  16.2255645
  84.1547902  84.1547902  84.1547902 109.4712190 109.4712190 109.4712190
